Job enc_comp_L1_PL139 started on bp1-compute082.data.bp.acrc.priv at Thu Mar 27 22:18:11 2025
jobid: bp1-compute082-0-67e5ce9e

  +--------------------------------------------------------------------+
  |  Jaguar version 12.5, release 138                                  |
  |                                                                    |
  |  Copyright Schrodinger, Inc.                                       |
  |  All Rights Reserved.                                              |
  |                                                                    |
  |  The following have contributed to Jaguar (listed alphabetically): |
  |  Ty Balduf, Mike Beachy, Chandler Bennett, Art Bochevarov,         |
  |  Dale Braden, Yixiang Cao, Alan Chien, Chris Cortis,               |
  |  Rich Friesner, Jim Furness, Bill Goddard, Hod Greeley,            |
  |  Tom Hughes, Leif Jacobson, Jean-Marc Langlois, Daniel Levine,     |
  |  Rob Murphy, Dean Philipp, Tom Pollard, Murco Ringnalda,           |
  |  Daniel Mainz, Pablo Videla, Mark Watson, Haoyu Yu.                |
  |                                                                    |
  |  Use of this program should be acknowledged in publications as:    |
  |                                                                    |
  |  Jaguar, version 12.5, Schrodinger, Inc., New York, NY, 2024.      |
  |                                                                    |
  |  A. D. Bochevarov, E. Harder, T. F. Hughes, J. R. Greenwood,       |
  |  D. A. Braden, D. M. Philipp, D. Rinaldo, M. D. Halls,             |
  |  J. Zhang, R. A. Friesner, "Jaguar: A High-Performance Quantum     |
  |  Chemistry Software Program with Strengths in Life and Materials   |
  |  Sciences", Int. J. Quantum Chem., 2013, 113(18), 2110-2142.       |
  +--------------------------------------------------------------------+
  
  start of program pre
  
  Job name: enc_comp_L1_PL139
  Executables used: /software/local/apps/schrodinger2024-3/jaguar-v12.5/bin/Linux-x86_64
  Temporary files : /tmp/ar21627/enc_comp_L1_PL139#bp1-compute082-0-67e5ce9e
  Basis file : using default basis file from /software/local/apps/schrodinger2024-3
  Maestro file (input):  enc_comp_L1_PL139.mae
  Maestro file (output): enc_comp_L1_PL139.01.mae
  
 Contents of input file: &gen and (if present) &atomic sections only
 ----------------Contents start----------------
&gen
dftname=b3pw91-d3
basis=6-31G*
numd=5
ip11=2
iaccg=3
isolv=2
igeopt=1
solvent=benzene
ifreq=1
&
&atomic
atom basis
Pd2 lacv3p*
Br3 lacv3p*
&
 -----------------Contents end-----------------
 
  PS calculation requested. Using PS version of 6-31g*
  basis set:               non_standard                    
  net molecular charge:    0
  multiplicity:            1
  
  Using up to   4 threads per process
  
  This run will use ECP on            2  atoms
  number of basis functions....          498
  
  input atom labels were not unique
  original atom labels:
 P1       Pd2      Br3      C4       C5       C6       C7       C8      
 C9       F10      H11      H12      H13      H14      C3       C4      
 C5       C6       C7       C8       C9       C10      C11      C12     
 C13      C14      C15      C16      C17      C18      C19      C20     
 C21      C22      H23      H24      H25      H26      H27      H28     
 H29      H30      H31      H32      H33      H34      H35      H36     
 H37      H38      H39      H40      H41      H42      H43      H44     
 H45      H46      H47      H48      H49     
  new atom labels:
 P1       Pd2      Br3      C4       C5       C6       C7       C8      
 C9       F10      H11      H12      H13      H14      C15      C16     
 C17      C18      C19      C20      C21      C22      C23      C24     
 C25      C26      C27      C28      C29      C30      C31      C32     
 C33      C34      H35      H36      H37      H38      H39      H40     
 H41      H42      H43      H44      H45      H46      H47      H48     
 H49      H50      H51      H52      H53      H54      H55      H56     
 H57      H58      H59      H60      H61     
 
  
 Input geometry:
                                   angstroms
  atom               x                 y                 z
  P1            0.0000000000      0.0000000000      0.0000000000 
  Pd2           0.0000000000      0.0000000000      2.3304135331 
  Br3           3.8542814242      0.0000000000      5.4292064860 
  C4           -0.4549197086      1.3497693940      4.0153359349 
  C5           -0.2669344836      0.0058806450      4.4490366009 
  C6            1.0407983309     -0.3826452052      4.8592552538 
  C7            2.0537516852      0.5613053264      4.8924840041 
  C8            1.8506734706      1.9005134066      4.5247241645 
  C9            0.5965376026      2.2939392222      4.0848657340 
  F10          -1.7240847964      1.8372913075      3.9128173605 
  H11          -1.1259178029     -0.6226753472      4.6805948296 
  H12           1.2142790067     -1.4018616494      5.1904970608 
  H13           2.6689545036      2.6135377646      4.5613194024 
  H14           0.3946228406      3.3233536154      3.8042291155 
  C15           1.4037020000      0.0000000000     -0.5287930000 
  C16          -0.7175880000      1.2185950000     -0.5000930000 
  C17          -0.6270920000     -1.2611540000     -0.5159910000 
  C18           2.7260500000     -0.4853270000      1.6271060000 
  C19           3.2037415467      0.4890420836      2.5421914869 
  C20           3.3427076298      0.2842074305      3.9252858075 
  C21           3.0029181845     -0.9436439155      4.4993369091 
  C22           2.5252920939     -1.9426734330      3.6472603508 
  C23           2.3990175195     -1.7026668968      2.2690586205 
  C24           2.6019460000     -0.2304150000      0.2176440000 
  C25           3.7878870000     -0.1958030000     -0.5613940000 
  C26           3.8431800000      0.0372740000     -1.9422500000 
  C27           2.6594980000      0.2557690000     -2.6437450000 
  C28           1.4669940000      0.2303350000     -1.9171010000 
  C29           0.2640520000      2.4117330000     -0.4822660000 
  C30          -1.4101740000      1.1825170000     -1.8807340000 
  C31          -1.8189460000      1.5454690000      0.5361260000 
  C32          -2.1080070000     -1.3722510000     -0.0979990000 
  C33           0.1221730000     -2.4158010000      0.1891870000 
  C34          -0.5185810000     -1.5249020000     -2.0327640000 
  H35           3.5106140782      1.4986757485      2.2438585944 
  H36           3.7228140409      1.0933906243      4.5725414540 
  H37           3.1073365851     -1.1176845047      5.5835144817 
  H38           2.2473488768     -2.9241184415      4.0688263639 
  H39           2.0137140197     -2.5696189083      1.7348519269 
  H40           4.7885530000     -0.3513670000     -0.1424820000 
  H41           4.8080470000      0.0488480000     -2.4782120000 
  H42           2.6670950000      0.4405860000     -3.7314160000 
  H43           0.5556520000      0.4025780000     -2.4991290000 
  H44           1.0643220000      2.3023090000     -1.2470840000 
  H45          -0.2516670000      3.3752090000     -0.6985240000 
  H46           0.7608810000      2.5175410000      0.5094590000 
  H47          -0.7084710000      1.0355330000     -2.7274080000 
  H48          -2.1957070000      0.3992420000     -1.9347810000 
  H49          -1.9262770000      2.1470210000     -2.0906830000 
  H50          -1.3958000000      1.6592640000      1.5607770000 
  H51          -2.3500650000      2.4951940000      0.2968930000 
  H52          -2.5919700000      0.7468300000      0.5862940000 
  H53          -2.2342810000     -1.2048910000      0.9961800000 
  H54          -2.7473770000     -0.6357650000     -0.6300580000 
  H55          -2.5273370000     -2.3781680000     -0.3286700000 
  H56           0.0340770000     -2.3450000000      1.2976900000 
  H57          -0.2765190000     -3.4128720000     -0.1076560000 
  H58           1.2083020000     -2.4115640000     -0.0586600000 
  H59          -0.9941950000     -0.7270730000     -2.6402850000 
  H60           0.5384110000     -1.6346130000     -2.3615300000 
  H61          -1.0269740000     -2.4759130000     -2.3116700000 
   
  principal moments of inertia:
        amu*angstrom^2:              2251.91394              4682.15789              5686.03357
                g*cm^2:          3.73939060E-37          7.77490513E-37          9.44187971E-37
   
  rotational constants:
               cm^(-1):      0.00748591      0.00360040      0.00296474
                   GHz:      0.22442199      0.10793720      0.08888076
   
  Molecular weight:     578.04 amu
   
  Stoichiometry: PdC26PH31BrF
  Molecular Point Group: C1      
  Point Group used: C1
  
 
Number of optimization coordinates:   235
Number of independent coordinates:    235
Number of non-redundant coordinates:  177
Number of frozen coordinates:           0
Number of harmonic constraints:         0
 
Number of geometric degrees of freedom:   177
Maximum geometric degrees of freedom:     177
 " " " " " excluding dummy atoms:         177
 
 
  bond lengths (angstroms):
 
 P1      -Pd2     :   2.330414      P1      -C15     :   1.500000
 P1      -C16     :   1.500000      P1      -C17     :   1.500000
 Pd2     -C4      :   2.206308      Pd2     -C5      :   2.135381
 Br3     -C7      :   1.960878      Br3     -C20     :   1.613772
 Br3     -C21     :   1.574783      Br3     -H36     :   1.395228
 Br3     -H37     :   1.353128      C4      -C5      :   1.424595
 C4      -C9      :   1.414869      C4      -F10     :   1.363440
 C5      -C6      :   1.424569      C5      -H11     :   1.089291
 C6      -C7      :   1.384999      C6      -H12     :   1.085642
 C7      -C8      :   1.403555      C7      -C20     :   1.635134
 C8      -C9      :   1.386043      C8      -H13     :   1.085968
 C9      -H14     :   1.085919      C15     -C24     :   1.430401
 C15     -C28     :   1.408708      C16     -C29     :   1.545158
 C16     -C30     :   1.545039      C16     -C31     :   1.547122
 C17     -C32     :   1.542780      C17     -C33     :   1.546572
 C17     -C34     :   1.543353      C18     -C19     :   1.419495
 C18     -C23     :   1.414556      C18     -C24     :   1.437694
 C19     -C20     :   1.405069      C19     -H35     :   1.096601
 C20     -C21     :   1.397358      C20     -H36     :   1.103720
 C21     -C22     :   1.397219      C21     -H37     :   1.103011
 C22     -C23     :   1.404631      C22     -H38     :   1.103723
 C23     -H39     :   1.088780      C24     -C25     :   1.419350
 C25     -C26     :   1.401480      C25     -H40     :   1.095911
 C26     -C27     :   1.393176      C26     -H41     :   1.103792
 C27     -C28     :   1.396683      C27     -H42     :   1.103287
 C28     -H43     :   1.094974      C29     -H44     :   1.112363
 C29     -H45     :   1.114011      C29     -H46     :   1.114250
 C30     -H47     :   1.109436      C30     -H48     :   1.110632
 C30     -H49     :   1.113871      C31     -H50     :   1.114411
 C31     -H51     :   1.114135      C31     -H52     :   1.112613
 C32     -H53     :   1.114084      C32     -H54     :   1.110987
 C32     -H55     :   1.113964      C33     -H56     :   1.114250
 C33     -H57     :   1.114101      C33     -H58     :   1.114057
 C34     -H59     :   1.109875      C34     -H60     :   1.112365
 C34     -H61     :   1.113855
 
  bond angles:
 
 C15     -P1      -Pd2     : 110.642051  C16     -P1      -Pd2     : 109.474992
 C16     -P1      -C15     : 109.277784  C17     -P1      -Pd2     : 110.120396
 C17     -P1      -C15     : 105.661559  C17     -P1      -C16     : 111.614203
 C4      -Pd2     -P1      : 139.790083  C5      -Pd2     -P1      : 172.817172
 C5      -Pd2     -C4      :  38.265372  C20     -Br3     -C7      :  53.374746
 C21     -Br3     -C7      :  60.888706  C21     -Br3     -C20     :  51.965957
 H36     -Br3     -C7      :  61.385959  H36     -Br3     -C20     :  42.261310
 H36     -Br3     -C21     :  93.215885  H37     -Br3     -C7      :  76.159791
 H37     -Br3     -C20     :  94.402028  H37     -Br3     -C21     :  43.443594
 H37     -Br3     -H36     : 131.706244  C5      -C4      -Pd2     :  68.171301
 C9      -C4      -Pd2     : 107.010697  C9      -C4      -C5      : 121.097117
 F10     -C4      -Pd2     : 110.687033  F10     -C4      -C5      : 118.883777
 F10     -C4      -C9      : 117.183816  C4      -C5      -Pd2     :  73.563328
 C6      -C5      -Pd2     :  99.799198  C6      -C5      -C4      : 117.780247
 H11     -C5      -Pd2     : 107.932450  H11     -C5      -C4      : 120.331435
 H11     -C5      -C6      : 120.351769  C7      -C6      -C5      : 119.499655
 H12     -C6      -C5      : 119.379668  H12     -C6      -C7      : 121.041683
 C6      -C7      -Br3     : 118.884051  C8      -C7      -Br3     : 118.535581
 C8      -C7      -C6      : 122.561140  C20     -C7      -Br3     :  52.379341
 C20     -C7      -C6      : 116.541315  C20     -C7      -C8      :  96.936211
 C9      -C8      -C7      : 119.006271  H13     -C8      -C7      : 120.572301
 H13     -C8      -C9      : 120.405679  C8      -C9      -C4      : 119.907542
 H14     -C9      -C4      : 118.797547  H14     -C9      -C8      : 121.287651
 C24     -C15     -P1      : 126.866735  C28     -C15     -P1      : 112.921406
 C28     -C15     -C24     : 120.197482  C29     -C16     -P1      : 108.635479
 C30     -C16     -P1      : 119.564083  C30     -C16     -C29     : 108.247562
 C31     -C16     -P1      : 106.792043  C31     -C16     -C29     : 106.342742
 C31     -C16     -C30     : 106.518855  C32     -C17     -P1      : 111.631893
 C33     -C17     -P1      : 105.564318  C33     -C17     -C32     : 106.722903
 C34     -C17     -P1      : 116.895060  C34     -C17     -C32     : 108.750722
 C34     -C17     -C33     : 106.646205  C23     -C18     -C19     : 112.083859
 C24     -C18     -C19     : 122.638665  C24     -C18     -C23     : 125.277476
 C20     -C19     -C18     : 124.596171  H35     -C19     -C18     : 123.420160
 H35     -C19     -C20     : 111.983632  C7      -C20     -Br3     :  74.245913
 C19     -C20     -Br3     : 167.002865  C19     -C20     -C7      : 118.658612
 C21     -C20     -Br3     :  62.579796  C21     -C20     -C7      :  73.394779
 C21     -C20     -C19     : 120.559660  H36     -C20     -Br3     :  58.226142
 H36     -C20     -C7      :  78.483746  H36     -C20     -C19     : 120.294259
 H36     -C20     -C21     : 119.146078  C20     -C21     -Br3     :  65.454247
 C22     -C21     -Br3     : 166.743082  C22     -C21     -C20     : 117.443483
 H37     -C21     -Br3     :  57.518845  H37     -C21     -C20     : 121.293605
 H37     -C21     -C22     : 121.262909  C23     -C22     -C21     : 120.458961
 H38     -C22     -C21     : 119.271939  H38     -C22     -C23     : 120.269097
 C22     -C23     -C18     : 124.857824  H39     -C23     -C18     : 122.983415
 H39     -C23     -C22     : 112.158723  C18     -C24     -C15     : 127.767778
 C25     -C24     -C15     : 114.179167  C25     -C24     -C18     : 118.053050
 C26     -C25     -C24     : 125.296897  H40     -C25     -C24     : 123.344249
 H40     -C25     -C26     : 111.358848  C27     -C26     -C25     : 119.253491
 H41     -C26     -C25     : 120.974078  H41     -C26     -C27     : 119.772406
 C28     -C27     -C26     : 117.425968  H42     -C27     -C26     : 121.118955
 H42     -C27     -C28     : 121.455055  C27     -C28     -C15     : 123.646561
 H43     -C28     -C15     : 120.808706  H43     -C28     -C27     : 115.544693
 H44     -C29     -C16     : 111.910845  H45     -C29     -C16     : 111.807544
 H45     -C29     -H44     : 106.538408  H46     -C29     -C16     : 111.522463
 H46     -C29     -H44     : 107.488352  H46     -C29     -H45     : 107.281718
 H47     -C30     -C16     : 113.673662  H48     -C30     -C16     : 112.148234
 H48     -C30     -H47     : 108.467982  H49     -C30     -C16     : 110.849242
 H49     -C30     -H47     : 105.303521  H49     -C30     -H48     : 105.890065
 H50     -C31     -C16     : 111.536748  H51     -C31     -C16     : 112.063982
 H51     -C31     -H50     : 106.941488  H52     -C31     -C16     : 111.909518
 H52     -C31     -H50     : 107.196505  H52     -C31     -H51     : 106.879073
 H53     -C32     -C17     : 111.350636  H54     -C32     -C17     : 112.020047
 H54     -C32     -H53     : 107.790504  H55     -C32     -C17     : 111.731603
 H55     -C32     -H53     : 107.239005  H55     -C32     -H54     : 106.428016
 H56     -C33     -C17     : 111.584181  H57     -C33     -C17     : 111.919355
 H57     -C33     -H56     : 107.076047  H58     -C33     -C17     : 111.595099
 H58     -C33     -H56     : 107.347393  H58     -C33     -H57     : 107.038637
 H59     -C34     -C17     : 112.642254  H60     -C34     -C17     : 111.970515
 H60     -C34     -H59     : 108.440249  H61     -C34     -C17     : 111.094202
 H61     -C34     -H59     : 106.325725  H61     -C34     -H60     : 105.991230
 C20     -H36     -Br3     :  79.512548  C21     -H37     -Br3     :  79.037562
 
  torsional angles:
 
 P1      -Pd2     -C4      -C5      : 169.055599
 P1      -Pd2     -C4      -C9      : -73.602749
 P1      -Pd2     -C4      -F10     :  55.167448
 P1      -Pd2     -C5      -C4      : -78.600628
 P1      -Pd2     -C5      -C6      : 165.156178
 P1      -Pd2     -C5      -H11     :  38.653112
 P1      -C15     -C24     -C18     :  -1.244791
 P1      -C15     -C24     -C25     : 178.729711
 P1      -C15     -C28     -C27     :-178.962339
 P1      -C15     -C28     -H43     :   0.961507
 P1      -C16     -C29     -H44     :  69.066294
 P1      -C16     -C29     -H45     :-171.500578
 P1      -C16     -C29     -H46     : -51.385074
 P1      -C16     -C30     -H47     : -63.625205
 P1      -C16     -C30     -H48     :  59.871656
 P1      -C16     -C30     -H49     : 177.992778
 P1      -C16     -C31     -H50     :  54.960151
 P1      -C16     -C31     -H51     : 174.826861
 P1      -C16     -C31     -H52     : -65.126497
 P1      -C17     -C32     -H53     : -50.476119
 P1      -C17     -C32     -H54     :  70.318293
 P1      -C17     -C32     -H55     :-170.366999
 P1      -C17     -C33     -H56     :  59.004770
 P1      -C17     -C33     -H57     : 178.976975
 P1      -C17     -C33     -H58     : -61.091110
 P1      -C17     -C34     -H59     : -60.037413
 P1      -C17     -C34     -H60     :  62.500013
 P1      -C17     -C34     -H61     :-179.204233
 Pd2     -P1      -C15     -C24     :  11.615731
 Pd2     -P1      -C15     -C28     :-169.774349
 Pd2     -P1      -C16     -C29     :  82.405157
 Pd2     -P1      -C16     -C30     :-152.760667
 Pd2     -P1      -C16     -C31     : -31.921688
 Pd2     -P1      -C17     -C32     :  62.890670
 Pd2     -P1      -C17     -C33     : -52.690285
 Pd2     -P1      -C17     -C34     :-171.030664
 Pd2     -C4      -C5      -C6      :  92.587904
 Pd2     -C4      -C5      -H11     :-101.496949
 Pd2     -C4      -C9      -C8      : -71.447828
 Pd2     -C4      -C9      -H14     : 109.519591
 Pd2     -C5      -C4      -C9      : -97.263592
 Pd2     -C5      -C4      -F10     : 102.336045
 Pd2     -C5      -C6      -C7      :  79.957824
 Pd2     -C5      -C6      -H12     :-103.239758
 Br3     -C7      -C6      -C5      :-178.920910
 Br3     -C7      -C6      -H12     :   4.331201
 Br3     -C7      -C8      -C9      : 177.060737
 Br3     -C7      -C8      -H13     :  -1.501514
 Br3     -C7      -C20     -C19     :-178.321782
 Br3     -C7      -C20     -C21     :  65.469209
 Br3     -C7      -C20     -H36     : -59.941603
 Br3     -C20     -C7      -C6      :-107.262190
 Br3     -C20     -C7      -C8      : 120.917223
 Br3     -C20     -C19     -C18     : 100.369084
 Br3     -C20     -C19     -H35     : -79.562418
 Br3     -C20     -C21     -C22     :-165.597701
 Br3     -C20     -C21     -H37     :  14.421562
 Br3     -C21     -C20     -C7      : -80.533429
 Br3     -C21     -C20     -C19     : 165.568638
 Br3     -C21     -C20     -H36     : -14.414194
 Br3     -C21     -C22     -C23     : -99.365011
 Br3     -C21     -C22     -H38     :  80.655591
 Br3     -H36     -C20     -C7      :  78.478603
 Br3     -H36     -C20     -C19     :-164.917790
 Br3     -H36     -C20     -C21     :  15.065088
 Br3     -H37     -C21     -C20     : -15.578500
 Br3     -H37     -C21     -C22     : 164.441500
 C4      -Pd2     -P1      -C15     : 108.625624
 C4      -Pd2     -P1      -C16     : -11.866720
 C4      -Pd2     -P1      -C17     :-134.936127
 C4      -Pd2     -C5      -C6      :-116.243194
 C4      -Pd2     -C5      -H11     : 117.253740
 C4      -C5      -C6      -C7      :   3.464907
 C4      -C5      -C6      -H12     :-179.732674
 C4      -C9      -C8      -C7      :   0.134173
 C4      -C9      -C8      -H13     : 178.698884
 C5      -Pd2     -P1      -C15     : 178.737961
 C5      -Pd2     -P1      -C16     :  58.245617
 C5      -Pd2     -P1      -C17     : -64.823790
 C5      -Pd2     -C4      -C9      : 117.341652
 C5      -Pd2     -C4      -F10     :-113.888151
 C5      -C4      -C9      -C8      :   2.913388
 C5      -C4      -C9      -H14     :-176.119193
 C5      -C6      -C7      -C8      :  -0.540470
 C5      -C6      -C7      -C20     :-119.168475
 C6      -C5      -C4      -C9      :  -4.675688
 C6      -C5      -C4      -F10     :-165.076052
 C6      -C7      -Br3     -C20     : 102.658526
 C6      -C7      -Br3     -C21     :  40.354358
 C6      -C7      -Br3     -H36     : 152.497688
 C6      -C7      -Br3     -H37     :  -3.699262
 C6      -C7      -C8      -C9      :  -1.325091
 C6      -C7      -C8      -H13     :-179.887342
 C6      -C7      -C20     -C19     :  74.416028
 C6      -C7      -C20     -C21     : -41.792982
 C6      -C7      -C20     -H36     :-167.203793
 C7      -Br3     -C20     -C19     : 173.438767
 C7      -Br3     -C20     -C21     : -79.154886
 C7      -Br3     -C20     -H36     :  86.027849
 C7      -Br3     -C21     -C20     :  64.447206
 C7      -Br3     -C21     -C22     : 170.169526
 C7      -Br3     -C21     -H37     :-100.939916
 C7      -Br3     -H36     -C20     : -65.785328
 C7      -Br3     -H37     -C21     :  62.061164
 C7      -C6      -C5      -H11     :-162.447253
 C7      -C8      -C9      -H14     : 179.142122
 C7      -C20     -Br3     -C21     :  79.154886
 C7      -C20     -Br3     -H36     : -86.027849
 C7      -C20     -Br3     -H37     :  69.134658
 C7      -C20     -C19     -C18     : -86.830503
 C7      -C20     -C19     -H35     :  93.237995
 C7      -C20     -C21     -C22     : 113.868870
 C7      -C20     -C21     -H37     : -66.111866
 C8      -C7      -Br3     -C20     : -75.787750
 C8      -C7      -Br3     -C21     :-138.091917
 C8      -C7      -Br3     -H36     : -25.948587
 C8      -C7      -Br3     -H37     : 177.854462
 C8      -C7      -C6      -H12     :-177.288359
 C8      -C7      -C20     -C19     : -57.404559
 C8      -C7      -C20     -C21     :-173.613569
 C8      -C7      -C20     -H36     :  60.975620
 C8      -C9      -C4      -F10     : 163.633244
 C9      -C4      -C5      -H11     : 161.239459
 C9      -C8      -C7      -C20     : 126.392622
 F10     -C4      -C5      -H11     :   0.839096
 F10     -C4      -C9      -H14     : -15.399337
 H11     -C5      -C6      -H12     :  14.355165
 H12     -C6      -C7      -C20     :  64.083637
 H13     -C8      -C7      -C20     : -52.169629
 H13     -C8      -C9      -H14     :  -2.293167
 C15     -P1      -C16     -C29     : -38.914883
 C15     -P1      -C16     -C30     :  85.919293
 C15     -P1      -C16     -C31     :-153.241727
 C15     -P1      -C17     -C32     :-177.595796
 C15     -P1      -C17     -C33     :  66.823249
 C15     -P1      -C17     -C34     : -51.517131
 C15     -C24     -C18     -C19     :-105.457153
 C15     -C24     -C18     -C23     :  74.547585
 C15     -C24     -C25     -C26     :  -0.059613
 C15     -C24     -C25     -H40     : 179.909160
 C15     -C28     -C27     -C26     :   0.107798
 C15     -C28     -C27     -H42     :-179.945215
 C16     -P1      -C15     -C24     : 132.225580
 C16     -P1      -C15     -C28     : -49.164500
 C16     -P1      -C17     -C32     : -58.917219
 C16     -P1      -C17     -C33     :-174.498174
 C16     -P1      -C17     -C34     :  67.161446
 C17     -P1      -C15     -C24     :-107.553020
 C17     -P1      -C15     -C28     :  71.056900
 C17     -P1      -C16     -C29     :-155.415056
 C17     -P1      -C16     -C30     : -30.580880
 C17     -P1      -C16     -C31     :  90.258099
 C18     -C19     -C20     -C21     :  -0.011981
 C18     -C19     -C20     -H36     : 179.970654
 C18     -C23     -C22     -C21     :   0.040255
 C18     -C23     -C22     -H38     :-179.980554
 C18     -C24     -C15     -C28     :-179.763430
 C18     -C24     -C25     -C26     : 179.917547
 C18     -C24     -C25     -H40     :  -0.113679
 C19     -C18     -C23     -C22     :  -0.074732
 C19     -C18     -C23     -H39     : 179.848321
 C19     -C18     -C24     -C25     :  74.569205
 C19     -C20     -Br3     -C21     :-107.406347
 C19     -C20     -Br3     -H36     :  87.410918
 C19     -C20     -Br3     -H37     :-117.426575
 C19     -C20     -C21     -C22     :  -0.029064
 C19     -C20     -C21     -H37     : 179.990200
 C20     -Br3     -C21     -C22     : 105.722320
 C20     -Br3     -C21     -H37     :-165.387122
 C20     -Br3     -H37     -C21     :  11.496049
 C20     -C7      -Br3     -C21     : -62.304168
 C20     -C7      -Br3     -H36     :  49.839162
 C20     -C7      -Br3     -H37     :-106.357789
 C20     -C19     -C18     -C23     :   0.060605
 C20     -C19     -C18     -C24     :-179.935221
 C20     -C21     -Br3     -H36     :   9.919116
 C20     -C21     -Br3     -H37     : 165.387122
 C20     -C21     -C22     -C23     :   0.015975
 C20     -C21     -C22     -H38     :-179.963423
 C20     -H36     -Br3     -C21     : -11.639178
 C20     -H36     -Br3     -H37     : -34.123458
 C21     -Br3     -C20     -H36     : 165.182735
 C21     -C20     -Br3     -H36     :-165.182735
 C21     -C20     -Br3     -H37     : -10.020228
 C21     -C20     -C19     -H35     :-179.943483
 C21     -C22     -C23     -H39     :-179.890053
 C21     -H37     -Br3     -H36     :  33.729492
 C22     -C21     -Br3     -H36     : 115.641435
 C22     -C21     -Br3     -H37     : -88.890558
 C22     -C21     -C20     -H36     : 179.988104
 C22     -C23     -C18     -C24     : 179.920963
 C23     -C18     -C19     -H35     : 179.984505
 C23     -C18     -C24     -C25     :-105.426058
 C23     -C22     -C21     -H37     : 179.996718
 C24     -C15     -C28     -C27     :  -0.249043
 C24     -C15     -C28     -H43     : 179.674803
 C24     -C18     -C19     -H35     :  -0.011321
 C24     -C18     -C23     -H39     :  -0.155984
 C24     -C25     -C26     -C27     :  -0.073105
 C24     -C25     -C26     -H41     : 179.984555
 C25     -C24     -C15     -C28     :   0.211072
 C25     -C26     -C27     -C28     :   0.051014
 C25     -C26     -C27     -H42     :-179.896162
 C26     -C27     -C28     -H43     :-179.819709
 C27     -C26     -C25     -H40     : 179.954905
 C28     -C27     -C26     -H41     : 179.994058
 C29     -C16     -C30     -H47     :  61.394213
 C29     -C16     -C30     -H48     :-175.108926
 C29     -C16     -C30     -H49     : -56.987804
 C29     -C16     -C31     -H50     : -60.909139
 C29     -C16     -C31     -H51     :  58.957571
 C29     -C16     -C31     -H52     : 179.004213
 C30     -C16     -C29     -H44     : -62.191818
 C30     -C16     -C29     -H45     :  57.241310
 C30     -C16     -C29     -H46     : 177.356814
 C30     -C16     -C31     -H50     :-176.206687
 C30     -C16     -C31     -H51     : -56.339978
 C30     -C16     -C31     -H52     :  63.706664
 C31     -C16     -C29     -H44     :-176.313205
 C31     -C16     -C29     -H45     : -56.880076
 C31     -C16     -C29     -H46     :  63.235427
 C31     -C16     -C30     -H47     : 175.399296
 C31     -C16     -C30     -H48     : -61.103843
 C31     -C16     -C30     -H49     :  57.017279
 C32     -C17     -C33     -H56     : -59.893717
 C32     -C17     -C33     -H57     :  60.078488
 C32     -C17     -C33     -H58     :-179.989597
 C32     -C17     -C34     -H59     :  67.458488
 C32     -C17     -C34     -H60     :-170.004085
 C32     -C17     -C34     -H61     : -51.708331
 C33     -C17     -C32     -H53     :  64.392944
 C33     -C17     -C32     -H54     :-174.812645
 C33     -C17     -C32     -H55     : -55.497936
 C33     -C17     -C34     -H59     :-177.791448
 C33     -C17     -C34     -H60     : -55.254022
 C33     -C17     -C34     -H61     :  63.041732
 C34     -C17     -C32     -H53     : 179.093085
 C34     -C17     -C32     -H54     : -60.112503
 C34     -C17     -C32     -H55     :  59.202205
 C34     -C17     -C33     -H56     :-176.007825
 C34     -C17     -C33     -H57     : -56.035620
 C34     -C17     -C33     -H58     :  63.896294
 H35     -C19     -C20     -H36     :   0.039152
 H36     -Br3     -C21     -H37     :-155.468006
 H36     -C20     -Br3     -H37     : 155.162507
 H36     -C20     -C21     -H37     :   0.007368
 H37     -C21     -C22     -H38     :   0.017320
 H38     -C22     -C23     -H39     :   0.089139
 H40     -C25     -C26     -H41     :   0.012565
 H41     -C26     -C27     -H42     :   0.046882
 H42     -C27     -C28     -H43     :   0.127278
 
  nuclear repulsion energy.......          3882.186328779 hartrees
  
  Detected an organometallic with only one TM atom. 
  
  
 
  Will use High-Quality Initial guess for organometallics
       including d-d repulsion (iguess=30)
 
 Non-default options chosen:
   SCF calculation type: DFT(b3pw91-d3)              
   DFT=Becke_3_Parameter/HF+Slater+Becke88+PW91+PW-GGAIIC (B3PW91-D3)
   Geometry will be optimized in redundant internal coordinates
   Solvation energy will be computed using PBF
     -solute cavity energy will not be included
     -surface area terms will not be included
   Vibrational frequencies and related properties will be computed
      from analytic second derivatives
   IR intensities will be computed
   Thermochemical properties will be computed
   Maximum number of geometry steps: 100
   Scaling standard convergence criteria by a factor of   5.00
   Solvent: benzene                                                         
   Internal dielectric constant:    1.000
   Continuum dielectric constant:   2.283
   Solvent probe molecule radius:   2.600
  
 Non-default print settings:
     11=  2
  
 Temporary integer options set:
     21= -1  73=  2
  
  atom       vdw   vdw2    cov     mass  grid  daf  charge   basis
  P1        2.147  2.074  1.060   30.974    Y    Y      Y    ps_6-31g*
  Pd2       1.450  1.450  1.280  105.903    Y    Y      Y    lacv3p*
  Br3       2.095  2.095  1.140   78.918    Y    Y      Y    lav3p*
  C4        1.949  1.900  0.770   12.000    Y    Y      Y    ps_6-31g*
  C5        1.949  1.900  0.770   12.000    Y    Y      Y    ps_6-31g*
  C6        1.949  1.900  0.770   12.000    Y    Y      Y    ps_6-31g*
  C7        1.949  1.900  0.770   12.000    Y    Y      Y    ps_6-31g*
  C8        1.949  1.900  0.770   12.000    Y    Y      Y    ps_6-31g*
  C9        1.949  1.900  0.770   12.000    Y    Y      Y    ps_6-31g*
  F10       1.736  1.682  0.720   18.998    Y    Y      Y    ps_6-31g*
  H11       1.597  1.150  0.320    1.008    Y    Y      Y    ps_6-31g*
  H12       1.597  1.150  0.320    1.008    Y    Y      Y    ps_6-31g*
  H13       1.597  1.150  0.320    1.008    Y    Y      Y    ps_6-31g*
  H14       1.597  1.150  0.320    1.008    Y    Y      Y    ps_6-31g*
  C15       1.949  1.900  0.770   12.000    Y    Y      Y    ps_6-31g*
  C16       1.949  1.900  0.770   12.000    Y    Y      Y    ps_6-31g*
  C17       1.949  1.900  0.770   12.000    Y    Y      Y    ps_6-31g*
  C18       1.949  1.900  0.770   12.000    Y    Y      Y    ps_6-31g*
  C19       1.949  1.900  0.770   12.000    Y    Y      Y    ps_6-31g*
  C20       1.949  1.900  0.770   12.000    Y    Y      Y    ps_6-31g*
  C21       1.949  1.900  0.770   12.000    Y    Y      Y    ps_6-31g*
  C22       1.949  1.900  0.770   12.000    Y    Y      Y    ps_6-31g*
  C23       1.949  1.900  0.770   12.000    Y    Y      Y    ps_6-31g*
  C24       1.949  1.900  0.770   12.000    Y    Y      Y    ps_6-31g*
  C25       1.949  1.900  0.770   12.000    Y    Y      Y    ps_6-31g*
  C26       1.949  1.900  0.770   12.000    Y    Y      Y    ps_6-31g*
  C27       1.949  1.900  0.770   12.000    Y    Y      Y    ps_6-31g*
  C28       1.949  1.900  0.770   12.000    Y    Y      Y    ps_6-31g*
  C29       1.949  1.900  0.770   12.000    Y    Y      Y    ps_6-31g*
  C30       1.949  1.900  0.770   12.000    Y    Y      Y    ps_6-31g*
  C31       1.949  1.900  0.770   12.000    Y    Y      Y    ps_6-31g*
  C32       1.949  1.900  0.770   12.000    Y    Y      Y    ps_6-31g*
  C33       1.949  1.900  0.770   12.000    Y    Y      Y    ps_6-31g*
  C34       1.949  1.900  0.770   12.000    Y    Y      Y    ps_6-31g*
  H35       1.597  1.150  0.320    1.008    Y    Y      Y    ps_6-31g*
  H36       1.597  1.150  0.320    1.008    Y    Y      Y    ps_6-31g*
  H37       1.597  1.150  0.320    1.008    Y    Y      Y    ps_6-31g*
  H38       1.597  1.150  0.320    1.008    Y    Y      Y    ps_6-31g*
  H39       1.597  1.150  0.320    1.008    Y    Y      Y    ps_6-31g*
  H40       1.597  1.150  0.320    1.008    Y    Y      Y    ps_6-31g*
  H41       1.597  1.150  0.320    1.008    Y    Y      Y    ps_6-31g*
  H42       1.597  1.150  0.320    1.008    Y    Y      Y    ps_6-31g*
  H43       1.597  1.150  0.320    1.008    Y    Y      Y    ps_6-31g*
  H44       1.597  1.150  0.320    1.008    Y    Y      Y    ps_6-31g*
  H45       1.597  1.150  0.320    1.008    Y    Y      Y    ps_6-31g*
  H46       1.597  1.150  0.320    1.008    Y    Y      Y    ps_6-31g*
  H47       1.597  1.150  0.320    1.008    Y    Y      Y    ps_6-31g*
  H48       1.597  1.150  0.320    1.008    Y    Y      Y    ps_6-31g*
  H49       1.597  1.150  0.320    1.008    Y    Y      Y    ps_6-31g*
  H50       1.597  1.150  0.320    1.008    Y    Y      Y    ps_6-31g*
  H51       1.597  1.150  0.320    1.008    Y    Y      Y    ps_6-31g*
  H52       1.597  1.150  0.320    1.008    Y    Y      Y    ps_6-31g*
  H53       1.597  1.150  0.320    1.008    Y    Y      Y    ps_6-31g*
  H54       1.597  1.150  0.320    1.008    Y    Y      Y    ps_6-31g*
  H55       1.597  1.150  0.320    1.008    Y    Y      Y    ps_6-31g*
  H56       1.597  1.150  0.320    1.008    Y    Y      Y    ps_6-31g*
  H57       1.597  1.150  0.320    1.008    Y    Y      Y    ps_6-31g*
  H58       1.597  1.150  0.320    1.008    Y    Y      Y    ps_6-31g*
  H59       1.597  1.150  0.320    1.008    Y    Y      Y    ps_6-31g*
  H60       1.597  1.150  0.320    1.008    Y    Y      Y    ps_6-31g*
  H61       1.597  1.150  0.320    1.008    Y    Y      Y    ps_6-31g*
 
  atom      formal  2spin      esp    mulk    frag
  P1           0       0        Y    0.000       0
  Pd2          0       0        Y    0.000       0
  
  end of program pre
   
 Time(pre)  user:       1.010  user+sys:       1.010  wallclock:       1.086
  
  start of program onee
  
  smallest eigenvalue of S:    3.692E-04
  number of canonical orbitals.....          495
  end of program onee
   
 Time(onee)  user:       4.923  user+sys:       4.923  wallclock:       3.446
  
  start of program hfig
  
  initial wavefunction generated automatically from atomic wavefunctions
  Only one possible d-orb occupation 
  Skip d-d repulsion considerations 
 
  Irreducible     Total no   No of occupied orbitals 
  representation  orbitals   Shell_1  Shell_2    ...
  No Symm          495        118
  ------------------------
  Orbital occupation/shell    1.000
 
  end of program hfig
   
 Time(hfig)  user:       0.798  user+sys:       0.798  wallclock:       0.903
  
  start of program probe
  
  end of program probe
   
 Time(probe)  user:       0.374  user+sys:       0.374  wallclock:       0.340
  
  start of program grid
  
   grid     grid set  grid #  grid sym
  ------    --------  ------  --------
  coarse        0        0        1
  medium        2        1        1
  fine          0        0        1
  ultrafine     4        2        1
  charge       -1        3        1
  gradient      4        2        1
  density       0        0        1
  DFT-fine    -11        4        1
  DFT-med.    -10        5        1
  DFT-grad    -12        6        1
  DFT-der2     -8        7        1
  DFT-cphf     -9        8        1
  LMP2-enrg     4        2        1
  LMP2-grad     2        1        1
  DFT-cphf2   -15        9        1
  PBF-dens      0        0        1
  plotting      0        0        1
  Rel-grad    -17        0        1
  
  number of gridpoints: 
     atom           P1         Pd2         Br3          C4          C5          C6          C7
  grid # 1         527         362         440          80          92          94          90
  grid # 2         370         313         296         331         324         320         351
  grid # 3           6         222         216          21          21          27          35
  grid # 4        8714        8714        8714        8714        8714        8714        8714
  grid # 5        1192        1192        1192        1192        1192        1192        1192
  grid # 6        9132        9132        9132        5922        5922        5922        5922
  grid # 7       23034       32968       11582       13950       13950       13950       13950
  grid # 8         722        1150         694         748         748         748         748
  grid # 9         366        2198         358         394         394         394         394
   
  number of gridpoints: 
     atom           C8          C9         F10         H11         H12         H13         H14
  grid # 1          94          94         575         115         104         107         115
  grid # 2         320         325         553         466         426         449         462
  grid # 3          31          29         254         353         191         294         355
  grid # 4        8714        8714        8714        8714        8714        8714        8714
  grid # 5        1192        1192        1192        1192        1192        1192        1192
  grid # 6        5922        5922        5922        5922        5922        5922        5922
  grid # 7       13950       13950       23190       15206       15206       15206       15206
  grid # 8         748         748         770         786         786         786         786
  grid # 9         394         394         420         420         420         420         420
   
  number of gridpoints: 
     atom          C15         C16         C17         C18         C19         C20         C21
  grid # 1          91          87          87          96          92          83          82
  grid # 2         354         337         344         349         325         305         296
  grid # 3           6           6           6          10          18          21          20
  grid # 4        8714        8714        8714        8714        8714        8714        8714
  grid # 5        1192        1192        1192        1192        1192        1192        1192
  grid # 6        5922        5922        5922        5922        5922        5922        5922
  grid # 7       13950       13950       13950       13950       13950       13950       13950
  grid # 8         748         748         748         748         748         748         748
  grid # 9         394         394         394         394         394         394         394
   
  number of gridpoints: 
     atom          C22         C23         C24         C25         C26         C27         C28
  grid # 1          94          93          97          93          97          95          89
  grid # 2         321         324         349         326         323         318         315
  grid # 3          29          21          11          28          39          18           6
  grid # 4        8714        8714        8714        8714        8714        8714        8714
  grid # 5        1192        1192        1192        1192        1192        1192        1192
  grid # 6        5922        5922        5922        5922        5922        5922        5922
  grid # 7       13950       13950       13950       13950       13950       13950       13950
  grid # 8         748         748         748         748         748         748         748
  grid # 9         394         394         394         394         394         394         394
   
  number of gridpoints: 
     atom          C29         C30         C31         C32         C33         C34         H35
  grid # 1          78          81          79          80          81          80         113
  grid # 2         248         240         247         249         241         242         453
  grid # 3           6           6           6           6           6           6         272
  grid # 4        8714        8714        8714        8714        8714        8714        8714
  grid # 5        1192        1192        1192        1192        1192        1192        1192
  grid # 6        5922        5922        5922        5922        5922        5922        5922
  grid # 7       13950       13950       13950       13950       13950       13950       15206
  grid # 8         748         748         748         748         748         748         786
  grid # 9         394         394         394         394         394         394         420
   
  number of gridpoints: 
     atom          H36         H37         H38         H39         H40         H41         H42
  grid # 1          89          94         112         104         116         118         118
  grid # 2         415         430         457         432         460         465         467
  grid # 3         127         212         342         177         358         420         404
  grid # 4        8714        8714        8714        8714        8714        8714        8714
  grid # 5        1192        1192        1192        1192        1192        1192        1192
  grid # 6        5922        5922        5922        5922        5922        5922        5922
  grid # 7       15206       15206       15206       15206       15206       15206       15206
  grid # 8         786         786         786         786         786         786         786
  grid # 9         420         420         420         420         420         420         420
   
  number of gridpoints: 
     atom          H43         H44         H45         H46         H47         H48         H49
  grid # 1          90         102         107         104          98          98         107
  grid # 2         387         429         445         438         401         415         443
  grid # 3          48         187         282         165         150         135         274
  grid # 4        8714        8714        8714        8714        8714        8714        8714
  grid # 5        1192        1192        1192        1192        1192        1192        1192
  grid # 6        5922        5922        5922        5922        5922        5922        5922
  grid # 7       15206       15206       15206       15206       15206       15206       15206
  grid # 8         786         786         786         786         786         786         786
  grid # 9         420         420         420         420         420         420         420
   
  number of gridpoints: 
     atom          H50         H51         H52         H53         H54         H55         H56
  grid # 1          95         108          96         101          95         107          99
  grid # 2         419         447         417         432         408         445         429
  grid # 3          65         270         151         162         145         280         116
  grid # 4        8714        8714        8714        8714        8714        8714        8714
  grid # 5        1192        1192        1192        1192        1192        1192        1192
  grid # 6        5922        5922        5922        5922        5922        5922        5922
  grid # 7       15206       15206       15206       15206       15206       15206       15206
  grid # 8         786         786         786         786         786         786         786
  grid # 9         420         420         420         420         420         420         420
   
  number of gridpoints: 
     atom          H57         H58         H59         H60         H61       total
  grid # 1         108         100          96         100         109        7428
  grid # 2         447         422         403         424         447       23036
  grid # 3         272         125         124         177         275        8045
  grid # 4        8714        8714        8714        8714        8714      531554
  grid # 5        1192        1192        1192        1192        1192       72712
  grid # 6        5922        5922        5922        5922        5922      370872
  grid # 7       15206       15206       15206       15206       15206      924860
  grid # 8         786         786         786         786         786       47150
  grid # 9         420         420         420         420         420       26606
   
  end of program grid
   
 Time(grid)  user:     155.210  user+sys:     155.210  wallclock:      79.571
  
  start of program rwr
  
  end of program rwr
   
 Time(rwr)  user:      13.292  user+sys:      13.292  wallclock:      16.155
  
  start of program scf
  
 number of electrons..........        236
 number of alpha electrons....        118
 number of beta electrons.....        118
 number of orbitals, total....        495
 number of doubly-occ'd orbs..        118
 number of open shell orbs....          0
 number of occupied orbitals..        118
 number of virtual orbitals...        377
 number of hamiltonians.......          1
 number of shells.............          1
 SCF type: DFT=Becke_3_Parameter/HF+Slater+Becke88+PW91+PW-GGAIIC (B3PW91-D3)
 Energy computed using pseudospectral method.
 Convergence Criterion:
    Energy (econv):       1.00E-05
    RMS density (dconv):  5.00E-06
  
       i  u  d  i  g                   
       t  p  i  c  r                                 RMS    maximum
       e  d  i  u  i                       energy  density   DIIS  
       r  t  s  t  d       total energy    change  change    error 
  
etot    1  N  N  5  M   -1581.72365343644           4.4E-03  2.1E-01
etot    2  Y  Y  6  M   -1585.36568096543  3.6E+00  5.1E-02  1.4E-01
etot    3  Y  Y  6  M   -1562.96408880442 -2.2E+01  4.2E-02  2.4E-01
etot    4  N  Y  2  U   -1586.76635013207  2.4E+01  9.9E-03  7.7E-02
etot    5  Y  Y  6  M   -1586.83003896080  6.4E-02  3.8E-03  1.0E-01
etot    6  N  Y  2  U   -1587.87747527465  1.0E+00  3.1E-03  7.4E-02
etot    7  Y  Y  6  M   -1588.41322490987  5.4E-01  1.5E-03  3.6E-02
etot    8  N  Y  2  U   -1588.61531592907  2.0E-01  8.5E-04  6.3E-03
etot    9  Y  Y  6  M   -1588.62878225878  1.3E-02  3.8E-04  3.1E-03
etot   10  N  Y  2  U   -1588.63375944534  5.0E-03  1.5E-04  1.8E-03
etot   11  Y  Y  6  M   -1588.63455539164  8.0E-04  1.1E-04  1.1E-03
etot   12  Y  Y  6  M   -1588.63497538933  4.2E-04  1.0E-04  5.8E-04
etot   13  Y  Y  6  M   -1588.63523241445  2.6E-04  8.2E-05  2.5E-04
etot   14  Y  Y  6  M   -1588.63531675338  8.4E-05  4.3E-05  1.9E-04
etot   15  N  Y  2  U   -1588.63532813512  1.1E-05  3.3E-05  1.6E-04
etot   16  N  Y  2  U   -1588.63534581512  1.8E-05  4.6E-05  9.0E-05
etot   17  N  Y  2  U   -1588.63536082827  1.5E-05  3.2E-05  8.0E-05
etot   18  N  Y  2  U   -1588.63536838265  7.6E-06  1.7E-05  6.1E-05
etot   19  N  Y  2  U   -1588.63537105096  2.7E-06  8.4E-06  4.1E-05
etot   20  N  Y  2  U   -1588.63537139772  3.5E-07  9.1E-06  2.1E-05
etot   21  N  Y  2  U   -1588.63537185022  4.5E-07  7.6E-06  1.2E-05
etot   22  N  Y  2  U   -1588.63537202643  1.8E-07  3.1E-06  6.8E-06
etot   23  N  N  2  U   -1588.63537216602  1.4E-07  0.0E+00  0.0E+00
 
  Computing the dispersion energy correction and its gradients...
  
  
 Energy components, in hartrees:
   (A)  Nuclear repulsion............    3882.18632877857
   (E)  Total one-electron terms.....   -9952.07118553020
   (F)    Electron-nuclear...........  -11450.78633413079
   (H)    Kinetic....................    1498.71514860060
   (I)  Total two-electron terms.....    4481.24948458561
   (J)    Coulomb....................    4683.87400109106
   (K)    Exchange+Correlation.......    -202.62451650545
   (L)  Electronic energy............   -5470.82170094459  (E+I)
   (N0) D3 correction................      -0.11927195508
   (N)  Total energy.................   -1588.75464412110  (A+L+N0)
   (O)  Gas phase energy.............   -1588.75464412110
  
 SCFE: SCF energy: DFT(b3pw91-d3)     -1588.75464412110 hartrees   iterations:  23
  
 
 HOMO energy:    -0.12545
 LUMO energy:    -0.06810
 
  Orbital energies (hartrees): 
   -76.97612   -24.65796   -10.23057   -10.21465   -10.21007   -10.20669
   -10.20600   -10.19293   -10.18942   -10.18648   -10.18601   -10.18551
   -10.17910   -10.17420   -10.17380   -10.16763   -10.16690   -10.16447
   -10.16419   -10.16306   -10.16281   -10.16222   -10.16152   -10.16005
   -10.15706   -10.15424   -10.15376   -10.14777    -6.51408    -4.67045
    -4.67002    -4.66517    -3.25888    -1.99564    -1.97878    -1.97209
    -1.21572    -1.18725    -0.92032    -0.87663    -0.86746    -0.85829
    -0.84189    -0.82504    -0.79245    -0.77873    -0.75627    -0.73902
    -0.73472    -0.72695    -0.71566    -0.69963    -0.68721    -0.68603
    -0.67794    -0.66265    -0.62811    -0.61822    -0.61444    -0.60891
    -0.58547    -0.57484    -0.55085    -0.54285    -0.52433    -0.51842
    -0.50602    -0.50373    -0.49228    -0.48744    -0.48257    -0.47413
    -0.47172    -0.45775    -0.45213    -0.44616    -0.44450    -0.44043
    -0.43573    -0.43251    -0.42166    -0.41345    -0.40547    -0.40293
    -0.40210    -0.40036    -0.39297    -0.38871    -0.38379    -0.37995
    -0.37722    -0.37285    -0.37005    -0.36763    -0.36342    -0.36010
    -0.35823    -0.34640    -0.33780    -0.33680    -0.32819    -0.32608
    -0.31221    -0.30738    -0.30062    -0.28381    -0.26904    -0.25725
    -0.25511    -0.22562    -0.21183    -0.20284    -0.19355    -0.19134
    -0.16174    -0.15519    -0.14720    -0.12545    -0.06810    -0.05626
    -0.03642    -0.01917    -0.00258     0.01231     0.03989     0.04438
     0.05823     0.06440
 
  end of program scf
   
 Time(scf)  user:     586.184  user+sys:     586.184  wallclock:     311.454
  
  start of program der1a
  
  end of program der1a
   
 Time(der1a)  user:      15.714  user+sys:      15.714  wallclock:       8.342
  
  start of program rwr
  
  end of program rwr
   
 Time(rwr)  user:      13.563  user+sys:      13.563  wallclock:      17.546
  
  start of program der1b
  
   
  forces (hartrees/bohr) : total     
   
 atom  label           x              y              z
 ---- --------   -------------  -------------  -------------
    1 P1          1.081444E-02   6.579576E-03   3.185297E-01
    2 Pd2         1.298576E-02  -8.954628E-03   6.431432E-03
    3 Br3         5.459529E-01   6.536518E-02   7.656394E-01
    4 C4         -2.603742E-03  -5.147132E-05  -5.760851E-04
    5 C5          6.027599E-03   3.446138E-03   2.422374E-02
    6 C6         -8.930319E-02   3.076246E-02   2.900524E-02
    7 C7         -1.242225E-01   1.053009E-01  -1.375540E-02
    8 C8         -6.977859E-02   2.087831E-02   2.188073E-02
    9 C9          1.276327E-02   7.768497E-03   5.393827E-03
   10 F10        -3.536119E-03   2.096655E-03  -3.060799E-04
   11 H11        -5.692265E-04   4.644944E-04  -1.346131E-03
   12 H12        -2.055710E-02   8.296035E-03   4.634364E-03
   13 H13         7.017781E-03   1.847746E-03  -1.817315E-03
   14 H14        -2.177872E-03   6.262114E-04  -2.076009E-03
   15 C15         2.688403E-01  -3.643624E-03  -1.002601E-01
   16 C16        -1.478431E-01   2.583637E-01  -9.554807E-02
   17 C17        -1.261892E-01  -2.663525E-01  -9.364252E-02
   18 C18         6.451913E-03   1.306487E-02   6.786077E-02
   19 C19         2.817124E-02  -6.036573E-03  -6.426647E-02
   20 C20        -1.841850E-01   7.144573E-02  -3.706953E-01
   21 C21        -6.687113E-02  -2.747561E-01  -3.273486E-01
   22 C22         7.449833E-02  -1.537996E-02  -1.280373E-02
   23 C23        -1.286963E-02  -2.858796E-02   4.921243E-03
   24 C24         1.418489E-02   9.432381E-03  -6.483311E-02
   25 C25         1.853005E-02   1.273102E-04  -1.332905E-03
   26 C26        -4.239763E-03   1.074324E-04  -1.216045E-03
   27 C27        -8.405380E-04   1.264962E-03   3.386726E-04
   28 C28         3.582863E-02   3.329769E-03  -2.469663E-02
   29 C29         6.593969E-03   2.758130E-02  -2.502444E-03
   30 C30        -2.318905E-02   2.323630E-02  -1.654659E-02
   31 C31        -2.790701E-02   2.054878E-02   1.016065E-02
   32 C32        -2.251305E-02  -1.456343E-02   1.530346E-03
   33 C33         1.182223E-03  -3.027205E-02   2.255011E-03
   34 C34        -7.983574E-03  -2.609767E-02  -2.480204E-02
   35 H35        -1.185303E-02  -4.144936E-03  -5.188530E-03
   36 H36         1.247704E-02   1.091372E-01  -1.398102E-01
   37 H37        -1.099309E-01  -1.278443E-01   6.657722E-02
   38 H38         2.555686E-04   1.081213E-02  -2.123004E-03
   39 H39         1.961536E-03   9.572144E-03  -3.156048E-03
   40 H40        -9.851926E-03  -1.195823E-03   1.143236E-02
   41 H41        -8.091480E-03  -8.060654E-04   8.501979E-03
   42 H42        -1.436542E-03  -1.511000E-03   1.047455E-02
   43 H43         2.208012E-02  -9.768104E-04   1.250179E-02
   44 H44        -1.006698E-02   4.949807E-03   9.937686E-03
   45 H45         8.286585E-05  -1.103156E-02   3.681479E-03
   46 H46        -5.376670E-03  -3.300301E-03  -9.003340E-03
   47 H47        -1.688732E-02   9.585991E-03   7.607453E-03
   48 H48         8.221401E-03   1.493774E-02  -1.325802E-03
   49 H49         5.560518E-03  -6.909137E-03   5.629231E-03
   50 H50        -4.733502E-03  -1.080478E-03  -1.504355E-02
   51 H51         4.230308E-03  -6.551038E-03  -4.052446E-03
   52 H52         1.053078E-02   1.655305E-02   2.059743E-03
   53 H53         3.732040E-03  -2.619261E-03  -1.077466E-02
   54 H54         5.207213E-03  -1.362707E-02   6.798062E-03
   55 H55         7.426766E-03   7.666842E-03   1.601803E-04
   56 H56        -2.666766E-03   1.565086E-03  -1.324438E-02
   57 H57         1.462698E-03   9.612000E-03  -1.805499E-03
   58 H58        -1.470445E-02  -1.232585E-03  -2.526158E-04
   59 H59         8.626948E-03  -2.297544E-02   6.077878E-03
   60 H60        -1.455650E-02  -3.847817E-03   4.307521E-03
   61 H61         2.972229E-03   7.408103E-03   6.256322E-03
 -------------   -------------  -------------  -------------
     total       -2.864107E-03  -6.147169E-04  -1.343069E-03
   
  end of program der1b
   
 Time(der1b)  user:      96.058  user+sys:      96.058  wallclock:      51.045
  
  start of program geopt
  
 ----------------------------------------------------------------------------
  Geometry optimization step  1
  Total energy:     -1588.75464412110 hartrees
 ----------------------------------------------------------------------------
  
  
  Level shifts adjusted to satisfy step-size constraints
   Step size:    0.3001552
   Cos(theta):   0.9963377
   Final level shift:  -2.9672119E+00
  
  gradient maximum:        4.1263E-01 .  (  2.2500E-03 )
  gradient rms:            6.9595E-02 .  (  1.5000E-03 )
  displacement maximum:    1.1756E-01 .  (  9.0000E-03 )
  displacement rms:        1.9579E-02 .  (  6.0000E-03 )
  
  predicted energy change:  -2.9317E-01
  step size:     0.30014
  trust radius:  0.30000
  
  molecular structure not yet converged...
  
  center of mass moved by:
     x:     8.4746E-03     y:    -4.2445E-04     z:    -9.3154E-03
  
  new geometry: 
                                   angstroms
  atom               x                 y                 z
  P1           -0.0058493347     -0.0074962506     -0.0165696554 
  Pd2          -0.0174123459      0.0018635446      2.3207038271 
  Br3           3.8599643346     -0.0042476627      5.4617311001 
  C4           -0.4813209569      1.3760498708      3.9880234851 
  C5           -0.3084628054      0.0391311468      4.4395386610 
  C6            0.9881883084     -0.3562215479      4.8681941975 
  C7            2.0310400234      0.5660800986      4.8995707896 
  C8            1.8200926019      1.9082391370      4.5213463607 
  C9            0.5763201997      2.3105719256      4.0636777893 
  F10          -1.7479361688      1.8682930352      3.8694702779 
  H11          -1.1751600251     -0.5794194449      4.6691610217 
  H12           1.1363405775     -1.3720691397      5.2165039991 
  H13           2.6361291453      2.6254133186      4.5578181562 
  H14           0.3863388418      3.3387745140      3.7696483603 
  C15           1.4543694966     -0.0127353355     -0.5576995566 
  C16          -0.7466814964      1.2837856276     -0.4901373847 
  C17          -0.6631696248     -1.3356757747     -0.5063736881 
  C18           2.7570681588     -0.4929824044      1.6134061154 
  C19           3.1898135476      0.4941311425      2.5289972979 
  C20           3.3307221515      0.2849093932      3.9153873529 
  C21           3.0439592542     -0.9834149426      4.4723064315 
  C22           2.6337055209     -1.9932925423      3.6026616033 
  C23           2.4955307713     -1.7394332072      2.2306126879 
  C24           2.6491644139     -0.2354301997      0.2007752478 
  C25           3.8582853669     -0.1811759558     -0.5352383534 
  C26           3.9469426705      0.0578060683     -1.9099751329 
  C27           2.7783482826      0.2637629154     -2.6371888126 
  C28           1.5667478063      0.2230602913     -1.9445723831 
  C29           0.2334914914      2.4795741369     -0.4611995440 
  C30          -1.4842732316      1.3516495262     -1.8487446933 
  C31          -1.8367496250      1.6352713027      0.5533383305 
  C32          -2.1433725186     -1.4605834954     -0.0856376901 
  C33           0.0695007393     -2.4935701633      0.2115071561 
  C34          -0.5846363241     -1.6996767687     -2.0061336347 
  H35           3.4351272480      1.5198946225      2.2320794983 
  H36           3.6722637622      1.1027961327      4.5803852271 
  H37           3.1347863814     -1.1729018446      5.5744564238 
  H38           2.4018187005     -2.9912434574      4.0086192434 
  H39           2.1520340193     -2.6096366646      1.6757681541 
  H40           4.8408060625     -0.3320350656     -0.0755014987 
  H41           4.9250734689      0.0859838397     -2.4167857492 
  H42           2.8080740516      0.4534034226     -3.7219214789 
  H43           0.6799938741      0.4074866075     -2.5532276986 
  H44           1.0174542782      2.3939914313     -1.2424238303 
  H45          -0.2910262116      3.4439811215     -0.6404286491 
  H46           0.7488512476      2.5591755323      0.5215434724 
  H47          -0.8200904751      1.2382750917     -2.7266502638 
  H48          -2.2941739546      0.5993470742     -1.9248843660 
  H49          -1.9762225187      2.3406383014     -1.9796878920 
  H50          -1.4069745503      1.7325339607      1.5741843808 
  H51          -2.3419282054      2.5985018062      0.3169950124 
  H52          -2.6299487503      0.8610889873      0.6046870709 
  H53          -2.2713651173     -1.2661132520      1.0019773276 
  H54          -2.7957432287     -0.7534635692     -0.6362975724 
  H55          -2.5420845857     -2.4787161117     -0.2901798755 
  H56          -0.0106103097     -2.4019327661      1.3170091258 
  H57          -0.3508120368     -3.4847677739     -0.0695164282 
  H58           1.1509387777     -2.5142325846     -0.0455538768 
  H59          -1.0619958850     -0.9432149100     -2.6573027295 
  H60           0.4628821519     -1.8430234760     -2.3444090106 
  H61          -1.1063827421     -2.6607721351     -2.2096606685 
   
 
  bond lengths (angstroms):
 
 P1      -Pd2     :   2.337321      P1      -C15     :   1.557269
 P1      -C16     :   1.562212      P1      -C17     :   1.560781
 Pd2     -C4      :   2.209876      Pd2     -C5      :   2.139056
 Br3     -C7      :   1.996563      Br3     -C20     :   1.659786
 Br3     -C21     :   1.613566      Br3     -H36     :   1.427427
 Br3     -H37     :   1.379979      C4      -C5      :   1.421653
 C4      -C9      :   1.413386      C4      -F10     :   1.364065
 C5      -C6      :   1.421743      C5      -H11     :   1.089264
 C6      -C7      :   1.392539      C6      -H12     :   1.084073
 C7      -C8      :   1.410299      C7      -C20     :   1.654342
 C8      -C9      :   1.385028      C8      -H13     :   1.087007
 C9      -H14     :   1.086161      C15     -C24     :   1.432624
 C15     -C28     :   1.411256      C16     -C29     :   1.546443
 C16     -C30     :   1.547405      C16     -C31     :   1.549397
 C17     -C32     :   1.543898      C17     -C33     :   1.546893
 C17     -C34     :   1.545297      C18     -C19     :   1.414203
 C18     -C23     :   1.415269      C18     -C24     :   1.439966
 C19     -C20     :   1.409151      C19     -H35     :   1.095687
 C20     -C21     :   1.414581      C20     -H36     :   1.108067
 C21     -C22     :   1.394433      C21     -H37     :   1.122002
 C22     -C23     :   1.402161      C22     -H38     :   1.102034
 C23     -H39     :   1.087702      C24     -C25     :   1.416557
 C25     -C26     :   1.398168      C25     -H40     :   1.095200
 C26     -C27     :   1.391715      C26     -H41     :   1.101994
 C27     -C28     :   1.396191      C27     -H42     :   1.101586
 C28     -H43     :   1.091241      C29     -H44     :   1.110060
 C29     -H45     :   1.112350      C29     -H46     :   1.112527
 C30     -H47     :   1.106666      C30     -H48     :   1.108014
 C30     -H49     :   1.112321      C31     -H50     :   1.111887
 C31     -H51     :   1.113048      C31     -H52     :   1.109576
 C32     -H53     :   1.112253      C32     -H54     :   1.108527
 C32     -H55     :   1.112386      C33     -H56     :   1.112182
 C33     -H57     :   1.112704      C33     -H58     :   1.111762
 C34     -H59     :   1.106403      C34     -H60     :   1.110078
 C34     -H61     :   1.112361
 
  bond angles:
 
 C15     -P1      -Pd2     : 110.617750  C16     -P1      -Pd2     : 107.306127
 C16     -P1      -C15     : 110.005486  C17     -P1      -Pd2     : 108.369122
 C17     -P1      -C15     : 106.438788  C17     -P1      -C16     : 114.113231
 C4      -Pd2     -P1      : 139.288097  C5      -Pd2     -P1      : 172.423434
 C5      -Pd2     -C4      :  38.117132  C20     -Br3     -C7      :  52.830578
 C21     -Br3     -C7      :  62.447491  C21     -Br3     -C20     :  51.184393
 H36     -Br3     -C7      :  58.946177  H36     -Br3     -C20     :  41.211979
 H36     -Br3     -C21     :  91.462651  H37     -Br3     -C7      :  77.498460
 H37     -Br3     -C20     :  93.214644  H37     -Br3     -C21     :  43.149659
 H37     -Br3     -H36     : 129.651915  C5      -C4      -Pd2     :  68.242664
 C9      -C4      -Pd2     : 107.124769  C9      -C4      -C5      : 120.917207
 F10     -C4      -Pd2     : 110.717105  F10     -C4      -C5      : 118.676431
 F10     -C4      -C9      : 117.444840  C4      -C5      -Pd2     :  73.640204
 C6      -C5      -Pd2     :  99.771064  C6      -C5      -C4      : 117.914241
 H11     -C5      -Pd2     : 107.889481  H11     -C5      -C4      : 120.279662
 H11     -C5      -C6      : 120.278196  C7      -C6      -C5      : 120.372089
 H12     -C6      -C5      : 118.821657  H12     -C6      -C7      : 120.733789
 C6      -C7      -Br3     : 120.209048  C8      -C7      -Br3     : 118.972024
 C8      -C7      -C6      : 120.814339  C20     -C7      -Br3     :  53.079946
 C20     -C7      -C6      : 117.539948  C20     -C7      -C8      :  96.875384
 C9      -C8      -C7      : 119.959869  H13     -C8      -C7      : 120.437883
 H13     -C8      -C9      : 119.576638  C8      -C9      -C4      : 119.841661
 H14     -C9      -C4      : 118.720375  H14     -C9      -C8      : 121.433613
 C24     -C15     -P1      : 126.767441  C28     -C15     -P1      : 114.556336
 C28     -C15     -C24     : 118.675244  C29     -C16     -P1      : 109.445097
 C30     -C16     -P1      : 121.900622  C30     -C16     -C29     : 106.537228
 C31     -C16     -P1      : 108.480934  C31     -C16     -C29     : 104.945845
 C31     -C16     -C30     : 104.240922  C32     -C17     -P1      : 112.774148
 C33     -C17     -P1      : 106.969738  C33     -C17     -C32     : 105.490085
 C34     -C17     -P1      : 118.921997  C34     -C17     -C32     : 107.106675
 C34     -C17     -C33     : 104.478323  C23     -C18     -C19     : 112.888695
 C24     -C18     -C19     : 122.223368  C24     -C18     -C23     : 124.855176
 C20     -C19     -C18     : 124.328185  H35     -C19     -C18     : 123.128714
 H35     -C19     -C20     : 112.533359  C7      -C20     -Br3     :  74.089476
 C19     -C20     -Br3     : 166.996245  C19     -C20     -C7      : 118.783903
 C21     -C20     -Br3     :  62.719147  C21     -C20     -C7      :  76.049203
 C21     -C20     -C19     : 120.012677  H36     -C20     -Br3     :  58.074423
 H36     -C20     -C7      :  76.094106  H36     -C20     -C19     : 120.775748
 H36     -C20     -C21     : 119.210122  C20     -C21     -Br3     :  66.096460
 C22     -C21     -Br3     : 166.093166  C22     -C21     -C20     : 117.610068
 H37     -C21     -Br3     :  57.262155  H37     -C21     -C20     : 121.449335
 H37     -C21     -C22     : 120.939189  C23     -C22     -C21     : 120.539676
 H38     -C22     -C21     : 119.208615  H38     -C22     -C23     : 120.243382
 C22     -C23     -C18     : 124.609622  H39     -C23     -C18     : 122.718056
 H39     -C23     -C22     : 112.670228  C18     -C24     -C15     : 127.566230
 C25     -C24     -C15     : 115.520186  C25     -C24     -C18     : 116.910920
 C26     -C25     -C24     : 124.857861  H40     -C25     -C24     : 122.844641
 H40     -C25     -C26     : 112.296395  C27     -C26     -C25     : 119.066527
 H41     -C26     -C25     : 120.853780  H41     -C26     -C27     : 120.079592
 C28     -C27     -C26     : 117.719040  H42     -C27     -C26     : 121.154951
 H42     -C27     -C28     : 121.125983  C27     -C28     -C15     : 124.158032
 H43     -C28     -C15     : 120.774268  H43     -C28     -C27     : 115.059225
 H44     -C29     -C16     : 112.014648  H45     -C29     -C16     : 111.624341
 H45     -C29     -H44     : 106.646479  H46     -C29     -C16     : 111.436162
 H46     -C29     -H44     : 107.459590  H46     -C29     -H45     : 107.381300
 H47     -C30     -C16     : 113.949418  H48     -C30     -C16     : 112.270050
 H48     -C30     -H47     : 108.337829  H49     -C30     -C16     : 110.681136
 H49     -C30     -H47     : 105.256333  H49     -C30     -H48     : 105.802027
 H50     -C31     -C16     : 111.483504  H51     -C31     -C16     : 111.877967
 H51     -C31     -H50     : 107.138622  H52     -C31     -C16     : 112.075290
 H52     -C31     -H50     : 107.149204  H52     -C31     -H51     : 106.809061
 H53     -C32     -C17     : 111.263688  H54     -C32     -C17     : 112.163019
 H54     -C32     -H53     : 107.847963  H55     -C32     -C17     : 111.566564
 H55     -C32     -H53     : 107.372716  H55     -C32     -H54     : 106.353628
 H56     -C33     -C17     : 111.438395  H57     -C33     -C17     : 111.756953
 H57     -C33     -H56     : 107.291319  H58     -C33     -C17     : 111.550954
 H58     -C33     -H56     : 107.543373  H58     -C33     -H57     : 107.006755
 H59     -C34     -C17     : 112.844064  H60     -C34     -C17     : 111.970277
 H60     -C34     -H59     : 108.425891  H61     -C34     -C17     : 110.932107
 H61     -C34     -H59     : 106.300912  H61     -C34     -H60     : 105.978853
 C20     -H36     -Br3     :  80.713598  C21     -H37     -Br3     :  79.588185
 
  torsional angles:
 
 P1      -Pd2     -C4      -C5      : 168.772673
 P1      -Pd2     -C4      -C9      : -74.104366
 P1      -Pd2     -C4      -F10     :  55.104395
 P1      -Pd2     -C5      -C4      : -74.402806
 P1      -Pd2     -C5      -C6      : 169.203746
 P1      -Pd2     -C5      -H11     :  42.819233
 P1      -C15     -C24     -C18     :  -0.342297
 P1      -C15     -C24     -C25     :-179.725483
 P1      -C15     -C28     -C27     : 179.889168
 P1      -C15     -C28     -H43     :   1.001498
 P1      -C16     -C29     -H44     :  69.224749
 P1      -C16     -C29     -H45     :-171.259000
 P1      -C16     -C29     -H46     : -51.201400
 P1      -C16     -C30     -H47     : -63.736341
 P1      -C16     -C30     -H48     :  59.898916
 P1      -C16     -C30     -H49     : 177.876287
 P1      -C16     -C31     -H50     :  55.063136
 P1      -C16     -C31     -H51     : 175.017268
 P1      -C16     -C31     -H52     : -65.040262
 P1      -C17     -C32     -H53     : -50.412133
 P1      -C17     -C32     -H54     :  70.494343
 P1      -C17     -C32     -H55     :-170.301857
 P1      -C17     -C33     -H56     :  59.010343
 P1      -C17     -C33     -H57     : 179.045414
 P1      -C17     -C33     -H58     : -61.205153
 P1      -C17     -C34     -H59     : -60.011772
 P1      -C17     -C34     -H60     :  62.657322
 P1      -C17     -C34     -H61     :-179.170339
 Pd2     -P1      -C15     -C24     :  11.214948
 Pd2     -P1      -C15     -C28     :-169.152538
 Pd2     -P1      -C16     -C29     :  82.487481
 Pd2     -P1      -C16     -C30     :-152.391121
 Pd2     -P1      -C16     -C31     : -31.489746
 Pd2     -P1      -C17     -C32     :  62.878588
 Pd2     -P1      -C17     -C33     : -52.649415
 Pd2     -P1      -C17     -C34     :-170.505258
 Pd2     -C4      -C5      -C6      :  92.558532
 Pd2     -C4      -C5      -H11     :-101.497216
 Pd2     -C4      -C9      -C8      : -71.256996
 Pd2     -C4      -C9      -H14     : 109.490883
 Pd2     -C5      -C4      -C9      : -97.499838
 Pd2     -C5      -C4      -F10     : 102.465140
 Pd2     -C5      -C6      -C7      :  79.575195
 Pd2     -C5      -C6      -H12     :-103.497488
 Br3     -C7      -C6      -C5      :-178.572252
 Br3     -C7      -C6      -H12     :   4.559736
 Br3     -C7      -C8      -C9      : 176.748840
 Br3     -C7      -C8      -H13     :  -1.402733
 Br3     -C7      -C20     -C19     :-178.007718
 Br3     -C7      -C20     -C21     :  65.147456
 Br3     -C7      -C20     -H36     : -60.270222
 Br3     -C20     -C7      -C6      :-108.540921
 Br3     -C20     -C7      -C8      : 121.309887
 Br3     -C20     -C19     -C18     :  99.189558
 Br3     -C20     -C19     -H35     : -81.917527
 Br3     -C20     -C21     -C22     :-165.105206
 Br3     -C20     -C21     -H37     :  15.322756
 Br3     -C21     -C20     -C7      : -79.064336
 Br3     -C21     -C20     -C19     : 165.501582
 Br3     -C21     -C20     -H36     : -14.063349
 Br3     -C21     -C22     -C23     :-103.052797
 Br3     -C21     -C22     -H38     :  77.994393
 Br3     -H36     -C20     -C7      :  79.718505
 Br3     -H36     -C20     -C19     :-164.820132
 Br3     -H36     -C20     -C21     :  14.741387
 Br3     -H37     -C21     -C20     : -16.691197
 Br3     -H37     -C21     -C22     : 163.750940
 C4      -Pd2     -P1      -C15     : 108.547964
 C4      -Pd2     -P1      -C16     : -11.457339
 C4      -Pd2     -P1      -C17     :-135.123374
 C4      -Pd2     -C5      -C6      :-116.393448
 C4      -Pd2     -C5      -H11     : 117.222039
 C4      -C5      -C6      -C7      :   3.002557
 C4      -C5      -C6      -H12     : 179.929874
 C4      -C9      -C8      -C7      :   0.537292
 C4      -C9      -C8      -H13     : 178.704848
 C5      -Pd2     -P1      -C15     : 174.263431
 C5      -Pd2     -P1      -C16     :  54.258128
 C5      -Pd2     -P1      -C17     : -69.407906
 C5      -Pd2     -C4      -C9      : 117.122961
 C5      -Pd2     -C4      -F10     :-113.668278
 C5      -C4      -C9      -C8      :   3.222394
 C5      -C4      -C9      -H14     :-176.029727
 C5      -C6      -C7      -C8      :   0.640507
 C5      -C6      -C7      -C20     :-117.278666
 C6      -C5      -C4      -C9      :  -4.941306
 C6      -C5      -C4      -F10     :-164.976328
 C6      -C7      -Br3     -C20     : 103.400488
 C6      -C7      -Br3     -C21     :  42.850326
 C6      -C7      -Br3     -H36     : 153.200869
 C6      -C7      -Br3     -H37     :  -0.497394
 C6      -C7      -C8      -C9      :  -2.473512
 C6      -C7      -C8      -H13     : 179.374915
 C6      -C7      -C20     -C19     :  73.451361
 C6      -C7      -C20     -C21     : -43.393465
 C6      -C7      -C20     -H36     :-168.811143
 C7      -Br3     -C20     -C19     : 172.217638
 C7      -Br3     -C20     -C21     : -82.237988
 C7      -Br3     -C20     -H36     :  83.290744
 C7      -Br3     -C21     -C20     :  62.942596
 C7      -Br3     -C21     -C22     : 171.555313
 C7      -Br3     -C21     -H37     :-101.511536
 C7      -Br3     -H36     -C20     : -67.486630
 C7      -Br3     -H37     -C21     :  62.854578
 C7      -C6      -C5      -H11     :-162.941909
 C7      -C8      -C9      -H14     : 179.768612
 C7      -C20     -Br3     -C21     :  82.237988
 C7      -C20     -Br3     -H36     : -83.290744
 C7      -C20     -Br3     -H37     :  71.659492
 C7      -C20     -C19     -C18     : -89.355178
 C7      -C20     -C19     -H35     :  89.537737
 C7      -C20     -C21     -C22     : 115.830458
 C7      -C20     -C21     -H37     : -63.741580
 C8      -C7      -Br3     -C20     : -75.826691
 C8      -C7      -Br3     -C21     :-136.376853
 C8      -C7      -Br3     -H36     : -26.026310
 C8      -C7      -Br3     -H37     :-179.724574
 C8      -C7      -C6      -H12     :-176.227505
 C8      -C7      -C20     -C19     : -56.697830
 C8      -C7      -C20     -C21     :-173.542656
 C8      -C7      -C20     -H36     :  61.039666
 C8      -C9      -C4      -F10     : 163.494388
 C9      -C4      -C5      -H11     : 161.002945
 C9      -C8      -C7      -C20     : 125.419308
 F10     -C4      -C5      -H11     :   0.967924
 F10     -C4      -C9      -H14     : -15.757732
 H11     -C5      -C6      -H12     :  13.985408
 H12     -C6      -C7      -C20     :  65.853321
 H13     -C8      -C7      -C20     : -52.732264
 H13     -C8      -C9      -H14     :  -2.063833
 C15     -P1      -C16     -C29     : -37.907204
 C15     -P1      -C16     -C30     :  87.214194
 C15     -P1      -C16     -C31     :-151.884431
 C15     -P1      -C17     -C32     :-178.120404
 C15     -P1      -C17     -C33     :  66.351593
 C15     -P1      -C17     -C34     : -51.504250
 C15     -C24     -C18     -C19     :-104.189384
 C15     -C24     -C18     -C23     :  78.042692
 C15     -C24     -C25     -C26     :  -0.520150
 C15     -C24     -C25     -H40     : 179.891591
 C15     -C28     -C27     -C26     :   0.020848
 C15     -C28     -C27     -H42     :-179.920252
 C16     -P1      -C15     -C24     : 129.588667
 C16     -P1      -C15     -C28     : -50.778819
 C16     -P1      -C17     -C32     : -56.596382
 C16     -P1      -C17     -C33     :-172.124385
 C16     -P1      -C17     -C34     :  70.019772
 C17     -P1      -C15     -C24     :-106.305197
 C17     -P1      -C15     -C28     :  73.327317
 C17     -P1      -C16     -C29     :-157.439635
 C17     -P1      -C16     -C30     : -32.318237
 C17     -P1      -C16     -C31     :  88.583137
 C18     -C19     -C20     -C21     :   0.626509
 C18     -C19     -C20     -H36     :-179.815477
 C18     -C23     -C22     -C21     :   0.546083
 C18     -C23     -C22     -H38     : 179.488036
 C18     -C24     -C15     -C28     :-179.961323
 C18     -C24     -C25     -C26     :-179.971862
 C18     -C24     -C25     -H40     :   0.439879
 C19     -C18     -C23     -C22     :   0.414450
 C19     -C18     -C23     -H39     : 179.849082
 C19     -C18     -C24     -C25     :  75.186386
 C19     -C20     -Br3     -C21     :-105.544374
 C19     -C20     -Br3     -H36     :  88.926894
 C19     -C20     -Br3     -H37     :-116.122870
 C19     -C20     -C21     -C22     :   0.396376
 C19     -C20     -C21     -H37     :-179.175662
 C20     -Br3     -C21     -C22     : 108.612717
 C20     -Br3     -C21     -H37     :-164.454132
 C20     -Br3     -H37     -C21     :  12.072751
 C20     -C7      -Br3     -C21     : -60.550162
 C20     -C7      -Br3     -H36     :  49.800381
 C20     -C7      -Br3     -H37     :-103.897882
 C20     -C19     -C18     -C23     :  -0.994731
 C20     -C19     -C18     -C24     :-179.006650
 C20     -C21     -Br3     -H36     :   9.479565
 C20     -C21     -Br3     -H37     : 164.454132
 C20     -C21     -C22     -C23     :  -0.945753
 C20     -C21     -C22     -H38     :-179.898563
 C20     -H36     -Br3     -C21     : -11.231466
 C20     -H36     -Br3     -H37     : -33.302399
 C21     -Br3     -C20     -H36     : 165.528732
 C21     -C20     -Br3     -H36     :-165.528732
 C21     -C20     -Br3     -H37     : -10.578496
 C21     -C20     -C19     -H35     : 179.519424
 C21     -C22     -C23     -H39     :-178.938424
 C21     -H37     -Br3     -H36     :  33.315192
 C22     -C21     -Br3     -H36     : 118.092282
 C22     -C21     -Br3     -H37     : -86.933151
 C22     -C21     -C20     -H36     :-179.168555
 C22     -C23     -C18     -C24     : 178.364863
 C23     -C18     -C19     -H35     :-179.773660
 C23     -C18     -C24     -C25     :-102.581539
 C23     -C22     -C21     -H37     : 178.628586
 C24     -C15     -C28     -C27     :  -0.446367
 C24     -C15     -C28     -H43     :-179.334036
 C24     -C18     -C19     -H35     :   2.214421
 C24     -C18     -C23     -H39     :  -2.200505
 C24     -C25     -C26     -C27     :   0.112498
 C24     -C25     -C26     -H41     : 179.996909
 C25     -C24     -C15     -C28     :   0.655490
 C25     -C26     -C27     -C28     :   0.152080
 C25     -C26     -C27     -H42     :-179.906837
 C26     -C27     -C28     -H43     : 178.965844
 C27     -C26     -C25     -H40     : 179.738624
 C28     -C27     -C26     -H41     :-179.733246
 C29     -C16     -C30     -H47     :  62.695746
 C29     -C16     -C30     -H48     :-173.668997
 C29     -C16     -C30     -H49     : -55.691626
 C29     -C16     -C31     -H50     : -61.841845
 C29     -C16     -C31     -H51     :  58.112288
 C29     -C16     -C31     -H52     : 178.054758
 C30     -C16     -C29     -H44     : -64.359440
 C30     -C16     -C29     -H45     :  55.156811
 C30     -C16     -C29     -H46     : 175.214411
 C30     -C16     -C31     -H50     :-173.661923
 C30     -C16     -C31     -H51     : -53.707791
 C30     -C16     -C31     -H52     :  66.234679
 C31     -C16     -C29     -H44     :-174.532609
 C31     -C16     -C29     -H45     : -55.016359
 C31     -C16     -C29     -H46     :  65.041242
 C31     -C16     -C30     -H47     : 173.361902
 C31     -C16     -C30     -H48     : -63.002840
 C31     -C16     -C30     -H49     :  54.974531
 C32     -C17     -C33     -H56     : -61.290885
 C32     -C17     -C33     -H57     :  58.744186
 C32     -C17     -C33     -H58     : 178.493619
 C32     -C17     -C34     -H59     :  69.243858
 C32     -C17     -C34     -H60     :-168.087047
 C32     -C17     -C34     -H61     : -49.914708
 C33     -C17     -C32     -H53     :  66.000170
 C33     -C17     -C32     -H54     :-173.093353
 C33     -C17     -C32     -H55     : -53.889553
 C33     -C17     -C34     -H59     :-179.159546
 C33     -C17     -C34     -H60     : -56.490452
[...]
    H41      Z    -0.00054   0.07067   0.33818  -0.00085  -0.00422  -0.00007
    H42      X     0.00000   0.00064   0.00307  -0.00000  -0.00004   0.00000
    H42      Y     0.00007  -0.00297  -0.01279   0.00002   0.00011   0.00001
    H42      Z    -0.00218   0.08137   0.34198  -0.00082  -0.00310  -0.00009
    H43      X     0.00048  -0.01859  -0.09320   0.00037   0.00293  -0.00043
    H43      Y    -0.00018   0.00702   0.03492  -0.00014  -0.00113   0.00017
    H43      Z     0.00032  -0.01239  -0.06106   0.00026   0.00185  -0.00027
    H44      X     0.00005  -0.00192   0.00097   0.00039   0.00368   0.00032
    H44      Y    -0.00003   0.00090  -0.00020  -0.00013  -0.00168  -0.00012
    H44      Z    -0.00005   0.00174  -0.00078  -0.00036  -0.00315  -0.00037
    H45      X    -0.00002   0.00028   0.00019   0.00001  -0.00073   0.00007
    H45      Y     0.00010  -0.00120  -0.00051  -0.00007   0.00280  -0.00033
    H45      Z    -0.00003   0.00005   0.00013   0.00002  -0.00022   0.00009
    H46      X     0.00012   0.00456  -0.00109  -0.00021  -0.00981   0.00011
    H46      Y    -0.00003  -0.00046   0.00012   0.00001   0.00094   0.00002
    H46      Z     0.00021   0.00800  -0.00207  -0.00029  -0.01762   0.00028
    H47      X    -0.00001   0.00137   0.00605   0.00039  -0.00035   0.00033
    H47      Y     0.00001  -0.00068  -0.00317  -0.00020   0.00013  -0.00016
    H47      Z     0.00002  -0.00165  -0.00743  -0.00060   0.00041  -0.00051
    H48      X    -0.00007   0.00022   0.00276   0.00014  -0.00003  -0.00003
    H48      Y    -0.00006   0.00020   0.00194   0.00010  -0.00006  -0.00000
    H48      Z    -0.00001  -0.00001   0.00022   0.00003   0.00005   0.00001
    H49      X    -0.00002   0.00014   0.00030   0.00002  -0.00016   0.00007
    H49      Y     0.00005  -0.00053  -0.00153  -0.00004   0.00053  -0.00019
    H49      Z    -0.00004   0.00011   0.00029   0.00004  -0.00013   0.00009
    H50      X    -0.00040   0.00002  -0.00013  -0.00368  -0.00019  -0.00231
    H50      Y     0.00000   0.00001   0.00004  -0.00014   0.00001   0.00006
    H50      Z    -0.00104   0.00009  -0.00024  -0.00704  -0.00070  -0.00451
    H51      X    -0.00007   0.00007   0.00015  -0.00054  -0.00010  -0.00020
    H51      Y     0.00033  -0.00020  -0.00045   0.00260   0.00034   0.00119
    H51      Z    -0.00008   0.00002   0.00005  -0.00079  -0.00004  -0.00036
    H52      X    -0.00050  -0.00021   0.00015  -0.00135  -0.00016  -0.00146
    H52      Y    -0.00034  -0.00012   0.00012  -0.00111  -0.00012  -0.00107
    H52      Z     0.00001   0.00002  -0.00002   0.00036  -0.00005   0.00015
    H53      X     0.00000   0.00002  -0.00002   0.00002   0.00003  -0.00001
    H53      Y    -0.00009   0.00004  -0.00000   0.00023  -0.00002   0.00005
    H53      Z    -0.00032   0.00008   0.00011   0.00044  -0.00013  -0.00032
    H54      X    -0.00019   0.00019   0.00004   0.00014  -0.00009   0.00010
    H54      Y     0.00037  -0.00031  -0.00014  -0.00021   0.00017  -0.00013
    H54      Z    -0.00025   0.00020   0.00009   0.00015  -0.00012   0.00013
    H55      X     0.00004  -0.00011   0.00037  -0.00008  -0.00020  -0.00011
    H55      Y     0.00004  -0.00013   0.00041  -0.00015  -0.00022  -0.00019
    H55      Z     0.00003  -0.00003   0.00005  -0.00008  -0.00002  -0.00005
    H56      X     0.00019  -0.00014   0.00005  -0.00010   0.00003   0.00000
    H56      Y    -0.00043   0.00011  -0.00006   0.00006   0.00003  -0.00003
    H56      Z    -0.00422   0.00047  -0.00033   0.00072  -0.00063  -0.00017
    H57      X    -0.00049   0.00030   0.00028   0.00021  -0.00021   0.00002
    H57      Y    -0.00056   0.00031   0.00036   0.00025  -0.00030   0.00002
    H57      Z    -0.00023   0.00013   0.00011   0.00014  -0.00014   0.00002
    H58      X     0.00147   0.00118  -0.00018   0.00020   0.00066   0.00023
    H58      Y    -0.00030  -0.00031  -0.00007  -0.00007  -0.00013  -0.00006
    H58      Z    -0.00039  -0.00048   0.00012  -0.00009  -0.00024  -0.00005
    H59      X    -0.00007   0.00008  -0.00027   0.00006   0.00003   0.00004
    H59      Y     0.00024  -0.00021   0.00089  -0.00020  -0.00004  -0.00011
    H59      Z    -0.00018   0.00017  -0.00053   0.00015   0.00003   0.00009
    H60      X     0.00002   0.00102   0.00347   0.00023  -0.00016   0.00017
    H60      Y    -0.00001  -0.00047  -0.00177  -0.00009   0.00011  -0.00008
    H60      Z    -0.00001  -0.00045  -0.00150  -0.00012   0.00007  -0.00008
    H61      X    -0.00002   0.00026   0.00183  -0.00001  -0.00032   0.00002
    H61      Y    -0.00002   0.00024   0.00166   0.00001  -0.00031   0.00003
    H61      Z    -0.00000   0.00001   0.00018   0.00003  -0.00013   0.00001
  
  vibration #          175       176       177
                 --------- --------- ---------
  frequencies      3229.20   3240.48   3253.51
  intensities         3.83     10.31      0.23
  reduc. mass         0.40      0.85      0.90
  force const         2.45      5.26      5.61
    P1       X     0.00001   0.00003  -0.00001
    P1       Y     0.00002  -0.00001  -0.00000
    P1       Z    -0.00002   0.00010  -0.00000
    Pd2      X     0.00001  -0.00000   0.00000
    Pd2      Y    -0.00001   0.00000  -0.00000
    Pd2      Z     0.00000   0.00000  -0.00000
    Br3      X     0.00001   0.00000  -0.00004
    Br3      Y     0.00000   0.00000  -0.00004
    Br3      Z    -0.00000  -0.00000  -0.00005
    C4       X    -0.00001   0.00003  -0.00081
    C4       Y     0.00011   0.00001   0.00035
    C4       Z     0.00002  -0.00003  -0.00073
    C5       X     0.00001   0.00001  -0.00120
    C5       Y    -0.00004  -0.00003  -0.01151
    C5       Z    -0.00001   0.00001  -0.00275
    C6       X     0.00008  -0.00001   0.06140
    C6       Y    -0.00005  -0.00000  -0.04535
    C6       Z     0.00004  -0.00000   0.03269
    C7       X    -0.00014  -0.00001   0.00041
    C7       Y     0.00003  -0.00000   0.00396
    C7       Z    -0.00007  -0.00000   0.00166
    C8       X     0.00025   0.00000  -0.00075
    C8       Y    -0.00293  -0.00006   0.00093
    C8       Z    -0.00085  -0.00002  -0.00016
    C9       X     0.00189   0.00003  -0.00136
    C9       Y    -0.00104  -0.00001   0.00118
    C9       Z     0.00081   0.00002  -0.00036
    F10      X    -0.00001  -0.00001   0.00010
    F10      Y    -0.00001  -0.00001  -0.00000
    F10      Z     0.00000  -0.00000   0.00008
    H11      X     0.00009   0.00001   0.00036
    H11      Y     0.00050   0.00023   0.11806
    H11      Z     0.00002   0.00003   0.01443
    H12      X    -0.00110   0.00001  -0.70661
    H12      Y     0.00057   0.00000   0.50447
    H12      Z    -0.00047  -0.00002  -0.37375
    H13      X    -0.00383  -0.00007   0.00133
    H13      Y     0.03295   0.00065  -0.00932
    H13      Z     0.00894   0.00017  -0.00223
    H14      X    -0.02048  -0.00032   0.01551
    H14      Y     0.01261   0.00021  -0.00971
    H14      Z    -0.00837  -0.00014   0.00607
    C15      X    -0.00002   0.00046   0.00000
    C15      Y     0.00000  -0.00005   0.00000
    C15      Z    -0.00007  -0.00272   0.00001
    C16      X    -0.00001  -0.00016  -0.00000
    C16      Y     0.00003   0.00002   0.00001
    C16      Z    -0.00004   0.00010   0.00001
    C17      X    -0.00001  -0.00004  -0.00000
    C17      Y    -0.00001   0.00003   0.00000
    C17      Z     0.00002   0.00010   0.00000
    C18      X     0.00038   0.00003   0.00004
    C18      Y     0.00163  -0.00004   0.00001
    C18      Z     0.00147  -0.00004  -0.00001
    C19      X     0.01248   0.00003   0.00002
    C19      Y    -0.04605  -0.00012  -0.00020
    C19      Z     0.03117   0.00010   0.00005
    C20      X    -0.00411  -0.00002   0.00006
    C20      Y    -0.05235  -0.00022   0.00002
    C20      Z    -0.02618  -0.00010   0.00011
    C21      X    -0.00872  -0.00005   0.00034
    C21      Y     0.00017  -0.00001   0.00009
    C21      Z    -0.02093  -0.00014   0.00031
    C22      X    -0.00243  -0.00006   0.00004
    C22      Y     0.00806   0.00014   0.00014
    C22      Z    -0.00366  -0.00009  -0.00014
    C23      X     0.00031   0.00002   0.00003
    C23      Y     0.00460   0.00025   0.00016
    C23      Z     0.00226   0.00016   0.00011
    C24      X    -0.00002  -0.00053   0.00000
    C24      Y    -0.00017   0.00021   0.00000
    C24      Z     0.00006  -0.00034   0.00002
    C25      X    -0.00033  -0.00189   0.00001
    C25      Y     0.00012   0.00068  -0.00001
    C25      Z    -0.00041  -0.00150  -0.00000
    C26      X    -0.00031  -0.00408  -0.00001
    C26      Y     0.00012   0.00156   0.00000
    C26      Z     0.00027   0.00122   0.00001
    C27      X    -0.00000  -0.00217  -0.00000
    C27      Y    -0.00000   0.00020   0.00000
    C27      Z     0.00001   0.01818  -0.00001
    C28      X    -0.00030   0.06548  -0.00001
    C28      Y     0.00010  -0.02471   0.00000
    C28      Z    -0.00021   0.04100  -0.00000
    C29      X    -0.00019  -0.00010   0.00000
    C29      Y    -0.00007   0.00006  -0.00000
    C29      Z    -0.00120   0.00030  -0.00000
    C30      X     0.00003  -0.00262   0.00000
    C30      Y     0.00001   0.00058  -0.00000
    C30      Z    -0.00000   0.00247  -0.00001
    C31      X    -0.00004   0.00011   0.00000
    C31      Y     0.00001   0.00000  -0.00000
    C31      Z    -0.00007   0.00014   0.00000
    C32      X    -0.00000   0.00005  -0.00000
    C32      Y    -0.00000   0.00000   0.00000
    C32      Z    -0.00001   0.00015  -0.00001
    C33      X     0.00004   0.00001  -0.00001
    C33      Y    -0.00002   0.00006   0.00000
    C33      Z    -0.00009   0.00012   0.00003
    C34      X     0.00004  -0.00186   0.00000
    C34      Y     0.00000   0.00063   0.00000
    C34      Z    -0.00001   0.00051  -0.00000
    H35      X    -0.13360  -0.00028  -0.00041
    H35      Y     0.53052   0.00120   0.00186
    H35      Z    -0.33556  -0.00085  -0.00116
    H36      X     0.04084   0.00017  -0.00002
    H36      Y     0.58302   0.00240  -0.00065
    H36      Z     0.28335   0.00121  -0.00031
    H37      X     0.08902   0.00061  -0.00228
    H37      Y     0.01699   0.00014  -0.00008
    H37      Z     0.22055   0.00152  -0.00676
    H38      X     0.02796   0.00061   0.00023
    H38      Y    -0.07975  -0.00162  -0.00113
    H38      Z     0.04565   0.00101   0.00060
    H39      X    -0.00317  -0.00017  -0.00009
    H39      Y    -0.04781  -0.00263  -0.00170
    H39      Z    -0.02380  -0.00134  -0.00087
    H40      X     0.00407   0.02072  -0.00019
    H40      Y    -0.00150  -0.00736   0.00008
    H40      Z     0.00275   0.01333  -0.00008
    H41      X     0.00393   0.03655   0.00010
    H41      Y    -0.00148  -0.01343  -0.00003
    H41      Z    -0.00250  -0.02020  -0.00007
    H42      X    -0.00006   0.00317  -0.00001
    H42      Y     0.00004   0.00481   0.00001
    H42      Z    -0.00025  -0.18517   0.00008
    H43      X     0.00337  -0.75275  -0.00000
    H43      Y    -0.00121   0.28162   0.00001
    H43      Z     0.00200  -0.47265  -0.00003
    H44      X    -0.00310   0.00219  -0.00005
    H44      Y     0.00135  -0.00048   0.00002
    H44      Z     0.00283  -0.00112   0.00006
    H45      X     0.00019  -0.00007  -0.00001
    H45      Y    -0.00129   0.00026  -0.00002
    H45      Z    -0.00012   0.00001   0.00000
    H46      X     0.00811  -0.00068   0.00002
    H46      Y    -0.00110  -0.00014   0.00000
    H46      Z     0.01353  -0.00218  -0.00001
    H47      X    -0.00015   0.02834  -0.00004
    H47      Y     0.00011  -0.01623   0.00002
    H47      Z     0.00025  -0.03401   0.00004
    H48      X    -0.00035   0.00893  -0.00002
    H48      Y    -0.00020   0.00642  -0.00001
    H48      Z    -0.00009   0.00078  -0.00000
    H49      X     0.00006   0.00040   0.00003
    H49      Y    -0.00013  -0.00363  -0.00007
    H49      Z     0.00005   0.00094   0.00003
    H50      X     0.00030  -0.00091  -0.00003
    H50      Y    -0.00005   0.00007  -0.00000
    H50      Z     0.00079  -0.00177  -0.00001
    H51      X     0.00001  -0.00019  -0.00000
    H51      Y    -0.00007   0.00047  -0.00000
    H51      Z     0.00001  -0.00005  -0.00000
    H52      X     0.00002  -0.00008  -0.00003
    H52      Y     0.00004  -0.00016  -0.00001
    H52      Z     0.00005  -0.00004   0.00000
    H53      X     0.00000   0.00008  -0.00002
    H53      Y     0.00004  -0.00051   0.00003
    H53      Z     0.00011  -0.00212   0.00003
    H54      X     0.00003  -0.00028   0.00004
    H54      Y    -0.00003   0.00051  -0.00007
    H54      Z     0.00003  -0.00027   0.00006
    H55      X    -0.00001  -0.00058   0.00001
    H55      Y     0.00000  -0.00052   0.00001
    H55      Z    -0.00000   0.00001   0.00001
    H56      X    -0.00007   0.00012   0.00001
    H56      Y     0.00005  -0.00008  -0.00005
    H56      Z     0.00092  -0.00129  -0.00040
    H57      X     0.00009  -0.00057   0.00001
    H57      Y     0.00013  -0.00067   0.00002
    H57      Z     0.00009  -0.00019   0.00001
    H58      X    -0.00048   0.00052   0.00005
    H58      Y     0.00012  -0.00002  -0.00001
    H58      Z     0.00013  -0.00002  -0.00000
    H59      X     0.00000   0.00081   0.00001
    H59      Y     0.00001   0.00099  -0.00004
    H59      Z     0.00000  -0.00004   0.00003
    H60      X    -0.00027   0.02038  -0.00005
    H60      Y     0.00014  -0.00916   0.00002
    H60      Z     0.00013  -0.00829   0.00002
    H61      X    -0.00011   0.00552   0.00001
    H61      Y    -0.00011   0.00455   0.00001
    H61      Z     0.00004  -0.00001   0.00001
  
  Number of imaginary frequencies:   0
   
  Writing vibrational animation data to enc_comp_L1_PL139.vib
  Writing IR vibrational spectrum data to enc_comp_L1_PL139_vib.spm
  rotational symmetry number:  1

  rotational temperatures (K):      0.009412      0.004307      0.003670
   
  The Quasi-Harmonic approximation will be applied to compute
  vibrational constributions to thermodynamic properties.
  Frequencies will be adjusted to a minimum value of  100.00 cm^-1.

  vibrational temperatures:
       mode:      1        2        3        4        5        6
  temp. (K):   143.88   143.88   143.88   143.88   143.88   143.88
   
       mode:      7        8        9       10       11       12
  temp. (K):   143.88   143.88   143.88   145.46   153.41   157.70
   
       mode:     13       14       15       16       17       18
  temp. (K):   180.39   193.23   209.07   226.63   261.21   286.71
   
       mode:     19       20       21       22       23       24
  temp. (K):   308.35   315.82   340.53   351.71   355.85   363.55
   
       mode:     25       26       27       28       29       30
  temp. (K):   377.10   383.34   398.47   407.52   419.46   449.91
   
       mode:     31       32       33       34       35       36
  temp. (K):   463.77   470.74   479.05   483.46   485.20   511.48
   
       mode:     37       38       39       40       41       42
  temp. (K):   529.69   558.78   575.52   582.85   589.36   593.53
   
       mode:     43       44       45       46       47       48
  temp. (K):   598.09   615.73   623.17   695.41   709.57   729.78
   
       mode:     49       50       51       52       53       54
  temp. (K):   740.24   779.77   809.34   812.72   853.32   887.78
   
       mode:     55       56       57       58       59       60
  temp. (K):   890.27   900.31   900.96   961.01   996.53  1030.47
   
       mode:     61       62       63       64       65       66
  temp. (K):  1092.37  1106.83  1109.14  1138.07  1143.61  1146.31
   
       mode:     67       68       69       70       71       72
  temp. (K):  1172.80  1200.54  1203.79  1237.10  1307.25  1312.91
   
       mode:     73       74       75       76       77       78
  temp. (K):  1342.22  1357.87  1376.41  1379.32  1386.87  1392.49
   
       mode:     79       80       81       82       83       84
  temp. (K):  1413.71  1415.66  1418.95  1420.90  1423.01  1450.96
   
       mode:     85       86       87       88       89       90
  temp. (K):  1459.55  1465.58  1472.68  1505.32  1517.66  1518.71
   
       mode:     91       92       93       94       95       96
  temp. (K):  1525.10  1534.00  1537.74  1539.64  1595.72  1600.80
   
       mode:     97       98       99      100      101      102
  temp. (K):  1614.22  1678.81  1697.92  1728.56  1740.50  1746.13
   
       mode:    103      104      105      106      107      108
  temp. (K):  1751.63  1754.06  1758.09  1775.47  1784.12  1798.69
   
       mode:    109      110      111      112      113      114
  temp. (K):  1803.38  1847.29  1874.00  1877.81  1920.04  1942.32
   
       mode:    115      116      117      118      119      120
  temp. (K):  1969.84  1977.66  2041.18  2045.76  2047.41  2052.74
   
       mode:    121      122      123      124      125      126
  temp. (K):  2053.86  2090.19  2102.02  2116.25  2132.27  2156.04
   
       mode:    127      128      129      130      131      132
  temp. (K):  2159.45  2162.38  2169.74  2174.58  2175.09  2178.50
   
       mode:    133      134      135      136      137      138
  temp. (K):  2188.53  2199.50  2202.93  2209.36  2212.46  2217.81
   
       mode:    139      140      141      142      143      144
  temp. (K):  2230.33  2235.76  2265.37  2332.07  2334.90  2344.61
   
       mode:    145      146      147      148      149      150
  temp. (K):  2377.73  2380.94  4363.32  4366.67  4373.59  4379.63
   
       mode:    151      152      153      154      155      156
  temp. (K):  4382.90  4391.79  4472.76  4478.68  4481.26  4484.66
   
       mode:    157      158      159      160      161      162
  temp. (K):  4488.87  4500.85  4504.60  4519.90  4530.37  4536.41
   
       mode:    163      164      165      166      167      168
  temp. (K):  4549.94  4558.08  4584.59  4586.01  4600.69  4604.74
   
       mode:    169      170      171      172      173      174
  temp. (K):  4607.58  4618.00  4619.90  4622.96  4626.57  4645.85
   
       mode:    175      176      177
  temp. (K):  4646.09  4662.32  4681.07
   
   
  Thermodynamic properties calculated assuming an ideal gas

  In the table below, the units for temperature
  are kelvins, the units for U, H, and G are
  kcal/mol and the units for Cv and S are cal/(mol K)

  The zero point energy (ZPE):    317.715 kcal/mol
  is not included in U, H, or G in the table below
  
 
  =============================================================================
  Thermodynamic properties for P = 1.00E+00 atm, calculated at   1 temperatures


  T =   298.15 K, P = 1.00E+00 atm
   
                  U         Cv          S          H          G        ln(Q)
              =========  =========  =========  =========  =========  =========
  trans.          0.889      2.981     44.948      1.481    -11.920   20.11858
  rot.            0.889      2.981     36.722      0.889    -10.060   16.97917
  vib.           17.565    116.186    105.663     17.565    -13.939   23.52555
  elec.           0.000      0.000      0.000      0.000      0.000    0.00000
  ----------------------------------------------------------------------------
  total          19.342    122.148    187.333     19.935    -35.918   60.62330
   
   Total internal energy, Utot(SCFE + ZPE + U):   -1589.744756 hartrees
   Total enthalpy, Htot (Utot + nRT), with n=1:   -1589.743812 hartrees
    Total Gibbs free energy, Gtot (Htot - T*S):   -1589.832820 hartrees
   
  end of program freq
   
 Time(freq)  user:       0.313  user+sys:       0.313  wallclock:       0.284
  
  start of program post
  
  Writing input files for PBF
  end of program post
   
 Time(post)  user:       0.165  user+sys:       0.165  wallclock:       0.096

 Total cpu seconds     user:   58209.386   user+sys:   58209.386
  
 Total elapsed time:    33502 seconds

Job enc_comp_L1_PL139 completed on bp1-compute082.data.bp.acrc.priv at Fri Mar 28 07:36:33 2025
