Job L1_NaOtBu_PL139 started on bp1-compute190 at Fri Nov 28 12:00:06 2025
jobid: bp1-compute190-0-69298ec0

  +--------------------------------------------------------------------+
  |  Jaguar version 12.5, release 138                                  |
  |                                                                    |
  |  Copyright Schrodinger, Inc.                                       |
  |  All Rights Reserved.                                              |
  |                                                                    |
  |  The following have contributed to Jaguar (listed alphabetically): |
  |  Ty Balduf, Mike Beachy, Chandler Bennett, Art Bochevarov,         |
  |  Dale Braden, Yixiang Cao, Alan Chien, Chris Cortis,               |
  |  Rich Friesner, Jim Furness, Bill Goddard, Hod Greeley,            |
  |  Tom Hughes, Leif Jacobson, Jean-Marc Langlois, Daniel Levine,     |
  |  Rob Murphy, Dean Philipp, Tom Pollard, Murco Ringnalda,           |
  |  Daniel Mainz, Pablo Videla, Mark Watson, Haoyu Yu.                |
  |                                                                    |
  |  Use of this program should be acknowledged in publications as:    |
  |                                                                    |
  |  Jaguar, version 12.5, Schrodinger, Inc., New York, NY, 2024.      |
  |                                                                    |
  |  A. D. Bochevarov, E. Harder, T. F. Hughes, J. R. Greenwood,       |
  |  D. A. Braden, D. M. Philipp, D. Rinaldo, M. D. Halls,             |
  |  J. Zhang, R. A. Friesner, "Jaguar: A High-Performance Quantum     |
  |  Chemistry Software Program with Strengths in Life and Materials   |
  |  Sciences", Int. J. Quantum Chem., 2013, 113(18), 2110-2142.       |
  +--------------------------------------------------------------------+
  
  start of program pre
  
  Job name: L1_NaOtBu_PL139
  Executables used: /software/local/apps/schrodinger2024-3/jaguar-v12.5/bin/Linux-x86_64
  Temporary files : /tmp/ar21627/L1_NaOtBu_PL139#bp1-compute190-0-69298ec0
  Basis file : using default basis file from /software/local/apps/schrodinger2024-3
  Maestro file (input):  L1_NaOtBu_PL139.mae
  Maestro file (output): L1_NaOtBu_PL139.01.mae
  
 Contents of input file: &gen and (if present) &atomic sections only
 ----------------Contents start----------------
&gen
dftname=b3pw91-d3
basis=6-31G*
numd=5
ip11=2
iaccg=3
isolv=2
igeopt=1
solvent=benzene
ifreq=1
&
&atomic
atom basis
Pd2 lacv3p*
&
 -----------------Contents end-----------------
 
  PS calculation requested. Using PS version of 6-31g*
  basis set:               non_standard                    
  net molecular charge:    0
  multiplicity:            1
  
  Using up to  18 threads per process
  
  This run will use ECP on 1 atom
  number of basis functions....          489
  
 Input geometry:
                                   angstroms
  atom               x                 y                 z
  P1            0.0000000000      0.0000000000      0.0000000000 
  Pd2           0.0000000000      0.0000000000      2.2897800551 
  C3            1.7873751791      0.0000000000     -0.5481908056 
  C4           -0.7276203842      1.5527599856     -0.8406992821 
  C5           -0.7242097042     -1.6149428961     -0.7125539548 
  C6            2.6799316734      0.3340963754      1.8356269572 
  C7            3.0950777965      1.5070057026      2.4555957899 
  C8            2.8097449690      1.7539828173      3.8135694787 
  C9            2.0930734081      0.8253529313      4.5551102924 
  C10           1.6978413163     -0.4030056795      3.9734665042 
  C11           2.0136285539     -0.6689070824      2.6120698324 
  C12           2.8637546417      0.1621979740      0.3698581337 
  C13           4.1755872345      0.2435533712     -0.1262151239 
  C14           4.4567699371      0.1719116785     -1.4867563307 
  C15           3.4068711128      0.0276076841     -2.3906429438 
  C16           2.0993124035     -0.0490028422     -1.9177971024 
  C17           0.3103400047      2.6666596150     -0.6192742342 
  C18          -1.0754936029      1.4563789048     -2.3294817033 
  C19          -1.9995635676      1.9203531488     -0.0561318947 
  C20          -2.2336378186     -1.5924271687     -0.4286662504 
  C21          -0.0782790173     -2.7340104494      0.1251031704 
  C22          -0.4908639591     -1.9464220223     -2.1928145320 
  H23           3.5926793375      2.2698430421      1.8598253337 
  H24           3.1339287780      2.6868298637      4.2697362483 
  H25           1.8579643689      1.0211838576      5.5994319492 
  H26           1.3111113328     -1.2011481240      4.6038132043 
  H27           1.9734333739     -1.6865216327      2.2245514299 
  H28           4.9871560380      0.3621991060      0.5885418070 
  H29           5.4851424525      0.2330071514     -1.8365493244 
  H30           3.5978515211     -0.0164811230     -3.4610127909 
  H31           1.3007288361     -0.1305392044     -2.6447742789 
  H32           1.1964366388      2.5312369526     -1.2476777505 
  H33          -0.1378825907      3.6386564368     -0.8667492431 
  H34           0.6396119026      2.6999997512      0.4275388936 
  H35          -0.2083401751      1.2066833806     -2.9482688157 
  H36          -1.8657895037      0.7230737024     -2.5214794562 
  H37          -1.4478934695      2.4309864131     -2.6765008101 
  H38          -1.7770500150      2.0541180093      1.0089741590 
  H39          -2.4090166462      2.8636001590     -0.4442286835 
  H40          -2.7807711798      1.1583996196     -0.1418881975 
  H41          -2.4364265276     -1.3076231694      0.6106146362 
  H42          -2.7659297121     -0.8979227766     -1.0879973557 
  H43          -2.6554175714     -2.5925597296     -0.5972410049 
  H44          -0.2944529304     -2.6073693487      1.1921598039 
  H45          -0.4685037058     -3.7093397226     -0.1972300929 
  H46           1.0110819916     -2.7488715984     -0.0017039500 
  H47          -0.8432965166     -1.1650527271     -2.8714922058 
  H48           0.5647524746     -2.1432883092     -2.4021307767 
  H49          -1.0440115588     -2.8641814790     -2.4383753213 
  O93          -0.3887995115     -0.2410003773      4.3268105840 
  Na94         -0.5324374218     -2.3790698835      3.9355313367 
  C95          -1.1256981584      0.7935354815      4.9127225565 
  C96          -2.5646807373      0.8230841204      4.3662233271 
  H97          -3.1626998563      1.6372871120      4.8004121123 
  H98          -3.0735232100     -0.1278981462      4.5792340436 
  H99          -2.5260136968      0.9481306804      3.2780220657 
  C100         -0.4720518418      2.1590034310      4.6322797678 
  H101         -1.0160178853      2.9848833654      5.1150291483 
  H102         -0.4424962730      2.3356667379      3.5483400489 
  H103          0.5631773141      2.1625872304      4.9888506929 
  C104         -1.1768935651      0.5706376024      6.4338209921 
  H105         -1.6291184814     -0.4060668500      6.6499896840 
  H106         -1.7677839543      1.3415723643      6.9481776932 
  H107         -0.1647933755      0.5787937986      6.8527044579 
   
  principal moments of inertia:
        amu*angstrom^2:              2239.36659              3728.89406              4420.38159
                g*cm^2:          3.71855524E-37          6.19197349E-37          7.34021540E-37
   
  rotational constants:
               cm^(-1):      0.00752786      0.00452081      0.00381361
                   GHz:      0.22567944      0.13553054      0.11432927
   
  Molecular weight:     500.14 amu
   
  Stoichiometry: NaPdC24PH36O
  Molecular Point Group: C1      
  Point Group used: C1
  
 
Number of optimization coordinates:   219
Number of independent coordinates:    219
Number of non-redundant coordinates:  186
Number of frozen coordinates:           0
Number of harmonic constraints:         0
 
Number of geometric degrees of freedom:   186
Maximum geometric degrees of freedom:     186
 " " " " " excluding dummy atoms:         186
 
 
  bond lengths (angstroms):
 
 P1      -Pd2     :   2.289780      P1      -C3      :   1.869552
 P1      -C4      :   1.909783      P1      -C5      :   1.907945
 Pd2     -C10     :   2.424846      Pd2     -C11     :   2.146161
 Pd2     -O93     :   2.087759      Pd2     -Na94    :   2.941421
 C3      -C12     :   1.423979      C3      -C16     :   1.405535
 C4      -C17     :   1.538559      C4      -C18     :   1.531920
 C4      -C19     :   1.538996      C5      -C20     :   1.536057
 C5      -C21     :   1.539873      C5      -C22     :   1.534764
 C6      -C7      :   1.390117      C6      -C11     :   1.432773
 C6      -C12     :   1.487218      C7      -C8      :   1.409434
 C7      -H23     :   1.088334      C8      -C9      :   1.387752
 C8      -H24     :   1.087836      C9      -C10     :   1.415409
 C9      -H25     :   1.088225      C10     -C11     :   1.422612
 C10     -H26     :   1.088085      C11     -H27     :   1.089645
 C12     -C13     :   1.404853      C13     -C14     :   1.391139
 C13     -H28     :   1.087933      C14     -C15     :   1.392883
 C14     -H29     :   1.087951      C15     -C16     :   1.392538
 C15     -H30     :   1.088168      C16     -H31     :   1.082996
 C17     -H32     :   1.094713      C17     -H33     :   1.098601
 C17     -H34     :   1.097884      C18     -H35     :   1.094167
 C18     -H36     :   1.095065      C18     -H37     :   1.099529
 C19     -H38     :   1.096292      C19     -H39     :   1.099084
 C19     -H40     :   1.094629      C20     -H41     :   1.096513
 C20     -H42     :   1.095622      C20     -H43     :   1.098445
 C21     -H44     :   1.096074      C21     -H45     :   1.098836
 C21     -H46     :   1.096817      C22     -H47     :   1.093321
 C22     -H48     :   1.094027      C22     -H49     :   1.099343
 O93     -Na94    :   2.178319      O93     -C95     :   1.398777
 C95     -C96     :   1.539547      C95     -C100    :   1.539612
 C95     -C104    :   1.538195      C96     -H97     :   1.099579
 C96     -H98     :   1.099391      C96     -H99     :   1.096045
 C100    -H101    :   1.100465      C100    -H102    :   1.098640
 C100    -H103    :   1.094922      C104    -H105    :   1.097810
 C104    -H106    :   1.099115      C104    -H107    :   1.095389
 
  bond angles:
 
 C3      -P1      -Pd2     : 107.050860  C4      -P1      -Pd2     : 116.117074
 C4      -P1      -C3      : 103.601763  C5      -P1      -Pd2     : 111.929581
 C5      -P1      -C3      : 104.677815  C5      -P1      -C4      : 112.282634
 C10     -Pd2     -P1      : 133.975264  C11     -Pd2     -P1      :  98.636799
 C11     -Pd2     -C10     :  35.608247  O93     -Pd2     -P1      : 167.343645
 O93     -Pd2     -C10     :  55.509663  O93     -Pd2     -C11     :  89.554700
 Na94    -Pd2     -P1      : 124.021836  Na94    -Pd2     -C10     :  66.660746
 Na94    -Pd2     -C11     :  80.428695  Na94    -Pd2     -O93     :  47.701804
 C12     -C3      -P1      : 122.250985  C16     -C3      -P1      : 119.861487
 C16     -C3      -C12     : 117.673889  C17     -C4      -P1      : 105.560629
 C18     -C4      -P1      : 117.592191  C18     -C4      -C17     : 109.792335
 C19     -C4      -P1      : 106.539184  C19     -C4      -C17     : 108.135920
 C19     -C4      -C18     : 108.831436  C20     -C5      -P1      : 106.951720
 C21     -C5      -P1      : 104.640051  C21     -C5      -C20     : 108.802977
 C22     -C5      -P1      : 119.032510  C22     -C5      -C20     : 109.318723
 C22     -C5      -C21     : 107.693493  C11     -C6      -C7      : 119.199807
 C12     -C6      -C7      : 120.010737  C12     -C6      -C11     : 120.708263
 C8      -C7      -C6      : 121.137437  H23     -C7      -C6      : 118.934358
 H23     -C7      -C8      : 119.812635  C9      -C8      -C7      : 120.140818
 H24     -C8      -C7      : 119.601117  H24     -C8      -C9      : 120.241932
 C10     -C9      -C8      : 120.354683  H25     -C9      -C8      : 120.261255
 H25     -C9      -C10     : 119.353906  C9      -C10     -Pd2     : 109.670753
 C11     -C10     -Pd2     :  61.446422  C11     -C10     -C9      : 119.569578
 H26     -C10     -Pd2     : 105.979757  H26     -C10     -C9      : 119.852912
 H26     -C10     -C11     : 119.747623  C6      -C11     -Pd2     :  97.860394
 C10     -C11     -Pd2     :  82.945332  C10     -C11     -C6      : 119.405063
 H27     -C11     -Pd2     : 101.715747  H27     -C11     -C6      : 118.567687
 H27     -C11     -C10     : 120.444323  C6      -C12     -C3      : 123.720642
 C13     -C12     -C3      : 118.998480  C13     -C12     -C6      : 117.177295
 C14     -C13     -C12     : 122.080187  H28     -C13     -C12     : 118.092993
 H28     -C13     -C14     : 119.826343  C15     -C14     -C13     : 119.185676
 H29     -C14     -C13     : 120.172621  H29     -C14     -C15     : 120.641069
 C16     -C15     -C14     : 119.545321  H30     -C15     -C14     : 120.678913
 H30     -C15     -C16     : 119.773351  C15     -C16     -C3      : 122.503454
 H31     -C16     -C3      : 119.543208  H31     -C16     -C15     : 117.943101
 H32     -C17     -C4      : 111.955939  H33     -C17     -C4      : 109.444309
 H33     -C17     -H32     : 108.082387  H34     -C17     -C4      : 111.194833
 H34     -C17     -H32     : 107.958480  H34     -C17     -H33     : 108.076131
 H35     -C18     -C4      : 112.581470  H36     -C18     -C4      : 112.111309
 H36     -C18     -H35     : 108.661932  H37     -C18     -C4      : 109.139156
 H37     -C18     -H35     : 106.990491  H37     -C18     -H36     : 107.085607
 H38     -C19     -C4      : 110.896703  H39     -C19     -C4      : 109.443029
 H39     -C19     -H38     : 108.298242  H40     -C19     -C4      : 112.558955
 H40     -C19     -H38     : 107.812385  H40     -C19     -H39     : 107.689095
 H41     -C20     -C5      : 111.143810  H42     -C20     -C5      : 112.054266
 H42     -C20     -H41     : 108.414086  H43     -C20     -C5      : 109.609821
 H43     -C20     -H41     : 108.115466  H43     -C20     -H42     : 107.352616
 H44     -C21     -C5      : 111.277171  H45     -C21     -C5      : 109.664338
 H45     -C21     -H44     : 108.547386  H46     -C21     -C5      : 111.319844
 H46     -C21     -H44     : 108.059426  H46     -C21     -H45     : 107.864719
 H47     -C22     -C5      : 113.287083  H48     -C22     -C5      : 111.721717
 H48     -C22     -H47     : 108.715585  H49     -C22     -C5      : 108.617169
 H49     -C22     -H47     : 107.204170  H49     -C22     -H48     : 107.009826
 Na94    -O93     -Pd2     :  87.152488  C95     -O93     -Pd2     : 114.924831
 C95     -O93     -Na94    : 140.034958  O93     -Na94    -Pd2     :  45.145707
 C96     -C95     -O93     : 110.971894  C100    -C95     -O93     : 110.853821
 C100    -C95     -C96     : 108.369222  C104    -C95     -O93     : 108.940018
 C104    -C95     -C96     : 108.826351  C104    -C95     -C100    : 108.830862
 H97     -C96     -C95     : 112.481207  H98     -C96     -C95     : 110.317828
 H98     -C96     -H97     : 108.196843  H99     -C96     -C95     : 108.762694
 H99     -C96     -H97     : 109.071641  H99     -C96     -H98     : 107.901590
 H101    -C100    -C95     : 112.075727  H102    -C100    -C95     : 109.496514
 H102    -C100    -H101    : 108.991436  H103    -C100    -C95     : 110.181214
 H103    -C100    -H101    : 108.786421  H103    -C100    -H102    : 107.177907
 H105    -C104    -C95     : 109.715720  H106    -C104    -C95     : 112.273233
 H106    -C104    -H105    : 108.085199  H107    -C104    -C95     : 110.262682
 H107    -C104    -H105    : 108.176014  H107    -C104    -H106    : 108.212951
 
  torsional angles:
 
 P1      -Pd2     -C10     -C9      : 105.159572
 P1      -Pd2     -C10     -C11     :  -8.550225
 P1      -Pd2     -C10     -H26     :-124.129737
 P1      -Pd2     -C11     -C6      :  54.949330
 P1      -Pd2     -C11     -C10     : 173.787250
 P1      -Pd2     -C11     -H27     : -66.492509
 P1      -Pd2     -O93     -Na94    :  53.177864
 P1      -Pd2     -O93     -C95     : -92.216765
 P1      -Pd2     -Na94    -O93     :-167.782969
 P1      -C3      -C12     -C6      :   0.516294
 P1      -C3      -C12     -C13     :-175.674055
 P1      -C3      -C16     -C15     : 176.127824
 P1      -C3      -C16     -H31     :  -2.683714
 P1      -C4      -C17     -H32     :  73.311605
 P1      -C4      -C17     -H33     :-166.872584
 P1      -C4      -C17     -H34     : -47.544290
 P1      -C4      -C18     -H35     : -59.412972
 P1      -C4      -C18     -H36     :  63.477175
 P1      -C4      -C18     -H37     :-178.054123
 P1      -C4      -C19     -H38     :  55.493051
 P1      -C4      -C19     -H39     : 174.910332
 P1      -C4      -C19     -H40     : -65.382427
 P1      -C5      -C20     -H41     : -46.969533
 P1      -C5      -C20     -H42     :  74.503927
 P1      -C5      -C20     -H43     :-166.421382
 P1      -C5      -C21     -H44     :  57.965117
 P1      -C5      -C21     -H45     : 178.074926
 P1      -C5      -C21     -H46     : -62.639128
 P1      -C5      -C22     -H47     : -56.557487
 P1      -C5      -C22     -H48     :  66.637892
 P1      -C5      -C22     -H49     :-175.555526
 Pd2     -P1      -C3      -C12     :  -7.740349
 Pd2     -P1      -C3      -C16     : 177.695990
 Pd2     -P1      -C4      -C17     :  72.368002
 Pd2     -P1      -C4      -C18     :-164.803134
 Pd2     -P1      -C4      -C19     : -42.451012
 Pd2     -P1      -C5      -C20     :  70.670722
 Pd2     -P1      -C5      -C21     : -44.662813
 Pd2     -P1      -C5      -C22     :-164.945181
 Pd2     -C10     -C9      -C8      : -69.033479
 Pd2     -C10     -C9      -H25     : 112.958569
 Pd2     -C10     -C11     -C6      :  95.073624
 Pd2     -C10     -C11     -H27     : -99.473613
 Pd2     -C11     -C6      -C7      :  91.158096
 Pd2     -C11     -C6      -C12     : -85.565735
 Pd2     -C11     -C10     -C9      : -97.577382
 Pd2     -C11     -C10     -H26     :  92.866156
 Pd2     -O93     -C95     -C96     :  67.406015
 Pd2     -O93     -C95     -C100    : -53.069471
 Pd2     -O93     -C95     -C104    :-172.798273
 Pd2     -Na94    -O93     -C95     : 126.695675
 C3      -P1      -Pd2     -C10     : -13.352819
 C3      -P1      -Pd2     -C11     : -18.375966
 C3      -P1      -Pd2     -O93     :-148.206976
 C3      -P1      -Pd2     -Na94    :-102.614961
 C3      -P1      -C4      -C17     : -44.671868
 C3      -P1      -C4      -C18     :  78.156996
 C3      -P1      -C4      -C19     :-159.490882
 C3      -P1      -C5      -C20     :-173.721516
 C3      -P1      -C5      -C21     :  70.944949
 C3      -P1      -C5      -C22     : -49.337420
 C3      -C12     -C6      -C7      :-117.423284
 C3      -C12     -C6      -C11     :  59.274064
 C3      -C12     -C13     -C14     :   0.060844
 C3      -C12     -C13     -H28     :-179.687216
 C3      -C16     -C15     -C14     :  -0.662723
 C3      -C16     -C15     -H30     : 179.898767
 C4      -P1      -Pd2     -C10     :-128.460518
 C4      -P1      -Pd2     -C11     :-133.483666
 C4      -P1      -Pd2     -O93     :  96.685325
 C4      -P1      -Pd2     -Na94    : 142.277340
 C4      -P1      -C3      -C12     : 115.485525
 C4      -P1      -C3      -C16     : -59.078136
 C4      -P1      -C5      -C20     : -62.002340
 C4      -P1      -C5      -C21     :-177.335875
 C4      -P1      -C5      -C22     :  62.381756
 C5      -P1      -Pd2     -C10     : 100.800693
 C5      -P1      -Pd2     -C11     :  95.777545
 C5      -P1      -Pd2     -O93     : -34.053465
 C5      -P1      -Pd2     -Na94    :  11.538550
 C5      -P1      -C3      -C12     :-126.697157
 C5      -P1      -C3      -C16     :  58.739182
 C5      -P1      -C4      -C17     :-157.060195
 C5      -P1      -C4      -C18     : -34.231331
 C5      -P1      -C4      -C19     :  88.120791
 C6      -C7      -C8      -C9      :  -0.562772
 C6      -C7      -C8      -H24     :-179.105381
 C6      -C11     -Pd2     -C10     :-118.837920
 C6      -C11     -Pd2     -O93     :-134.737476
 C6      -C11     -Pd2     -Na94    : 178.200005
 C6      -C11     -C10     -C9      :  -2.503758
 C6      -C11     -C10     -H26     :-172.060220
 C6      -C12     -C3      -C16     : 175.193072
 C6      -C12     -C13     -C14     :-176.377546
 C6      -C12     -C13     -H28     :   3.874394
 C7      -C6      -C11     -C10     :   4.856730
 C7      -C6      -C11     -H27     :-160.868948
 C7      -C6      -C12     -C13     :  58.831243
 C7      -C8      -C9      -C10     :   2.988204
 C7      -C8      -C9      -H25     :-179.022007
 C8      -C7      -C6      -C11     :  -3.364397
 C8      -C7      -C6      -C12     : 173.382739
 C8      -C9      -C10     -C11     :  -1.416152
 C8      -C9      -C10     -H26     : 168.129190
 C9      -C8      -C7      -H23     : 175.487027
 C9      -C10     -Pd2     -C11     : 113.709798
 C9      -C10     -Pd2     -O93     : -85.702664
 C9      -C10     -Pd2     -Na94    :-139.343946
 C9      -C10     -C11     -H27     : 162.949005
 C10     -Pd2     -C11     -H27     : 119.720241
 C10     -Pd2     -O93     -Na94    : -88.582313
 C10     -Pd2     -O93     -C95     : 126.023058
 C10     -Pd2     -Na94    -O93     :  63.818246
 C10     -C9      -C8      -H24     :-178.478601
 C10     -C11     -Pd2     -O93     : -15.899556
 C10     -C11     -Pd2     -Na94    : -62.962075
 C10     -C11     -C6      -C12     :-171.867101
 C11     -Pd2     -C10     -H26     :-115.579511
 C11     -Pd2     -O93     -Na94    : -77.423872
 C11     -Pd2     -O93     -C95     : 137.181500
 C11     -Pd2     -Na94    -O93     :  98.208103
 C11     -C6      -C7      -H23     :-179.448185
 C11     -C6      -C12     -C13     :-124.471409
 C11     -C10     -Pd2     -O93     : 160.587538
 C11     -C10     -Pd2     -Na94    : 106.946257
 C11     -C10     -C9      -H25     :-179.424103
 C12     -C3      -C16     -C15     :   1.318628
 C12     -C3      -C16     -H31     :-177.492909
 C12     -C6      -C7      -H23     :  -2.701049
 C12     -C6      -C11     -H27     :  22.407221
 C12     -C13     -C14     -C15     :   0.618127
 C12     -C13     -C14     -H29     :-179.669705
 C13     -C12     -C3      -C16     :  -0.997277
 C13     -C14     -C15     -C16     :  -0.324670
 C13     -C14     -C15     -H30     : 179.108646
 C14     -C15     -C16     -H31     : 178.166884
 C15     -C14     -C13     -H28     :-179.638067
 C16     -C15     -C14     -H29     : 179.964547
 C17     -C4      -C18     -H35     :  61.234867
 C17     -C4      -C18     -H36     :-175.874986
 C17     -C4      -C18     -H37     : -57.406285
 C17     -C4      -C19     -H38     : -57.569239
 C17     -C4      -C19     -H39     :  61.848043
 C17     -C4      -C19     -H40     :-178.444717
 C18     -C4      -C17     -H32     : -54.364352
 C18     -C4      -C17     -H33     :  65.451458
 C18     -C4      -C17     -H34     :-175.220247
 C18     -C4      -C19     -H38     :-176.789643
 C18     -C4      -C19     -H39     : -57.372362
 C18     -C4      -C19     -H40     :  62.334879
 C19     -C4      -C17     -H32     :-172.975163
 C19     -C4      -C17     -H33     : -53.159353
 C19     -C4      -C17     -H34     :  66.168942
 C19     -C4      -C18     -H35     : 179.415607
 C19     -C4      -C18     -H36     : -57.694246
 C19     -C4      -C18     -H37     :  60.774455
 C20     -C5      -C21     -H44     : -56.069142
 C20     -C5      -C21     -H45     :  64.040667
 C20     -C5      -C21     -H46     :-176.673387
 C20     -C5      -C22     -H47     :  66.668628
 C20     -C5      -C22     -H48     :-170.135993
 C20     -C5      -C22     -H49     : -52.329411
 C21     -C5      -C20     -H41     :  65.544240
 C21     -C5      -C20     -H42     :-172.982300
 C21     -C5      -C20     -H43     : -53.907609
 C21     -C5      -C22     -H47     :-175.275016
 C21     -C5      -C22     -H48     : -52.079638
 C21     -C5      -C22     -H49     :  65.726945
 C22     -C5      -C20     -H41     :-177.095953
 C22     -C5      -C20     -H42     : -55.622493
 C22     -C5      -C20     -H43     :  63.452198
 C22     -C5      -C21     -H44     :-174.457527
 C22     -C5      -C21     -H45     : -54.347718
 C22     -C5      -C21     -H46     :  64.938228
 H23     -C7      -C8      -H24     :  -3.055582
 H24     -C8      -C9      -H25     :  -0.488812
 H25     -C9      -C10     -H26     :  -9.878762
 H26     -C10     -Pd2     -O93     :  45.008027
 H26     -C10     -Pd2     -Na94    :  -8.633255
 H26     -C10     -C11     -H27     :  -6.607457
 H27     -C11     -Pd2     -O93     : 103.820685
 H27     -C11     -Pd2     -Na94    :  56.758166
 H28     -C13     -C14     -H29     :   0.074101
 H29     -C14     -C15     -H30     :  -0.602138
 H30     -C15     -C16     -H31     :  -1.271626
 O93     -C95     -C96     -H97     :-179.186993
 O93     -C95     -C96     -H98     :  59.908020
 O93     -C95     -C96     -H99     : -58.253096
 O93     -C95     -C100    -H101    :-177.946050
 O93     -C95     -C100    -H102    :  60.981440
 O93     -C95     -C100    -H103    : -56.659576
 O93     -C95     -C104    -H105    : -58.290236
 O93     -C95     -C104    -H106    :-178.497519
 O93     -C95     -C104    -H107    :  60.756190
 Na94    -Pd2     -O93     -C95     :-145.394629
 Na94    -O93     -C95     -C96     : -50.577886
 Na94    -O93     -C95     -C100    :-171.053372
 Na94    -O93     -C95     -C104    :  69.217825
 C96     -C95     -C100    -H101    :  60.044610
 C96     -C95     -C100    -H102    : -61.027900
 C96     -C95     -C100    -H103    :-178.668916
 C96     -C95     -C104    -H105    :  62.826352
 C96     -C95     -C104    -H106    : -57.380931
 C96     -C95     -C104    -H107    :-178.127222
 H97     -C96     -C95     -C100    : -57.249933
 H97     -C96     -C95     -C104    :  60.949489
 H98     -C96     -C95     -C100    :-178.154920
 H98     -C96     -C95     -C104    : -59.955498
 H99     -C96     -C95     -C100    :  63.683964
 H99     -C96     -C95     -C104    :-178.116614
 C100    -C95     -C104    -H105    :-179.265756
 C100    -C95     -C104    -H106    :  60.526961
 C100    -C95     -C104    -H107    : -60.219330
 H101    -C100    -C95     -C104    : -58.151943
 H102    -C100    -C95     -C104    :-179.224454
 H103    -C100    -C95     -C104    :  63.134531
 
  nuclear repulsion energy.......          3550.963309836 hartrees
  
  Detected an organometallic with only one TM atom. 
  
  
 
  Will use High-Quality Initial guess for organometallics
       including d-d repulsion (iguess=30)
 
 Non-default options chosen:
   SCF calculation type: DFT(b3pw91-d3)              
   DFT=Becke_3_Parameter/HF+Slater+Becke88+PW91+PW-GGAIIC (B3PW91-D3)
   Geometry will be optimized in redundant internal coordinates
   Solvation energy will be computed using PBF
     -solute cavity energy will not be included
     -surface area terms will not be included
   Vibrational frequencies and related properties will be computed
      from analytic second derivatives
   IR intensities will be computed
   Thermochemical properties will be computed
   Maximum number of geometry steps: 100
   Scaling standard convergence criteria by a factor of   5.00
   Solvent: benzene                                                         
   Internal dielectric constant:    1.000
   Continuum dielectric constant:   2.283
   Solvent probe molecule radius:   2.600
  
 Non-default print settings:
     11=  2
  
 Temporary integer options set:
     21= -1  73=  2
  
  atom       vdw   vdw2    cov     mass  grid  daf  charge   basis
  P1        2.147  2.074  1.060   30.974    Y    Y      Y    ps_6-31g*
  Pd2       1.450  1.450  1.280  105.903    Y    Y      Y    lacv3p*
  C3        1.949  1.900  0.770   12.000    Y    Y      Y    ps_6-31g*
  C4        1.949  1.900  0.770   12.000    Y    Y      Y    ps_6-31g*
  C5        1.949  1.900  0.770   12.000    Y    Y      Y    ps_6-31g*
  C6        1.949  1.900  0.770   12.000    Y    Y      Y    ps_6-31g*
  C7        1.949  1.900  0.770   12.000    Y    Y      Y    ps_6-31g*
  C8        1.949  1.900  0.770   12.000    Y    Y      Y    ps_6-31g*
  C9        1.949  1.900  0.770   12.000    Y    Y      Y    ps_6-31g*
  C10       1.949  1.900  0.770   12.000    Y    Y      Y    ps_6-31g*
  C11       1.949  1.900  0.770   12.000    Y    Y      Y    ps_6-31g*
  C12       1.949  1.900  0.770   12.000    Y    Y      Y    ps_6-31g*
  C13       1.949  1.900  0.770   12.000    Y    Y      Y    ps_6-31g*
  C14       1.949  1.900  0.770   12.000    Y    Y      Y    ps_6-31g*
  C15       1.949  1.900  0.770   12.000    Y    Y      Y    ps_6-31g*
  C16       1.949  1.900  0.770   12.000    Y    Y      Y    ps_6-31g*
  C17       1.949  1.900  0.770   12.000    Y    Y      Y    ps_6-31g*
  C18       1.949  1.900  0.770   12.000    Y    Y      Y    ps_6-31g*
  C19       1.949  1.900  0.770   12.000    Y    Y      Y    ps_6-31g*
  C20       1.949  1.900  0.770   12.000    Y    Y      Y    ps_6-31g*
  C21       1.949  1.900  0.770   12.000    Y    Y      Y    ps_6-31g*
  C22       1.949  1.900  0.770   12.000    Y    Y      Y    ps_6-31g*
  H23       1.597  1.150  0.320    1.008    Y    Y      Y    ps_6-31g*
  H24       1.597  1.150  0.320    1.008    Y    Y      Y    ps_6-31g*
  H25       1.597  1.150  0.320    1.008    Y    Y      Y    ps_6-31g*
  H26       1.597  1.150  0.320    1.008    Y    Y      Y    ps_6-31g*
  H27       1.597  1.150  0.320    1.008    Y    Y      Y    ps_6-31g*
  H28       1.597  1.150  0.320    1.008    Y    Y      Y    ps_6-31g*
  H29       1.597  1.150  0.320    1.008    Y    Y      Y    ps_6-31g*
  H30       1.597  1.150  0.320    1.008    Y    Y      Y    ps_6-31g*
  H31       1.597  1.150  0.320    1.008    Y    Y      Y    ps_6-31g*
  H32       1.597  1.150  0.320    1.008    Y    Y      Y    ps_6-31g*
  H33       1.597  1.150  0.320    1.008    Y    Y      Y    ps_6-31g*
  H34       1.597  1.150  0.320    1.008    Y    Y      Y    ps_6-31g*
  H35       1.597  1.150  0.320    1.008    Y    Y      Y    ps_6-31g*
  H36       1.597  1.150  0.320    1.008    Y    Y      Y    ps_6-31g*
  H37       1.597  1.150  0.320    1.008    Y    Y      Y    ps_6-31g*
  H38       1.597  1.150  0.320    1.008    Y    Y      Y    ps_6-31g*
  H39       1.597  1.150  0.320    1.008    Y    Y      Y    ps_6-31g*
  H40       1.597  1.150  0.320    1.008    Y    Y      Y    ps_6-31g*
  H41       1.597  1.150  0.320    1.008    Y    Y      Y    ps_6-31g*
  H42       1.597  1.150  0.320    1.008    Y    Y      Y    ps_6-31g*
  H43       1.597  1.150  0.320    1.008    Y    Y      Y    ps_6-31g*
  H44       1.597  1.150  0.320    1.008    Y    Y      Y    ps_6-31g*
  H45       1.597  1.150  0.320    1.008    Y    Y      Y    ps_6-31g*
  H46       1.597  1.150  0.320    1.008    Y    Y      Y    ps_6-31g*
  H47       1.597  1.150  0.320    1.008    Y    Y      Y    ps_6-31g*
  H48       1.597  1.150  0.320    1.008    Y    Y      Y    ps_6-31g*
  H49       1.597  1.150  0.320    1.008    Y    Y      Y    ps_6-31g*
  O93       1.702  1.600  0.730   15.995    Y    Y      Y    ps_6-31g*
  Na94      2.308  1.492  1.540   22.990    Y    Y      Y    ps_6-31g*
  C95       1.949  1.900  0.770   12.000    Y    Y      Y    ps_6-31g*
  C96       1.949  1.900  0.770   12.000    Y    Y      Y    ps_6-31g*
  H97       1.597  1.150  0.320    1.008    Y    Y      Y    ps_6-31g*
  H98       1.597  1.150  0.320    1.008    Y    Y      Y    ps_6-31g*
  H99       1.597  1.150  0.320    1.008    Y    Y      Y    ps_6-31g*
  C100      1.949  1.900  0.770   12.000    Y    Y      Y    ps_6-31g*
  H101      1.597  1.150  0.320    1.008    Y    Y      Y    ps_6-31g*
  H102      1.597  1.150  0.320    1.008    Y    Y      Y    ps_6-31g*
  H103      1.597  1.150  0.320    1.008    Y    Y      Y    ps_6-31g*
  C104      1.949  1.900  0.770   12.000    Y    Y      Y    ps_6-31g*
  H105      1.597  1.150  0.320    1.008    Y    Y      Y    ps_6-31g*
  H106      1.597  1.150  0.320    1.008    Y    Y      Y    ps_6-31g*
  H107      1.597  1.150  0.320    1.008    Y    Y      Y    ps_6-31g*
 
  atom      formal  2spin      esp    mulk    frag
  P1           0       0        Y    0.000       0
  Pd2          0       0        Y    0.000       0
  O93          0       0        Y    0.000       0
  
  end of program pre
   
 Time(pre)  user:       4.320  user+sys:       4.320  wallclock:       1.016
  
  start of program onee
  
  smallest eigenvalue of S:    4.360E-04
  number of canonical orbitals.....          487
  end of program onee
   
 Time(onee)  user:       3.894  user+sys:       3.894  wallclock:       0.868
  
  start of program hfig
  
  initial wavefunction generated automatically from atomic wavefunctions
  Only one possible d-orb occupation 
  Skip d-d repulsion considerations 
 
  Irreducible     Total no   No of occupied orbitals 
  representation  orbitals   Shell_1  Shell_2    ...
  No Symm          487        116
  ------------------------
  Orbital occupation/shell    1.000
 
  end of program hfig
   
 Time(hfig)  user:       1.937  user+sys:       1.937  wallclock:       0.923
  
  start of program probe
  
  end of program probe
   
 Time(probe)  user:       0.850  user+sys:       0.850  wallclock:       0.300
  
  start of program grid
  
   grid     grid set  grid #  grid sym
  ------    --------  ------  --------
  coarse        0        0        1
  medium        2        1        1
  fine          0        0        1
  ultrafine     4        2        1
  charge       -1        3        1
  gradient      4        2        1
  density       0        0        1
  DFT-fine    -11        4        1
  DFT-med.    -10        5        1
  DFT-grad    -12        6        1
  DFT-der2     -8        7        1
  DFT-cphf     -9        8        1
  LMP2-enrg     4        2        1
  LMP2-grad     2        1        1
  DFT-cphf2   -15        9        1
  PBF-dens      0        0        1
  plotting      0        0        1
  Rel-grad    -17        0        1
  
  number of gridpoints: 
     atom           P1         Pd2          C3          C4          C5          C6          C7
  grid # 1         607         351          92          87          88          98          94
  grid # 2         426         313         382         367         362         358         328
  grid # 3           6         195           9           6           6          15          24
  grid # 4        8582        8582        8582        8582        8582        8582        8582
  grid # 5        1192        1192        1192        1192        1192        1192        1192
  grid # 6        9488        9488        6164        6164        6164        6164        6164
  grid # 7       23054       32756       14018       14018       14018       14018       14018
  grid # 8         724        1144         750         750         750         750         750
  grid # 9         380        2168         406         406         406         406         406
   
  number of gridpoints: 
     atom           C8          C9         C10         C11         C12         C13         C14
  grid # 1          95          94          93          91          98          96          97
  grid # 2         325         321         317         323         362         326         324
  grid # 3          33          28          25          20          17          35          44
  grid # 4        8582        8582        8582        8582        8582        8582        8582
  grid # 5        1192        1192        1192        1192        1192        1192        1192
  grid # 6        6164        6164        6164        6164        6164        6164        6164
  grid # 7       14018       14018       14018       14018       14018       14018       14018
  grid # 8         750         750         750         750         750         750         750
  grid # 9         406         406         406         406         406         406         406
   
  number of gridpoints: 
     atom          C15         C16         C17         C18         C19         C20         C21
  grid # 1          96          93          80          82          80          78          80
  grid # 2         323         326         236         233         236         243         240
  grid # 3          35          14           6           6           6           6           6
  grid # 4        8582        8582        8582        8582        8582        8582        8582
  grid # 5        1192        1192        1192        1192        1192        1192        1192
  grid # 6        6164        6164        6164        6164        6164        6164        6164
  grid # 7       14018       14018       14018       14018       14018       14018       14018
  grid # 8         750         750         750         750         750         750         750
  grid # 9         406         406         406         406         406         406         406
   
  number of gridpoints: 
     atom          C22         H23         H24         H25         H26         H27         H28
  grid # 1          81         114         116         105          97         109         115
  grid # 2         235         452         462         435         434         446         457
  grid # 3           6         299         378         209         189         191         333
  grid # 4        8582        8582        8582        8582        8582        8582        8582
  grid # 5        1192        1192        1192        1192        1192        1192        1192
  grid # 6        6164        6164        6164        6164        6164        6164        6164
  grid # 7       14018       15170       15170       15170       15170       15170       15170
  grid # 8         750         792         792         792         792         792         792
  grid # 9         406         420         420         420         420         420         420
   
  number of gridpoints: 
     atom          H29         H30         H31         H32         H33         H34         H35
  grid # 1         118         118         103         106         109         104         101
  grid # 2         467         466         421         439         447         441         427
  grid # 3         425         415          89         200         274         156         161
  grid # 4        8582        8582        8582        8582        8582        8582        8582
  grid # 5        1192        1192        1192        1192        1192        1192        1192
  grid # 6        6164        6164        6164        6164        6164        6164        6164
  grid # 7       15170       15170       15170       15170       15170       15170       15170
  grid # 8         792         792         792         792         792         792         792
  grid # 9         420         420         420         420         420         420         420
   
  number of gridpoints: 
     atom          H36         H37         H38         H39         H40         H41         H42
  grid # 1         102         109         103         108         105         105         103
  grid # 2         430         447         434         447         435         439         432
  grid # 3         168         276         107         276         166         140         167
  grid # 4        8582        8582        8582        8582        8582        8582        8582
  grid # 5        1192        1192        1192        1192        1192        1192        1192
  grid # 6        6164        6164        6164        6164        6164        6164        6164
  grid # 7       15170       15170       15170       15170       15170       15170       15170
  grid # 8         792         792         792         792         792         792         792
  grid # 9         420         420         420         420         420         420         420
   
  number of gridpoints: 
     atom          H43         H44         H45         H46         H47         H48         H49
  grid # 1         108          96         108         105         103         104         109
  grid # 2         445         426         448         439         423         431         446
  grid # 3         272          61         267         197         155         199         270
  grid # 4        8582        8582        8582        8582        8582        8582        8582
  grid # 5        1192        1192        1192        1192        1192        1192        1192
  grid # 6        6164        6164        6164        6164        6164        6164        6164
  grid # 7       15170       15170       15170       15170       15170       15170       15170
  grid # 8         792         792         792         792         792         792         792
  grid # 9         420         420         420         420         420         420         420
   
  number of gridpoints: 
     atom          O93        Na94         C95         C96         H97         H98         H99
  grid # 1         111         704          91          81         108         109         104
  grid # 2         460         643         322         236         452         452         436
  grid # 3           9         285           6           6         294         238         122
  grid # 4        8582        8582        8582        8582        8582        8582        8582
  grid # 5        1192        1192        1192        1192        1192        1192        1192
  grid # 6        6164        9488        6164        6164        6164        6164        6164
  grid # 7       23358       21102       14018       14018       15170       15170       15170
  grid # 8         774         642         750         750         792         792         792
  grid # 9         412         338         406         406         420         420         420
   
  number of gridpoints: 
     atom         C100        H101        H102        H103        C104        H105        H106
  grid # 1          81         109         103          98          80         109         109
  grid # 2         239         451         433         413         238         452         449
  grid # 3           6         291         140          99           6         242         289
  grid # 4        8582        8582        8582        8582        8582        8582        8582
  grid # 5        1192        1192        1192        1192        1192        1192        1192
  grid # 6        6164        6164        6164        6164        6164        6164        6164
  grid # 7       14018       15170       15170       15170       14018       15170       15170
  grid # 8         750         792         792         792         750         792         792
  grid # 9         406         420         420         420         406         420         420
   
  number of gridpoints: 
     atom         H107       total
  grid # 1         107        7738
  grid # 2         443       24941
  grid # 3         227        8848
  grid # 4        8582      549248
  grid # 5        1192       76288
  grid # 6        6164      404468
  grid # 7       15170      982822
  grid # 8         792       49796
  grid # 9         420       28162
   
  end of program grid
   
 Time(grid)  user:     199.905  user+sys:     199.905  wallclock:      14.416
  
  start of program rwr
  
  end of program rwr
   
 Time(rwr)  user:      50.220  user+sys:      50.220  wallclock:       9.589
  
  start of program scf
  
 number of electrons..........        232
 number of alpha electrons....        116
 number of beta electrons.....        116
 number of orbitals, total....        487
 number of doubly-occ'd orbs..        116
 number of open shell orbs....          0
 number of occupied orbitals..        116
 number of virtual orbitals...        371
 number of hamiltonians.......          1
 number of shells.............          1
 SCF type: DFT=Becke_3_Parameter/HF+Slater+Becke88+PW91+PW-GGAIIC (B3PW91-D3)
 Energy computed using pseudospectral method.
 Convergence Criterion:
    Energy (econv):       1.00E-05
    RMS density (dconv):  5.00E-06
  
       i  u  d  i  g                   
       t  p  i  c  r                                 RMS    maximum
       e  d  i  u  i                       energy  density   DIIS  
       r  t  s  t  d       total energy    change  change    error 
  
etot    1  N  N  5  M   -1637.74401655142           2.7E-03  1.7E-01
etot    2  Y  Y  6  M   -1640.30372113883  2.6E+00  3.6E-03  1.0E-01
etot    3  Y  Y  6  M   -1640.90300028549  6.0E-01  2.1E-03  5.0E-02
etot    4  N  Y  2  U   -1641.31075443267  4.1E-01  1.2E-03  5.6E-02
etot    5  Y  Y  6  M   -1641.41202317150  1.0E-01  7.5E-04  3.1E-02
etot    6  N  Y  2  U   -1641.41808758900  6.1E-03  4.3E-04  9.0E-03
etot    7  Y  Y  6  M   -1641.42122870614  3.1E-03  1.1E-04  2.2E-03
etot    8  Y  Y  6  M   -1641.42313497278  1.9E-03  3.2E-05  5.7E-04
etot    9  N  Y  2  U   -1641.42371649009  5.8E-04  1.8E-05  2.5E-04
etot   10  N  Y  2  U   -1641.42374312031  2.7E-05  1.4E-05  1.5E-04
etot   11  N  Y  2  U   -1641.42375673440  1.4E-05  1.1E-05  1.3E-04
etot   12  N  Y  2  U   -1641.42376346335  6.7E-06  8.1E-06  7.7E-05
etot   13  N  Y  2  U   -1641.42376697055  3.5E-06  5.1E-06  5.3E-05
etot   14  N  Y  2  U   -1641.42376825492  1.3E-06  4.2E-06  3.5E-05
etot   15  N  N  2  U   -1641.42376898840  7.3E-07  0.0E+00  0.0E+00
 
  Computing the dispersion energy correction and its gradients...
  
  
 Energy components, in hartrees:
   (A)  Nuclear repulsion............    3550.96330983606
   (E)  Total one-electron terms.....   -9370.93629165613
   (F)    Electron-nuclear...........  -10923.96033901472
   (H)    Kinetic....................    1553.02404735860
   (I)  Total two-electron terms.....    4178.54921283168
   (J)    Coulomb....................    4381.21816552571
   (K)    Exchange+Correlation.......    -202.66895269404
   (L)  Electronic energy............   -5192.38707882445  (E+I)
   (N0) D3 correction................      -0.11569338412
   (N)  Total energy.................   -1641.53946237251  (A+L+N0)
   (O)  Gas phase energy.............   -1641.53946237251
  
 SCFE: SCF energy: DFT(b3pw91-d3)     -1641.53946237251 hartrees   iterations:  15
  
 
 HOMO energy:    -0.11294
 LUMO energy:    -0.05396
 
  Orbital energies (hartrees): 
   -77.04341   -38.49394   -19.04608   -10.18910   -10.18039   -10.17956
   -10.17605   -10.17177   -10.16657   -10.16578   -10.16458   -10.16251
   -10.16093   -10.16002   -10.15818   -10.15400   -10.15375   -10.15209
   -10.15089   -10.13942   -10.13830   -10.13814   -10.13770   -10.13681
   -10.12647   -10.11812   -10.10827    -6.54272    -4.70092    -4.70058
    -4.69697    -3.25162    -2.25590    -1.98206    -1.97396    -1.96791
    -1.18509    -1.18380    -1.18158    -0.92827    -0.85561    -0.82632
    -0.81862    -0.80008    -0.76148    -0.74298    -0.74094    -0.72090
    -0.70370    -0.69104    -0.68795    -0.67922    -0.67054    -0.65972
    -0.65191    -0.63537    -0.60542    -0.59153    -0.57797    -0.55939
    -0.54422    -0.52318    -0.50649    -0.49578    -0.48026    -0.45822
    -0.45575    -0.45088    -0.44335    -0.44202    -0.43569    -0.42659
    -0.42331    -0.42123    -0.41811    -0.41673    -0.41477    -0.40929
    -0.40243    -0.39986    -0.39327    -0.38748    -0.37899    -0.37265
    -0.37176    -0.37047    -0.36575    -0.36439    -0.35625    -0.35577
    -0.35139    -0.34545    -0.33800    -0.33626    -0.33211    -0.32696
    -0.32345    -0.31929    -0.31895    -0.31635    -0.30969    -0.30212
    -0.29427    -0.28538    -0.27739    -0.26405    -0.25248    -0.24263
    -0.23643    -0.22444    -0.19615    -0.18655    -0.17949    -0.17485
    -0.16331    -0.11294    -0.05396    -0.01283    -0.00611     0.00567
     0.01025     0.02375     0.03124     0.03969     0.04935     0.06494
 
  end of program scf
   
 Time(scf)  user:     578.835  user+sys:     578.835  wallclock:      57.258
  
  start of program der1a
  
  end of program der1a
   
 Time(der1a)  user:      10.686  user+sys:      10.686  wallclock:       1.224
  
  start of program rwr
  
  end of program rwr
   
 Time(rwr)  user:      27.904  user+sys:      27.904  wallclock:      11.527
  
  start of program der1b
  
   
  forces (hartrees/bohr) : total     
   
 atom  label           x              y              z
 ---- --------   -------------  -------------  -------------
    1 P1          7.308387E-03   1.684643E-03   1.485183E-02
    2 Pd2        -2.123163E-02  -1.608992E-04  -4.516932E-02
    3 C3         -8.578570E-05  -3.765282E-04  -5.775397E-03
    4 C4         -9.785305E-04   1.325387E-04  -3.663788E-04
    5 C5         -6.446173E-04   1.095365E-03   1.512796E-03
    6 C6         -3.869349E-03  -7.344257E-03  -1.622492E-03
    7 C7         -1.877129E-03   6.268729E-03   5.730395E-03
    8 C8          3.530556E-03  -3.484226E-03  -7.818201E-03
    9 C9          1.657731E-02  -1.894822E-02  -1.745684E-04
   10 C10         5.282781E-02   2.092434E-03  -1.683710E-03
   11 C11         1.521618E-02   3.677429E-03   8.597816E-03
   12 C12        -6.873553E-04  -6.713884E-06   2.660599E-03
   13 C13        -3.331454E-04  -1.502543E-04  -1.361123E-03
   14 C14        -6.650027E-04  -4.414220E-06   3.457268E-04
   15 C15         2.616065E-05   9.593675E-06  -1.588687E-04
   16 C16         2.249520E-03  -7.119263E-04   4.061786E-04
   17 C17         1.301786E-04  -3.477461E-04   1.071747E-04
   18 C18         4.454361E-04   5.448875E-04   1.413672E-04
   19 C19         3.172351E-04   1.020311E-03   6.772723E-04
   20 C20        -2.760115E-04  -1.162781E-03   4.347238E-04
   21 C21         6.235533E-04  -2.641997E-03  -4.364074E-03
   22 C22         2.350527E-04  -1.598323E-03   4.484072E-04
   23 H23         7.192658E-05  -1.573405E-04   4.977041E-05
   24 H24        -4.064979E-04  -2.897405E-04  -8.439249E-05
   25 H25         3.206634E-03  -4.172326E-03  -1.392746E-03
   26 H26         1.302506E-02   1.520472E-03   6.248965E-04
   27 H27         1.036397E-03  -9.879671E-04  -1.442802E-03
   28 H28        -5.583023E-04   5.571247E-05   1.224470E-04
   29 H29        -3.197341E-04  -6.071465E-05   1.139882E-04
   30 H30         1.297966E-04   1.301164E-04   3.008616E-04
   31 H31        -9.743486E-05   9.520643E-05   1.139899E-04
   32 H32         8.215002E-05  -2.771218E-05   8.395625E-05
   33 H33        -1.715079E-04  -9.578317E-05   9.807900E-05
   34 H34        -8.729782E-05  -4.502003E-05   4.048394E-05
   35 H35        -1.060213E-04   1.092981E-04  -5.149020E-05
   36 H36        -3.531774E-05  -1.243278E-04   5.320810E-05
   37 H37        -6.784303E-06  -1.696903E-04  -1.212772E-04
   38 H38        -3.256288E-04  -8.518975E-04  -4.958435E-04
   39 H39         7.770957E-06   1.919892E-04  -6.576009E-04
   40 H40         2.093697E-04  -1.299834E-04   3.587881E-04
   41 H41         8.033815E-04   1.162588E-03   1.566264E-04
   42 H42         1.869274E-04  -8.391181E-05   7.527912E-05
   43 H43        -2.733153E-04  -7.009364E-04  -1.000390E-03
   44 H44        -6.737719E-04   2.151650E-03   1.075134E-04
   45 H45        -2.783442E-04  -6.114399E-04  -5.716165E-04
   46 H46         4.484273E-05   2.078422E-04   6.344716E-04
   47 H47         1.112851E-04  -3.797940E-05   6.108805E-04
   48 H48        -2.525800E-05   2.813582E-04  -6.452470E-05
   49 H49        -2.737168E-05  -6.365826E-05  -5.358440E-04
   50 O93        -5.526637E-02   2.270873E-03   3.528109E-02
   51 Na94       -4.131685E-03   1.145519E-02  -3.754954E-03
   52 C95        -1.195995E-02   2.952805E-03   5.727606E-03
   53 C96         4.048551E-04  -3.918445E-04   6.806291E-04
   54 H97         8.041967E-04  -6.954013E-04  -7.656700E-04
   55 H98        -7.312065E-05  -4.051692E-04   4.877639E-04
   56 H99        -7.794054E-04  -1.913853E-04  -1.396734E-03
   57 C100       -2.079202E-03   4.807866E-03   2.304760E-03
   58 H101       -1.146799E-03  -1.955417E-03  -1.165217E-03
   59 H102        4.794155E-04   5.906290E-04   1.652173E-04
   60 H103       -1.145841E-02   5.921840E-03  -1.878264E-03
   61 C104        1.522317E-04   4.372164E-05  -8.594983E-04
   62 H105       -3.005982E-04  -8.136442E-04   7.088898E-04
   63 H106        9.186635E-04  -8.563908E-04  -6.470376E-04
   64 H107        8.800760E-04  -6.684680E-04   6.235334E-04
 -------------   -------------  -------------  -------------
     total        8.056804E-04  -1.051347E-03   5.898629E-05
   
  end of program der1b
   
 Time(der1b)  user:     140.825  user+sys:     140.825  wallclock:      13.072
  
  start of program geopt
  
 ----------------------------------------------------------------------------
  Geometry optimization step  1
  Total energy:     -1641.53946237251 hartrees
 ----------------------------------------------------------------------------
  
  
  Level shifts adjusted to satisfy step-size constraints
   Step size:    0.3007047
   Cos(theta):   0.9517662
   Final level shift:  -3.8867735E-01
  
  gradient maximum:        1.3449E-01 .  (  2.2500E-03 )
  gradient rms:            1.7813E-02 .  (  1.5000E-03 )
  displacement maximum:    1.4339E-01 .  (  9.0000E-03 )
  displacement rms:        2.0317E-02 .  (  6.0000E-03 )
  
  predicted energy change:  -5.5289E-02
  step size:     0.30066
  trust radius:  0.30000
  
  molecular structure not yet converged...
  
  center of mass moved by:
     x:     7.1179E-02     y:     1.7312E-02     z:     2.1518E-02
  
  new geometry: 
                                   angstroms
  atom               x                 y                 z
  P1            0.0170673004      0.0181011900      0.0509941250 
  Pd2           0.0712348257      0.0249279054      2.3343321036 
  C3            1.7725739084     -0.0157852990     -0.5816971489 
  C4           -0.7185142542      1.5776384360     -0.7714192354 
  C5           -0.7438582225     -1.5862655456     -0.6544187238 
  C6            2.7761924826      0.2973034323      1.7602504276 
  C7            3.2677772965      1.4559080418      2.3547264742 
  C8            3.0856678303      1.6974143119      3.7255964071 
  C9            2.3924355767      0.7835932222      4.5061317889 
  C10           1.9096412460     -0.4093043158      3.9411474235 
  C11           2.1211149926     -0.6793901296      2.5757055265 
  C12           2.8862965990      0.1211015841      0.2893913476 
  C13           4.1773423691      0.1650912185     -0.2620952938 
  C14           4.4011702658      0.0850366880     -1.6320590670 
  C15           3.3127347561     -0.0323151062     -2.4915006698 
  C16           2.0258347427     -0.0749503804     -1.9631392157 
  C17           0.3323045474      2.6827206980     -0.5697744194 
  C18          -1.0979410202      1.4876195853     -2.2528074646 
  C19          -1.9710602179      1.9536589878      0.0397438398 
  C20          -2.2455333465     -1.5499072847     -0.3351895242 
  C21          -0.0934663377     -2.7245410921      0.1505336173 
  C22          -0.5495578885     -1.9129719771     -2.1412595073 
  H23           3.7551144342      2.2025787212      1.7307641681 
  H24           3.4675366547      2.6158613834      4.1653898443 
  H25           2.2450810633      0.9620100679      5.5674050292 
  H26           1.5672281884     -1.2036645381      4.5945563209 
  H27           2.0480313324     -1.6961469299      2.1879475981 
  H28           5.0199868314      0.2643131250      0.4184655196 
  H29           5.4155863310      0.1176574727     -2.0231804204 
  H30           3.4586816179     -0.0820782658     -3.5684865143 
  H31           1.1955345426     -0.1423774392     -2.6551834233 
  H32           1.2038858750      2.5421451163     -1.2170673660 
  H33          -0.1142704537      3.6584329403     -0.8052721629 
  H34           0.6835818782      2.7109799941      0.4700069554 
  H35          -0.2456210185      1.2350728218     -2.8906244152 
  H36          -1.8960622339      0.7589415718     -2.4299821846 
  H37          -1.4724424760      2.4648889255     -2.5896921162 
  H38          -1.7259437326      2.0843543615      1.0997612837 
  H39          -2.3812982496      2.9000348213     -0.3406729599 
  H40          -2.7589937336      1.1970489912     -0.0295450337 
  H41          -2.4180993461     -1.2685142777      0.7106996087 
  H42          -2.7853861488     -0.8457861471     -0.9777238400 
  H43          -2.6817735867     -2.5448607868     -0.5019074957 
  H44          -0.2841546311     -2.6025452316      1.2233520015 
  H45          -0.5062717750     -3.6902263698     -0.1746949797 
  H46           0.9923416172     -2.7525001878     -0.0017639443 
  H47          -0.9089630031     -1.1232946699     -2.8059988429 
  H48           0.4984762522     -2.1201022064     -2.3768270737 
  H49          -1.1190723289     -2.8226474388     -2.3800160351 
  O93          -0.4941128405     -0.1981309806      4.3768573154 
  Na94         -0.5871670040     -2.3275537435      3.9683825976 
  C95          -1.3631234766      0.7854243182      4.8835681135 
  C96          -2.7610880799      0.6386862560      4.2555607276 
  H97          -3.4645922070      1.4028899792      4.6135351078 
  H98          -3.1811616839     -0.3505154190      4.4888912454 
  H99          -2.6714752125      0.7174301956      3.1650417486 
  C100         -0.8799837358      2.2139998541      4.5704320448 
  H101         -1.5480292323      2.9738079381      5.0007586298 
  H102         -0.8296047430      2.3561723614      3.4822262996 
  H103          0.1278846346      2.3686126444      4.9566115745 
  C104         -1.4688919638      0.6046954675      6.4075168404 
  H105         -1.8371062359     -0.4042675108      6.6380670291 
  H106         -2.1537379721      1.3303464912      6.8660431402 
  H107         -0.4837183848      0.7210450399      6.8738291820 
   
 
  bond lengths (angstroms):
 
 P1      -Pd2     :   2.283991      P1      -C3      :   1.866347
 P1      -C4      :   1.910393      P1      -C5      :   1.910656
 Pd2     -C11     :   2.180902      Pd2     -O93     :   2.131029
 Pd2     -Na94    :   2.939011      C3      -C12     :   1.420532
 C3      -C16     :   1.405711      C4      -C17     :   1.538209
 C4      -C18     :   1.531855      C4      -C19     :   1.538911
 C5      -C20     :   1.535662      C5      -C21     :   1.538385
 C5      -C22     :   1.534661      C6      -C7      :   1.391913
 C6      -C11     :   1.431092      C6      -C12     :   1.485462
 C7      -C8      :   1.403842      C7      -H23     :   1.088275
 C8      -C9      :   1.387399      C8      -H24     :   1.087560
 C9      -C10     :   1.405454      C9      -H25     :   1.086208
 C10     -C11     :   1.407870      C10     -H26     :   1.084066
 C11     -H27     :   1.090638      C12     -C13     :   1.404590
 C13     -C14     :   1.390435      C13     -H28     :   1.087685
 C14     -C15     :   1.391799      C14     -H29     :   1.087695
 C15     -C16     :   1.391796      C15     -H30     :   1.087968
 C16     -H31     :   1.082991      C17     -H32     :   1.094716
 C17     -H33     :   1.098591      C17     -H34     :   1.097880
 C18     -H35     :   1.094093      C18     -H36     :   1.095153
 C18     -H37     :   1.099453      C19     -H38     :   1.095810
 C19     -H39     :   1.099381      C19     -H40     :   1.094577
 C20     -H41     :   1.096743      C20     -H42     :   1.095481
 C20     -H43     :   1.099106      C21     -H44     :   1.096442
 C21     -H45     :   1.099423      C21     -H46     :   1.096793
 C22     -H47     :   1.092996      C22     -H48     :   1.093970
 C22     -H49     :   1.099482      O93     -Na94    :   2.170242
 O93     -C95     :   1.406882      C95     -C96     :   1.539555
 C95     -C100    :   1.540229      C95     -C104    :   1.538268
 C96     -H97     :   1.098668      C96     -H98     :   1.099739
 C96     -H99     :   1.097024      C100    -H101    :   1.099443
 C100    -H102    :   1.098609      C100    -H103    :   1.090339
 C104    -H105    :   1.098518      C104    -H106    :   1.098103
 C104    -H107    :   1.096153
 
  bond angles:
 
 C3      -P1      -Pd2     : 108.460425  C4      -P1      -Pd2     : 115.916645
 C4      -P1      -C3      : 103.359448  C5      -P1      -Pd2     : 112.398650
 C5      -P1      -C3      : 103.544306  C5      -P1      -C4      : 111.912888
 C11     -Pd2     -P1      :  97.583472  O93     -Pd2     -P1      : 162.099317
 O93     -Pd2     -C11     :  96.284893  Na94    -Pd2     -P1      : 123.238292
 Na94    -Pd2     -C11     :  83.715258  Na94    -Pd2     -O93     :  47.459566
 C12     -C3      -P1      : 121.858778  C16     -C3      -P1      : 120.223684
 C16     -C3      -C12     : 117.737969  C17     -C4      -P1      : 105.486167
 C18     -C4      -P1      : 117.626846  C18     -C4      -C17     : 109.767147
 C19     -C4      -P1      : 106.615334  C19     -C4      -C17     : 108.142662
 C19     -C4      -C18     : 108.813899  C20     -C5      -P1      : 107.026308
 C21     -C5      -P1      : 105.055191  C21     -C5      -C20     : 108.793993
 C22     -C5      -P1      : 119.080051  C22     -C5      -C20     : 109.283703
 C22     -C5      -C21     : 107.211317  C11     -C6      -C7      : 119.103321
 C12     -C6      -C7      : 119.699562  C12     -C6      -C11     : 121.143697
 C8      -C7      -C6      : 120.960302  H23     -C7      -C6      : 118.971923
 H23     -C7      -C8      : 119.996128  C9      -C8      -C7      : 120.058391
 H24     -C8      -C7      : 119.644733  H24     -C8      -C9      : 120.276882
 C10     -C9      -C8      : 120.300061  H25     -C9      -C8      : 120.615204
 H25     -C9      -C10     : 119.050482  C11     -C10     -C9      : 120.073279
 H26     -C10     -C9      : 119.218713  H26     -C10     -C11     : 119.435722
 C6      -C11     -Pd2     :  98.440136  C10     -C11     -Pd2     :  84.502749
 C10     -C11     -C6      : 119.371550  H27     -C11     -Pd2     : 101.463162
 H27     -C11     -C6      : 117.667209  H27     -C11     -C10     : 120.903752
 C6      -C12     -C3      : 124.090575  C13     -C12     -C3      : 118.874376
 C13     -C12     -C6      : 116.948318  C14     -C13     -C12     : 122.209196
 H28     -C13     -C12     : 117.987333  H28     -C13     -C14     : 119.803440
 C15     -C14     -C13     : 119.168387  H29     -C14     -C13     : 120.178687
 H29     -C14     -C15     : 120.652570  C16     -C15     -C14     : 119.423290
 H30     -C15     -C14     : 120.678510  H30     -C15     -C16     : 119.896079
 C15     -C16     -C3      : 122.572704  H31     -C16     -C3      : 119.503180
 H31     -C16     -C15     : 117.918360  H32     -C17     -C4      : 111.970725
 H33     -C17     -C4      : 109.406438  H33     -C17     -H32     : 108.115941
 H34     -C17     -C4      : 111.175402  H34     -C17     -H32     : 107.972520
 H34     -C17     -H33     : 108.072592  H35     -C18     -C4      : 112.604431
 H36     -C18     -C4      : 112.089984  H36     -C18     -H35     : 108.652860
 H37     -C18     -C4      : 109.174856  H37     -C18     -H35     : 106.971877
 H37     -C18     -H36     : 107.074343  H38     -C19     -C4      : 110.913986
 H39     -C19     -C4      : 109.369545  H39     -C19     -H38     : 108.392529
 H40     -C19     -C4      : 112.559054  H40     -C19     -H38     : 107.739929
 H40     -C19     -H39     : 107.728889  H41     -C20     -C5      : 110.988144
 H42     -C20     -C5      : 112.035719  H42     -C20     -H41     : 108.474635
 H43     -C20     -C5      : 109.582045  H43     -C20     -H41     : 108.328206
 H43     -C20     -H42     : 107.294337  H44     -C21     -C5      : 110.861934
 H45     -C21     -C5      : 109.656681  H45     -C21     -H44     : 108.776283
 H46     -C21     -C5      : 111.391994  H46     -C21     -H44     : 108.111997
 H46     -C21     -H45     : 107.953614  H47     -C22     -C5      : 113.190580
 H48     -C22     -C5      : 111.729298  H48     -C22     -H47     : 108.714431
 H49     -C22     -C5      : 108.719796  H49     -C22     -H47     : 107.179621
 H49     -C22     -H48     : 107.026958  Na94    -O93     -Pd2     :  86.197287
 C95     -O93     -Pd2     : 115.842532  C95     -O93     -Na94    : 136.657019
 O93     -Na94    -Pd2     :  46.343147  C96     -C95     -O93     : 110.323976
 C100    -C95     -O93     : 112.423190  C100    -C95     -C96     : 106.876114
 C104    -C95     -O93     : 108.490503  C104    -C95     -C96     : 109.298211
 C104    -C95     -C100    : 109.387293  H97     -C96     -C95     : 112.471840
 H98     -C96     -C95     : 110.244756  H98     -C96     -H97     : 108.176235
 H99     -C96     -C95     : 108.934062  H99     -C96     -H97     : 109.042660
 H99     -C96     -H98     : 107.859162  H101    -C100    -C95     : 111.765792
 H102    -C100    -C95     : 109.620834  H102    -C100    -H101    : 109.033886
 H103    -C100    -C95     : 110.454923  H103    -C100    -H101    : 108.967799
 H103    -C100    -H102    : 106.863321  H105    -C104    -C95     : 109.808518
 H106    -C104    -C95     : 112.266681  H106    -C104    -H105    : 108.075373
 H107    -C104    -C95     : 110.314962  H107    -C104    -H105    : 108.026926
 H107    -C104    -H106    : 108.224680
 
  torsional angles:
 
 P1      -Pd2     -C11     -C6      :  54.015128
 P1      -Pd2     -C11     -C10     : 172.952396
 P1      -Pd2     -C11     -H27     : -66.586305
 P1      -Pd2     -O93     -Na94    :  65.126070
 P1      -Pd2     -O93     -C95     : -75.920674
 P1      -Pd2     -Na94    -O93     :-160.524730
 P1      -C3      -C12     -C6      :   0.187665
 P1      -C3      -C12     -C13     :-176.317253
 P1      -C3      -C16     -C15     : 176.572088
 P1      -C3      -C16     -H31     :  -2.536537
 P1      -C4      -C17     -H32     :  73.305250
 P1      -C4      -C17     -H33     :-166.852739
 P1      -C4      -C17     -H34     : -47.565247
 P1      -C4      -C18     -H35     : -59.456591
 P1      -C4      -C18     -H36     :  63.422706
 P1      -C4      -C18     -H37     :-178.112495
 P1      -C4      -C19     -H38     :  55.478907
 P1      -C4      -C19     -H39     : 174.976707
 P1      -C4      -C19     -H40     : -65.315798
 P1      -C5      -C20     -H41     : -46.921494
 P1      -C5      -C20     -H42     :  74.506278
 P1      -C5      -C20     -H43     :-166.521962
 P1      -C5      -C21     -H44     :  58.020195
 P1      -C5      -C21     -H45     : 178.146003
 P1      -C5      -C21     -H46     : -62.416915
 P1      -C5      -C22     -H47     : -56.569920
 P1      -C5      -C22     -H48     :  66.556781
 P1      -C5      -C22     -H49     :-175.546517
 Pd2     -P1      -C3      -C12     :  -7.333592
 Pd2     -P1      -C3      -C16     : 177.647486
 Pd2     -P1      -C4      -C17     :  72.121479
 Pd2     -P1      -C4      -C18     :-165.119205
 Pd2     -P1      -C4      -C19     : -42.704980
 Pd2     -P1      -C5      -C20     :  70.419090
 Pd2     -P1      -C5      -C21     : -45.129804
 Pd2     -P1      -C5      -C22     :-165.143196
 Pd2     -C11     -C6      -C7      :  92.587451
 Pd2     -C11     -C6      -C12     : -84.746098
 Pd2     -C11     -C10     -C9      : -99.438934
 Pd2     -C11     -C10     -H26     :  93.541357
 Pd2     -O93     -C95     -C96     :  69.793991
 Pd2     -O93     -C95     -C100    : -49.397847
 Pd2     -O93     -C95     -C104    :-170.505193
 Pd2     -Na94    -O93     -C95     : 124.475815
 C3      -P1      -Pd2     -C11     : -17.998485
 C3      -P1      -Pd2     -O93     :-158.485422
 C3      -P1      -Pd2     -Na94    :-105.431414
 C3      -P1      -C4      -C17     : -46.384429
 C3      -P1      -C4      -C18     :  76.374887
 C3      -P1      -C4      -C19     :-161.210888
 C3      -P1      -C5      -C20     :-172.736462
 C3      -P1      -C5      -C21     :  71.714644
 C3      -P1      -C5      -C22     : -48.298748
 C3      -C12     -C6      -C7      :-118.323476
 C3      -C12     -C6      -C11     :  58.994380
 C3      -C12     -C13     -C14     :   0.287609
 C3      -C12     -C13     -H28     :-179.648198
 C3      -C16     -C15     -C14     :  -0.575418
 C3      -C16     -C15     -H30     : 179.950742
 C4      -P1      -Pd2     -C11     :-133.659707
 C4      -P1      -Pd2     -O93     :  85.853356
 C4      -P1      -Pd2     -Na94    : 138.907364
 C4      -P1      -C3      -C12     : 116.230406
 C4      -P1      -C3      -C16     : -58.788516
 C4      -P1      -C5      -C20     : -62.060632
 C4      -P1      -C5      -C21     :-177.609527
 C4      -P1      -C5      -C22     :  62.377082
 C5      -P1      -Pd2     -C11     :  95.869725
 C5      -P1      -Pd2     -O93     : -44.617212
 C5      -P1      -Pd2     -Na94    :   8.436796
 C5      -P1      -C3      -C12     :-126.913030
 C5      -P1      -C3      -C16     :  58.068048
 C5      -P1      -C4      -C17     :-157.177063
 C5      -P1      -C4      -C18     : -34.417747
 C5      -P1      -C4      -C19     :  87.996479
 C6      -C7      -C8      -C9      :  -0.837914
 C6      -C7      -C8      -H24     :-179.216071
 C6      -C11     -Pd2     -O93     :-137.331646
 C6      -C11     -Pd2     -Na94    : 176.810455
 C6      -C11     -C10     -C9      :  -2.833105
 C6      -C11     -C10     -H26     :-169.852814
 C6      -C12     -C3      -C16     : 175.325163
 C6      -C12     -C13     -C14     :-176.465628
 C6      -C12     -C13     -H28     :   3.598565
 C7      -C6      -C11     -C10     :   4.170137
 C7      -C6      -C11     -H27     :-159.675638
 C7      -C6      -C12     -C13     :  58.243211
 C7      -C8      -C9      -C10     :   2.231629
 C7      -C8      -C9      -H25     :-179.917241
 C8      -C7      -C6      -C11     :  -2.363041
 C8      -C7      -C6      -C12     : 175.009713
 C8      -C9      -C10     -C11     :  -0.365801
 C8      -C9      -C10     -H26     : 166.681979
 C9      -C8      -C7      -H23     : 176.052331
 C9      -C10     -C11     -H27     : 160.477544
 C10     -C9      -C8      -H24     :-179.400565
 C10     -C11     -Pd2     -O93     : -18.394378
 C10     -C11     -Pd2     -Na94    : -64.252278
 C10     -C11     -C6      -C12     :-173.163412
 C11     -Pd2     -O93     -Na94    : -75.490821
 C11     -Pd2     -O93     -C95     : 143.462435
 C11     -Pd2     -Na94    -O93     : 104.509244
 C11     -C6      -C7      -H23     :-179.284589
 C11     -C6      -C12     -C13     :-124.438933
 C11     -C10     -C9      -H25     :-178.250341
 C12     -C3      -C16     -C15     :   1.351587
 C12     -C3      -C16     -H31     :-177.757038
 C12     -C6      -C7      -H23     :  -1.911835
 C12     -C6      -C11     -H27     :  22.990813
 C12     -C13     -C14     -C15     :   0.509655
 C12     -C13     -C14     -H29     :-179.705943
 C13     -C12     -C3      -C16     :  -1.179754
 C13     -C14     -C15     -C16     :  -0.373173
 C13     -C14     -C15     -H30     : 179.096454
 C14     -C15     -C16     -H31     : 178.546612
 C15     -C14     -C13     -H28     :-179.555671
 C16     -C15     -C14     -H29     : 179.843475
 C17     -C4      -C18     -H35     :  61.095821
 C17     -C4      -C18     -H36     :-176.024882
 C17     -C4      -C18     -H37     : -57.560083
 C17     -C4      -C19     -H38     : -57.537653
 C17     -C4      -C19     -H39     :  61.960147
 C17     -C4      -C19     -H40     :-178.332357
 C18     -C4      -C17     -H32     : -54.347870
 C18     -C4      -C17     -H33     :  65.494141
 C18     -C4      -C17     -H34     :-175.218367
 C18     -C4      -C19     -H38     :-176.721814
 C18     -C4      -C19     -H39     : -57.224015
 C18     -C4      -C19     -H40     :  62.483481
 C19     -C4      -C17     -H32     :-172.927170
 C19     -C4      -C17     -H33     : -53.085158
 C19     -C4      -C17     -H34     :  66.202333
 C19     -C4      -C18     -H35     : 179.259774
 C19     -C4      -C18     -H36     : -57.860929
 C19     -C4      -C18     -H37     :  60.603870
 C20     -C5      -C21     -H44     : -56.299841
 C20     -C5      -C21     -H45     :  63.825967
 C20     -C5      -C21     -H46     :-176.736951
 C20     -C5      -C22     -H47     :  66.765551
 C20     -C5      -C22     -H48     :-170.107748
 C20     -C5      -C22     -H49     : -52.211047
 C21     -C5      -C20     -H41     :  66.105817
 C21     -C5      -C20     -H42     :-172.466410
 C21     -C5      -C20     -H43     : -53.494650
 C21     -C5      -C22     -H47     :-175.479107
 C21     -C5      -C22     -H48     : -52.352406
 C21     -C5      -C22     -H49     :  65.544295
 C22     -C5      -C20     -H41     :-177.137237
 C22     -C5      -C20     -H42     : -55.709464
 C22     -C5      -C20     -H43     :  63.262296
 C22     -C5      -C21     -H44     :-174.374156
 C22     -C5      -C21     -H45     : -54.248348
 C22     -C5      -C21     -H46     :  65.188735
 H23     -C7      -C8      -H24     :  -2.325826
 H24     -C8      -C9      -H25     :  -1.549435
 H25     -C9      -C10     -H26     : -11.202561
 H26     -C10     -C11     -H27     :  -6.542165
 H27     -C11     -Pd2     -O93     : 102.066922
 H27     -C11     -Pd2     -Na94    :  56.209022
 H28     -C13     -C14     -H29     :   0.228731
 H29     -C14     -C15     -H30     :  -0.686899
 H30     -C15     -C16     -H31     :  -0.927228
 O93     -C95     -C96     -H97     :-178.935521
 O93     -C95     -C96     -H98     :  60.243511
 O93     -C95     -C96     -H99     : -57.926411
 O93     -C95     -C100    -H101    :-178.034893
 O93     -C95     -C100    -H102    :  60.957616
 O93     -C95     -C100    -H103    : -56.536986
 O93     -C95     -C104    -H105    : -58.443784
 O93     -C95     -C104    -H106    :-178.697777
 O93     -C95     -C104    -H107    :  60.508984
 Na94    -Pd2     -O93     -C95     :-141.046744
 Na94    -O93     -C95     -C96     : -44.149055
 Na94    -O93     -C95     -C100    :-163.340893
 Na94    -O93     -C95     -C104    :  75.551761
 C96     -C95     -C100    -H101    :  60.778354
 C96     -C95     -C100    -H102    : -60.229138
 C96     -C95     -C100    -H103    :-177.723740
 C96     -C95     -C104    -H105    :  61.896543
 C96     -C95     -C104    -H106    : -58.357450
 C96     -C95     -C104    -H107    :-179.150689
 H97     -C96     -C95     -C100    : -56.426122
 H97     -C96     -C95     -C104    :  61.853170
 H98     -C96     -C95     -C100    :-177.247089
 H98     -C96     -C95     -C104    : -58.967797
 H99     -C96     -C95     -C100    :  64.582989
 H99     -C96     -C95     -C104    :-177.137719
 C100    -C95     -C104    -H105    : 178.595284
 C100    -C95     -C104    -H106    :  58.341291
 C100    -C95     -C104    -H107    : -62.451947
 H101    -C100    -C95     -C104    : -57.442742
 H102    -C100    -C95     -C104    :-178.450233
 H103    -C100    -C95     -C104    :  64.055165
 
  nuclear repulsion energy.......          3526.197245955 hartrees
 -------------------------------------------------
   end of geometry optimization iteration  1
 -------------------------------------------------
   
  end of program geopt
   
 Time(geopt)  user:       1.536  user+sys:       1.536  wallclock:       0.568
  
  start of program onee
  
  smallest eigenvalue of S:    4.360E-04
  number of canonical orbitals.....          487
  end of program onee
   
 Time(onee)  user:       4.150  user+sys:       4.150  wallclock:       0.874
  
  start of program probe
  
  end of program probe
   
 Time(probe)  user:       0.742  user+sys:       0.742  wallclock:       0.254
  
  start of program grid
  
  end of program grid
   
 Time(grid)  user:     199.940  user+sys:     199.940  wallclock:      14.401
  
  start of program rwr
  
  end of program rwr
   
 Time(rwr)  user:      58.895  user+sys:      58.895  wallclock:      10.152
  
  start of program scf
  
 Energy computed using pseudospectral method.
 Convergence Criterion:
    Energy (econv):       1.00E-05
    RMS density (dconv):  5.00E-06
  
       i  u  d  i  g                   
       t  p  i  c  r                                 RMS    maximum
       e  d  i  u  i                       energy  density   DIIS  
       r  t  s  t  d       total energy    change  change    error 
  
etot    1  N  N  2  U   -1641.42137167568           5.7E-04  1.3E-02
etot    2  Y  Y  6  M   -1641.46476163830  4.3E-02  1.7E-04  1.5E-03
etot    3  N  Y  2  U   -1641.46461781294 -1.4E-04  1.0E-04  3.3E-03
etot    4  Y  Y  6  M   -1641.46616051914  1.5E-03  3.6E-05  1.1E-03
etot    5  N  Y  2  U   -1641.46644225940  2.8E-04  1.5E-05  2.7E-04
etot    6  N  Y  2  U   -1641.46646581303  2.4E-05  7.0E-06  7.1E-05
etot    7  N  Y  2  U   -1641.46646852091  2.7E-06  2.8E-06  4.1E-05
etot    8  N  N  2  U   -1641.46646900820  4.9E-07  0.0E+00  0.0E+00
 
  Computing the dispersion energy correction and its gradients...
  
  
 Energy components, in hartrees:
   (A)  Nuclear repulsion............    3526.19724595541
   (E)  Total one-electron terms.....   -9321.50993198189
   (F)    Electron-nuclear...........  -10874.38439894271
   (H)    Kinetic....................    1552.87446696082
   (I)  Total two-electron terms.....    4153.84621701827
   (J)    Coulomb....................    4356.47911697160
   (K)    Exchange+Correlation.......    -202.63289995333
   (L)  Electronic energy............   -5167.66371496361  (E+I)
   (N0) D3 correction................      -0.11407558799
   (N)  Total energy.................   -1641.58054459619  (A+L+N0)
   (O)  Gas phase energy.............   -1641.58054459619
  
 SCFE: SCF energy: DFT(b3pw91-d3)     -1641.58054459619 hartrees   iterations:   8
  
 
 HOMO energy:    -0.12205
 LUMO energy:    -0.05161
 
  Orbital energies (hartrees): 
   -77.04460   -38.48839   -19.03819   -10.18902   -10.18030   -10.17730
   -10.17725   -10.17269   -10.16782   -10.16693   -10.16598   -10.16254
   -10.16249   -10.16060   -10.15786   -10.15571   -10.15414   -10.15301
   -10.15146   -10.14235   -10.14141   -10.14038   -10.13994   -10.13926
   -10.12224   -10.11730   -10.11095    -6.54386    -4.70205    -4.70170
    -4.69814    -3.25187    -2.25034    -1.98168    -1.97430    -1.96796
    -1.17944    -1.17833    -1.17579    -0.91014    -0.85840    -0.83043
    -0.81958    -0.80099    -0.76376    -0.74413    -0.73507    -0.72581
    -0.70512    -0.69138    -0.68881    -0.67988    -0.67154    -0.65711
    -0.64987    -0.63693    -0.60759    -0.59295    -0.57838    -0.56070
    -0.54464    -0.52294    -0.50081    -0.49784    -0.48113    -0.45909
    -0.45575    -0.45220    -0.44345    -0.44243    -0.43447    -0.42730
    -0.42440    -0.42258    -0.41716    -0.41212    -0.41056    -0.40851
    -0.40456    -0.40316    -0.39443    -0.38808    -0.37953    -0.37299
    -0.37148    -0.36542    -0.36492    -0.36272    -0.35739    -0.35613
    -0.35218    -0.34580    -0.33866    -0.33534    -0.33063    -0.32807
    -0.32303    -0.32045    -0.31925    -0.31403    -0.30695    -0.30298
    -0.29466    -0.28643    -0.27774    -0.26168    -0.25817    -0.24401
    -0.23521    -0.22187    -0.19953    -0.18849    -0.18426    -0.17650
    -0.15867    -0.12205    -0.05161    -0.01432    -0.00853     0.00706
     0.01235     0.02112     0.03011     0.03637     0.04862     0.06550
 
  end of program scf
   
 Time(scf)  user:     349.131  user+sys:     349.131  wallclock:      34.525
  
  start of program der1a
  
  end of program der1a
   
 Time(der1a)  user:      10.842  user+sys:      10.842  wallclock:       1.202
  
  start of program rwr
  
  end of program rwr
   
 Time(rwr)  user:      26.964  user+sys:      26.964  wallclock:      11.023
  
  start of program der1b
  
   
  forces (hartrees/bohr) : total     
   
 atom  label           x              y              z
 ---- --------   -------------  -------------  -------------
    1 P1          7.660017E-03  -1.327991E-04   1.125801E-02
    2 Pd2        -1.373760E-02  -2.755881E-03  -2.550046E-02
    3 C3         -9.076788E-04  -6.897301E-05  -5.142184E-03
    4 C4         -1.255318E-03  -8.118432E-05   9.883748E-06
    5 C5         -1.253520E-03   4.344490E-04   8.067178E-04
[...]
    C7       Z     0.00037  -0.02481  -0.00059  -0.00030   0.00899  -0.00005
    C8       X    -0.00043   0.00436  -0.00213   0.00024   0.02037  -0.00005
    C8       Y     0.00108  -0.01322   0.00551  -0.00072  -0.05691   0.00015
    C8       Z     0.00142  -0.00797   0.00650  -0.00062  -0.05267   0.00015
    C9       X     0.00015   0.00016   0.00092  -0.00005  -0.00041  -0.00000
    C9       Y     0.00139   0.00236   0.00231   0.00000   0.00607  -0.00002
    C9       Z    -0.00749  -0.01168  -0.02241   0.00081  -0.01669   0.00008
    C10      X    -0.00167  -0.00064  -0.01164   0.00057  -0.00134   0.00003
    C10      Y     0.00612   0.00225   0.04439  -0.00224   0.00476  -0.00009
    C10      Z    -0.00173  -0.00006  -0.01647   0.00085  -0.00048   0.00003
    C11      X     0.00110   0.00085  -0.01784   0.00110  -0.00090   0.00004
    C11      Y    -0.00307  -0.00250   0.04466  -0.00287   0.00228  -0.00014
    C11      Z    -0.00259  -0.00135   0.04446  -0.00287   0.00220  -0.00014
    C12      X    -0.00158  -0.00003  -0.00016  -0.00164   0.00002   0.00052
    C12      Y    -0.00023   0.00021   0.00018  -0.00015  -0.00011  -0.00011
    C12      Z     0.00126   0.00007   0.00009   0.00089   0.00003   0.00042
    C13      X     0.04600  -0.00002   0.00016   0.02896  -0.00013   0.00107
    C13      Y    -0.00969  -0.00008  -0.00011  -0.00706   0.00005  -0.00029
    C13      Z     0.03880   0.00018   0.00022   0.02853  -0.00023   0.00115
    C14      X    -0.01131  -0.00071   0.00445   0.06414  -0.00029   0.00268
    C14      Y     0.00029  -0.00002   0.00022   0.00388  -0.00002  -0.00008
    C14      Z    -0.00037   0.00016  -0.00138  -0.02143   0.00012   0.00010
    C15      X    -0.00924  -0.00012   0.00040   0.00278   0.00001   0.00460
    C15      Y    -0.01190  -0.00020   0.00072   0.00736  -0.00001   0.00286
    C15      Z     0.05207   0.00088  -0.00309  -0.03197   0.00003  -0.01266
    C16      X    -0.00295  -0.00001   0.00007   0.00336  -0.00022  -0.06079
    C16      Y     0.00114   0.00003  -0.00008  -0.00108   0.00004   0.01164
    C16      Z    -0.00524  -0.00008   0.00032   0.00500  -0.00017  -0.05242
    C17      X     0.00013   0.00005   0.00003  -0.00014   0.00004   0.00062
    C17      Y    -0.00003  -0.00002  -0.00001   0.00007  -0.00002  -0.00006
    C17      Z    -0.00009   0.00021   0.00004   0.00006  -0.00005  -0.00046
    C18      X     0.00113  -0.00002  -0.00006  -0.00087   0.00006   0.00291
    C18      Y     0.00004  -0.00004   0.00003   0.00002  -0.00000  -0.00013
    C18      Z    -0.00060   0.00002   0.00005   0.00046  -0.00003  -0.00217
    C19      X    -0.00001  -0.00006   0.00001  -0.00002   0.00002  -0.00009
    C19      Y    -0.00002  -0.00016  -0.00002   0.00002   0.00003  -0.00006
    C19      Z    -0.00001  -0.00004   0.00003   0.00002   0.00000  -0.00026
    C20      X     0.00001   0.00001  -0.00002  -0.00003   0.00001  -0.00000
    C20      Y    -0.00001   0.00003   0.00008  -0.00002  -0.00002  -0.00003
    C20      Z     0.00003   0.00008  -0.00002  -0.00002  -0.00003  -0.00009
    C21      X     0.00019  -0.00010  -0.00140   0.00006   0.00004   0.00001
    C21      Y     0.00008  -0.00003  -0.00044  -0.00001   0.00002  -0.00006
    C21      Z    -0.00002  -0.00003   0.00033  -0.00001   0.00001  -0.00008
    C22      X     0.00025  -0.00003  -0.00022  -0.00012   0.00005   0.00116
    C22      Y    -0.00001  -0.00002   0.00012  -0.00014   0.00001   0.00033
    C22      Z     0.00004   0.00002  -0.00009   0.00003   0.00001  -0.00014
    H23      X    -0.00402   0.19277  -0.00018   0.00174  -0.04474   0.00017
    H23      Y     0.01817  -0.85543   0.00051  -0.00730   0.19967  -0.00084
    H23      Z    -0.00609   0.28865   0.00070   0.00252  -0.07173   0.00034
    H24      X     0.00613  -0.05217   0.02801  -0.00301  -0.23747   0.00064
    H24      Y    -0.01628   0.14238  -0.07446   0.00818   0.64316  -0.00172
    H24      Z    -0.01564   0.12565  -0.07106   0.00748   0.59459  -0.00163
    H25      X    -0.00104  -0.00152  -0.00365   0.00018  -0.00137   0.00000
    H25      Y    -0.01721  -0.02692  -0.04673   0.00162  -0.03997   0.00019
    H25      Z     0.08397   0.12954   0.23975  -0.00857   0.17371  -0.00087
    H26      X     0.01820   0.00605   0.13124  -0.00666   0.01235  -0.00027
    H26      Y    -0.06775  -0.02179  -0.48967   0.02477  -0.04541   0.00106
    H26      Z     0.02227   0.00643   0.16783  -0.00864   0.01380  -0.00040
    H27      X    -0.01306  -0.00876   0.20147  -0.01258   0.00957  -0.00054
    H27      Y     0.03514   0.02277  -0.51429   0.03310  -0.02418   0.00134
    H27      Z     0.03243   0.02029  -0.48966   0.03141  -0.02325   0.00129
    H28      X    -0.52515  -0.00046  -0.00162  -0.33642   0.00151  -0.01162
    H28      Y     0.11239   0.00023   0.00103   0.07331  -0.00040   0.00260
    H28      Z    -0.45090  -0.00056  -0.00166  -0.29443   0.00151  -0.01029
    H29      X     0.11671   0.00752  -0.04909  -0.71122   0.00333  -0.02275
    H29      Y     0.00560   0.00046  -0.00290  -0.04245   0.00022  -0.00108
    H29      Z    -0.03273  -0.00232   0.01589   0.23431  -0.00119   0.00615
    H30      X     0.10644   0.00172  -0.00578  -0.05758   0.00003  -0.02635
    H30      Y     0.13508   0.00217  -0.00762  -0.07805   0.00011  -0.02909
    H30      Z    -0.59207  -0.00965   0.03358   0.34183  -0.00048   0.12818
    H31      X     0.05852   0.00093  -0.00296  -0.05736   0.00233   0.70714
    H31      Y    -0.01207  -0.00024   0.00069   0.01179  -0.00041  -0.13679
    H31      Z     0.05398   0.00103  -0.00301  -0.05237   0.00186   0.60817
    H32      X    -0.00137   0.00045  -0.00005   0.00106  -0.00047  -0.00637
    H32      Y    -0.00025  -0.00001   0.00002   0.00031  -0.00004  -0.00115
    H32      Z     0.00088  -0.00017   0.00006  -0.00070   0.00034   0.00363
    H33      X    -0.00047  -0.00044  -0.00011   0.00077  -0.00022  -0.00118
    H33      Y     0.00057   0.00064   0.00011  -0.00096   0.00025   0.00121
    H33      Z    -0.00017  -0.00021  -0.00006   0.00032  -0.00012  -0.00030
    H34      X     0.00008  -0.00061  -0.00007  -0.00004   0.00016  -0.00001
    H34      Y     0.00003  -0.00039  -0.00008   0.00001   0.00001   0.00028
    H34      Z     0.00036  -0.00222  -0.00039  -0.00031   0.00032   0.00226
    H35      X    -0.01249   0.00019   0.00083   0.00978  -0.00058  -0.05085
    H35      Y     0.00218  -0.00005  -0.00012  -0.00170   0.00009   0.00925
    H35      Z     0.00836  -0.00015  -0.00056  -0.00653   0.00043   0.02865
    H36      X    -0.00249   0.00026  -0.00013   0.00171  -0.00016  -0.00293
    H36      Y    -0.00367   0.00031  -0.00009   0.00256  -0.00023  -0.00657
    H36      Z    -0.00066   0.00008  -0.00001   0.00045  -0.00004  -0.00180
    H37      X    -0.00062  -0.00026   0.00005   0.00073  -0.00009  -0.00011
    H37      Y     0.00150   0.00039  -0.00012  -0.00152   0.00016   0.00284
    H37      Z    -0.00072  -0.00021   0.00003   0.00069  -0.00007  -0.00189
    H38      X     0.00007   0.00010  -0.00002  -0.00009   0.00002   0.00072
    H38      Y    -0.00002   0.00002  -0.00012  -0.00001  -0.00003   0.00056
    H38      Z     0.00012   0.00066  -0.00024  -0.00023  -0.00008   0.00225
    H39      X    -0.00007  -0.00031  -0.00015   0.00039  -0.00009   0.00023
    H39      Y     0.00012   0.00047   0.00024  -0.00050   0.00009  -0.00031
    H39      Z    -0.00007  -0.00030  -0.00017   0.00024  -0.00006   0.00030
    H40      X     0.00003   0.00100   0.00006   0.00006  -0.00025  -0.00028
    H40      Y     0.00007   0.00137   0.00008   0.00011  -0.00034  -0.00014
    H40      Z     0.00004   0.00012   0.00003  -0.00002  -0.00001   0.00005
    H41      X     0.00003   0.00032   0.00008  -0.00003  -0.00012  -0.00057
    H41      Y    -0.00000  -0.00003   0.00007  -0.00002   0.00006   0.00024
    H41      Z    -0.00006  -0.00055  -0.00009   0.00003   0.00035   0.00145
    H42      X    -0.00029  -0.00023   0.00073   0.00011  -0.00007   0.00016
    H42      Y     0.00025   0.00025  -0.00055  -0.00016   0.00005  -0.00018
    H42      Z    -0.00028  -0.00032   0.00059   0.00015  -0.00004   0.00011
    H43      X     0.00004  -0.00010  -0.00020   0.00019  -0.00002   0.00031
    H43      Y     0.00004  -0.00067  -0.00076   0.00064   0.00005   0.00079
    H43      Z     0.00000  -0.00022  -0.00019   0.00013   0.00003   0.00013
    H44      X     0.00011  -0.00030  -0.00077   0.00007   0.00012  -0.00019
    H44      Y     0.00002   0.00018  -0.00002  -0.00005  -0.00004   0.00002
    H44      Z    -0.00006   0.00057  -0.00074  -0.00017  -0.00006   0.00114
    H45      X    -0.00016   0.00007   0.00087   0.00016  -0.00009   0.00027
    H45      Y    -0.00064   0.00009   0.00309   0.00046  -0.00019   0.00079
    H45      Z    -0.00020   0.00002   0.00086   0.00009  -0.00005   0.00019
    H46      X    -0.00229   0.00130   0.01740  -0.00102  -0.00042  -0.00038
    H46      Y    -0.00032   0.00010   0.00184  -0.00026  -0.00001  -0.00014
    H46      Z     0.00048  -0.00040  -0.00369   0.00023   0.00017  -0.00006
    H47      X    -0.00066  -0.00007   0.00134  -0.00045  -0.00010   0.00102
    H47      Y     0.00088   0.00009  -0.00149   0.00033   0.00013  -0.00044
    H47      Z    -0.00084  -0.00007   0.00162  -0.00043  -0.00014   0.00038
    H48      X    -0.00235   0.00042   0.00153   0.00148  -0.00046  -0.01379
    H48      Y    -0.00012   0.00006   0.00033  -0.00014  -0.00002  -0.00064
    H48      Z     0.00051  -0.00010  -0.00037  -0.00032   0.00011   0.00210
    H49      X    -0.00023  -0.00003  -0.00018   0.00049  -0.00006  -0.00160
    H49      Y    -0.00077  -0.00017  -0.00051   0.00159  -0.00019  -0.00401
    H49      Z    -0.00008  -0.00014  -0.00023   0.00029   0.00000  -0.00028
    O93      X    -0.00001   0.00003  -0.00004   0.00001   0.00013   0.00000
    O93      Y     0.00000  -0.00001  -0.00001  -0.00001   0.00006  -0.00002
    O93      Z     0.00000   0.00010   0.00001  -0.00002   0.00008  -0.00002
    Na94     X     0.00000  -0.00002   0.00000  -0.00000   0.00002  -0.00000
    Na94     Y     0.00000   0.00001   0.00002  -0.00001  -0.00001  -0.00001
    Na94     Z    -0.00000  -0.00003  -0.00001   0.00001  -0.00001   0.00000
    C95      X     0.00001  -0.00001   0.00003  -0.00001  -0.00010  -0.00001
    C95      Y    -0.00001   0.00003  -0.00002   0.00002   0.00005   0.00003
    C95      Z    -0.00000  -0.00004  -0.00001   0.00001   0.00003   0.00001
    C96      X     0.00001   0.00000   0.00002  -0.00001  -0.00002  -0.00000
    C96      Y    -0.00000  -0.00002   0.00000   0.00002   0.00002   0.00001
    C96      Z    -0.00002  -0.00003  -0.00003   0.00004   0.00001   0.00002
    H97      X    -0.00006  -0.00004  -0.00013   0.00014   0.00030   0.00010
    H97      Y     0.00016   0.00019   0.00033  -0.00033  -0.00069  -0.00024
    H97      Z     0.00006   0.00010   0.00013  -0.00013  -0.00026  -0.00010
    H98      X    -0.00007  -0.00007  -0.00025   0.00006   0.00019   0.00001
    H98      Y    -0.00010  -0.00006  -0.00035   0.00011   0.00031   0.00004
    H98      Z     0.00005  -0.00003   0.00020  -0.00006  -0.00013  -0.00002
    H99      X     0.00003   0.00010   0.00004  -0.00007   0.00004  -0.00005
    H99      Y    -0.00000  -0.00005  -0.00001   0.00001   0.00003   0.00001
    H99      Z     0.00010   0.00042   0.00009  -0.00026   0.00019  -0.00013
    C100     X     0.00011  -0.00030   0.00037  -0.00004  -0.00115  -0.00002
    C100     Y    -0.00004   0.00003  -0.00010   0.00004   0.00020   0.00002
    C100     Z     0.00002  -0.00013   0.00008   0.00003  -0.00027   0.00001
    H101     X    -0.00014  -0.00019  -0.00042   0.00018   0.00096   0.00010
    H101     Y     0.00039  -0.00012   0.00102  -0.00051  -0.00229  -0.00030
    H101     Z     0.00018   0.00001   0.00046  -0.00024  -0.00101  -0.00014
    H102     X    -0.00003   0.00036  -0.00009  -0.00007   0.00016   0.00000
    H102     Y    -0.00002  -0.00003  -0.00003   0.00004   0.00004   0.00005
    H102     Z    -0.00022   0.00184  -0.00079  -0.00023   0.00227  -0.00002
    H103     X    -0.00124   0.00369  -0.00417   0.00037   0.01470   0.00010
    H103     Y     0.00010  -0.00055   0.00028  -0.00000  -0.00134   0.00002
    H103     Z    -0.00020   0.00032  -0.00074   0.00008   0.00293   0.00002
    C104     X     0.00005  -0.00030   0.00016  -0.00003  -0.00049  -0.00001
    C104     Y     0.00000   0.00007   0.00000   0.00002   0.00008   0.00001
    C104     Z    -0.00001  -0.00001  -0.00003   0.00001   0.00001   0.00001
    H105     X    -0.00013   0.00004  -0.00045   0.00005   0.00024   0.00001
    H105     Y    -0.00021   0.00020  -0.00071   0.00011   0.00082   0.00003
    H105     Z     0.00012  -0.00011   0.00041  -0.00005  -0.00044   0.00000
    H106     X    -0.00004   0.00031  -0.00016   0.00013   0.00053   0.00008
    H106     Y     0.00015  -0.00077   0.00049  -0.00039  -0.00147  -0.00024
    H106     Z     0.00008  -0.00031   0.00024  -0.00020  -0.00063  -0.00014
    H107     X    -0.00040   0.00333  -0.00144   0.00020   0.00567   0.00007
    H107     Y     0.00005  -0.00021   0.00015  -0.00001  -0.00032   0.00000
    H107     Z    -0.00008   0.00052  -0.00028   0.00005   0.00070   0.00003
  
  Number of imaginary frequencies:   1
   
  Writing vibrational animation data to L1_NaOtBu_PL139.vib
  Writing IR vibrational spectrum data to L1_NaOtBu_PL139_vib.spm
  rotational symmetry number:  1

  rotational temperatures (K):      0.009791      0.006414      0.005254
   
  The Quasi-Harmonic approximation will be applied to compute
  vibrational constributions to thermodynamic properties.
  Frequencies will be adjusted to a minimum value of  100.00 cm^-1.

    1 vibrational frequencies below    0.0 cm-1 not included in zero-point
  energy or thermochemical analysis.  Set freqcut to change the frequency
  cutoff value.

  vibrational temperatures:
       mode:      2        3        4        5        6        7
  temp. (K):   143.88   143.88   143.88   143.88   143.88   143.88
   
       mode:      8        9       10       11       12       13
  temp. (K):   143.88   143.88   143.88   143.88   148.62   157.52
   
       mode:     14       15       16       17       18       19
  temp. (K):   161.01   172.47   218.71   225.69   235.49   258.42
   
       mode:     20       21       22       23       24       25
  temp. (K):   298.44   327.55   336.88   348.39   351.61   354.99
   
       mode:     26       27       28       29       30       31
  temp. (K):   365.33   372.60   384.65   391.60   411.31   435.10
   
       mode:     32       33       34       35       36       37
  temp. (K):   440.69   447.09   456.07   459.15   475.34   482.77
   
       mode:     38       39       40       41       42       43
  temp. (K):   488.80   514.22   514.46   554.77   562.74   579.59
   
       mode:     44       45       46       47       48       49
  temp. (K):   583.34   592.86   601.86   630.64   670.60   686.18
   
       mode:     50       51       52       53       54       55
  temp. (K):   696.75   731.17   756.54   775.06   794.56   812.01
   
       mode:     56       57       58       59       60       61
  temp. (K):   846.94   873.39   903.56   905.52   991.96  1031.60
   
       mode:     62       63       64       65       66       67
  temp. (K):  1094.46  1103.30  1105.74  1109.43  1140.02  1196.65
   
       mode:     68       69       70       71       72       73
  temp. (K):  1199.10  1221.55  1293.09  1297.68  1305.15  1322.16
   
       mode:     74       75       76       77       78       79
  temp. (K):  1369.40  1376.54  1377.96  1382.72  1387.57  1392.21
   
       mode:     80       81       82       83       84       85
  temp. (K):  1406.34  1410.03  1413.55  1430.61  1455.98  1458.19
   
       mode:     86       87       88       89       90       91
  temp. (K):  1465.15  1480.29  1503.56  1511.38  1512.88  1513.57
   
       mode:     92       93       94       95       96       97
  temp. (K):  1514.39  1521.58  1534.33  1544.81  1599.46  1601.72
   
       mode:     98       99      100      101      102      103
  temp. (K):  1673.22  1726.51  1737.08  1744.44  1753.15  1754.64
   
       mode:    104      105      106      107      108      109
  temp. (K):  1768.32  1774.85  1795.13  1797.85  1799.09  1800.60
   
       mode:    110      111      112      113      114      115
  temp. (K):  1812.83  1854.71  1885.38  1929.81  1942.86  1980.59
   
       mode:    116      117      118      119      120      121
  temp. (K):  2015.78  2018.66  2027.90  2038.88  2043.53  2050.23
   
       mode:    122      123      124      125      126      127
  temp. (K):  2054.36  2081.69  2096.06  2118.46  2135.70  2145.33
   
       mode:    128      129      130      131      132      133
  temp. (K):  2147.01  2154.11  2160.85  2165.69  2168.21  2173.24
   
       mode:    134      135      136      137      138      139
  temp. (K):  2175.05  2175.70  2182.00  2185.49  2188.33  2189.46
   
       mode:    140      141      142      143      144      145
  temp. (K):  2200.36  2208.04  2212.49  2216.03  2224.67  2226.50
   
       mode:    146      147      148      149      150      151
  temp. (K):  2230.75  2337.05  2360.10  2383.41  2395.81  4333.24
   
       mode:    152      153      154      155      156      157
  temp. (K):  4340.79  4348.96  4354.23  4359.17  4359.92  4367.83
   
       mode:    158      159      160      161      162      163
  temp. (K):  4376.71  4381.20  4433.00  4444.60  4460.16  4464.89
   
       mode:    164      165      166      167      168      169
  temp. (K):  4466.27  4467.98  4470.16  4473.82  4479.41  4482.18
   
       mode:    170      171      172      173      174      175
  temp. (K):  4495.00  4498.36  4502.33  4508.50  4520.68  4525.31
   
       mode:    176      177      178      179      180      181
  temp. (K):  4539.24  4571.56  4572.63  4583.12  4594.33  4597.83
   
       mode:    182      183      184      185      186
  temp. (K):  4608.94  4614.36  4620.94  4657.84  4684.03
   
   
  Thermodynamic properties calculated assuming an ideal gas

  In the table below, the units for temperature
  are kelvins, the units for U, H, and G are
  kcal/mol and the units for Cv and S are cal/(mol K)

  The zero point energy (ZPE):    344.567 kcal/mol
  is not included in U, H, or G in the table below
  
 
  =============================================================================
  Thermodynamic properties for P = 1.00E+00 atm, calculated at   1 temperatures


  T =   298.15 K, P = 1.00E+00 atm
   
                  U         Cv          S          H          G        ln(Q)
              =========  =========  =========  =========  =========  =========
  trans.          0.889      2.981     44.516      1.481    -11.791   19.90147
  rot.            0.889      2.981     35.930      0.889     -9.824   16.58089
  vib.           18.013    117.597    108.847     18.013    -14.440   24.37155
  elec.           0.000      0.000      0.000      0.000      0.000    0.00000
  ----------------------------------------------------------------------------
  total          19.790    123.559    189.293     20.383    -36.055   60.85390
   
   Total internal energy, Utot(SCFE + ZPE + U):   -1641.055610 hartrees
   Total enthalpy, Htot (Utot + nRT), with n=1:   -1641.054666 hartrees
    Total Gibbs free energy, Gtot (Htot - T*S):   -1641.144605 hartrees
   
  end of program freq
   
 Time(freq)  user:       0.737  user+sys:       0.737  wallclock:       0.494
  
  start of program post
  
  Writing input files for PBF
  end of program post
   
 Time(post)  user:       0.246  user+sys:       0.246  wallclock:       0.100

 Total cpu seconds     user:   81106.525   user+sys:   81106.525
  
 Total elapsed time:    10303 seconds

Job L1_NaOtBu_PL139 completed on bp1-compute190 at Fri Nov 28 14:51:49 2025
