Job L1_PL139 started on bp1-compute082.data.bp.acrc.priv at Fri Mar 28 17:59:52 2025
jobid: bp1-compute082-0-67e6e394

  +--------------------------------------------------------------------+
  |  Jaguar version 12.5, release 138                                  |
  |                                                                    |
  |  Copyright Schrodinger, Inc.                                       |
  |  All Rights Reserved.                                              |
  |                                                                    |
  |  The following have contributed to Jaguar (listed alphabetically): |
  |  Ty Balduf, Mike Beachy, Chandler Bennett, Art Bochevarov,         |
  |  Dale Braden, Yixiang Cao, Alan Chien, Chris Cortis,               |
  |  Rich Friesner, Jim Furness, Bill Goddard, Hod Greeley,            |
  |  Tom Hughes, Leif Jacobson, Jean-Marc Langlois, Daniel Levine,     |
  |  Rob Murphy, Dean Philipp, Tom Pollard, Murco Ringnalda,           |
  |  Daniel Mainz, Pablo Videla, Mark Watson, Haoyu Yu.                |
  |                                                                    |
  |  Use of this program should be acknowledged in publications as:    |
  |                                                                    |
  |  Jaguar, version 12.5, Schrodinger, Inc., New York, NY, 2024.      |
  |                                                                    |
  |  A. D. Bochevarov, E. Harder, T. F. Hughes, J. R. Greenwood,       |
  |  D. A. Braden, D. M. Philipp, D. Rinaldo, M. D. Halls,             |
  |  J. Zhang, R. A. Friesner, "Jaguar: A High-Performance Quantum     |
  |  Chemistry Software Program with Strengths in Life and Materials   |
  |  Sciences", Int. J. Quantum Chem., 2013, 113(18), 2110-2142.       |
  +--------------------------------------------------------------------+
  
  start of program pre
  
  Job name: L1_PL139
  Executables used: /software/local/apps/schrodinger2024-3/jaguar-v12.5/bin/Linux-x86_64
  Temporary files : /tmp/ar21627/L1_PL139#bp1-compute082-0-67e6e394
  Basis file : using default basis file from /software/local/apps/schrodinger2024-3
  Maestro file (input):  L1_PL139.mae
  Maestro file (output): L1_PL139.01.mae
  
 Contents of input file: &gen and (if present) &atomic sections only
 ----------------Contents start----------------
&gen
dftname=b3pw91-d3
basis=6-31G*
numd=5
ip11=2
iaccg=3
isolv=2
igeopt=1
solvent=benzene
ifreq=1
&
&atomic
atom basis
Pd2 lacv3p*
&
 -----------------Contents end-----------------
 
  PS calculation requested. Using PS version of 6-31g*
  basis set:               non_standard                    
  net molecular charge:    0
  multiplicity:            1
  
  Using up to   4 threads per process
  
  This run will use ECP on 1 atom
  number of basis functions....          383
  
 Input geometry:
                                   angstroms
  atom               x                 y                 z
  P1            0.0000000000      0.0000000000      0.0000000000 
  Pd2           0.0000000000      0.0000000000      2.2122636776 
  C3            1.4037020000      0.0000000000     -0.5287930000 
  C4           -0.7175880000      1.2185950000     -0.5000930000 
  C5           -0.6270920000     -1.2611540000     -0.5159910000 
  C6            2.7260500000     -0.4853270000      1.6271060000 
  C7            3.2037415467      0.4890420836      2.5421914869 
  C8            3.3427076298      0.2842074305      3.9252858075 
  C9            3.0029181845     -0.9436439155      4.4993369091 
  C10           2.5252920939     -1.9426734330      3.6472603508 
  C11           2.3990175195     -1.7026668968      2.2690586205 
  C12           2.6019460000     -0.2304150000      0.2176440000 
  C13           3.7878870000     -0.1958030000     -0.5613940000 
  C14           3.8431800000      0.0372740000     -1.9422500000 
  C15           2.6594980000      0.2557690000     -2.6437450000 
  C16           1.4669940000      0.2303350000     -1.9171010000 
  C17           0.2640520000      2.4117330000     -0.4822660000 
  C18          -1.4101740000      1.1825170000     -1.8807340000 
  C19          -1.8189460000      1.5454690000      0.5361260000 
  C20          -2.1080070000     -1.3722510000     -0.0979990000 
  C21           0.1221730000     -2.4158010000      0.1891870000 
  C22          -0.5185810000     -1.5249020000     -2.0327640000 
  H23           3.5106140782      1.4986757485      2.2438585944 
  H24           3.7228140409      1.0933906243      4.5725414540 
  H25           3.1073365851     -1.1176845047      5.5835144817 
  H26           2.2473488768     -2.9241184415      4.0688263639 
  H27           2.0137140197     -2.5696189083      1.7348519269 
  H28           4.7885530000     -0.3513670000     -0.1424820000 
  H29           4.8080470000      0.0488480000     -2.4782120000 
  H30           2.6670950000      0.4405860000     -3.7314160000 
  H31           0.5556520000      0.4025780000     -2.4991290000 
  H32           1.0643220000      2.3023090000     -1.2470840000 
  H33          -0.2516670000      3.3752090000     -0.6985240000 
  H34           0.7608810000      2.5175410000      0.5094590000 
  H35          -0.7084710000      1.0355330000     -2.7274080000 
  H36          -2.1957070000      0.3992420000     -1.9347810000 
  H37          -1.9262770000      2.1470210000     -2.0906830000 
  H38          -1.3958000000      1.6592640000      1.5607770000 
  H39          -2.3500650000      2.4951940000      0.2968930000 
  H40          -2.5919700000      0.7468300000      0.5862940000 
  H41          -2.2342810000     -1.2048910000      0.9961800000 
  H42          -2.7473770000     -0.6357650000     -0.6300580000 
  H43          -2.5273370000     -2.3781680000     -0.3286700000 
  H44           0.0340770000     -2.3450000000      1.2976900000 
  H45          -0.2765190000     -3.4128720000     -0.1076560000 
  H46           1.2083020000     -2.4115640000     -0.0586600000 
  H47          -0.9941950000     -0.7270730000     -2.6402850000 
  H48           0.5384110000     -1.6346130000     -2.3615300000 
  H49          -1.0269740000     -2.4759130000     -2.3116700000 
   
  principal moments of inertia:
        amu*angstrom^2:              1481.20612              2079.51350              2686.06039
                g*cm^2:          2.45960033E-37          3.45311297E-37          4.46030766E-37
   
  rotational constants:
               cm^(-1):      0.01138102      0.00810653      0.00627597
                   GHz:      0.34119425      0.24302752      0.18814879
   
  Molecular weight:     404.09 amu
   
  Stoichiometry: PdC20PH27
  Molecular Point Group: C1      
  Point Group used: C1
  
 
Number of optimization coordinates:   154
Number of independent coordinates:    154
Number of non-redundant coordinates:  141
Number of frozen coordinates:           0
Number of harmonic constraints:         0
 
Number of geometric degrees of freedom:   141
Maximum geometric degrees of freedom:     141
 " " " " " excluding dummy atoms:         141
 
 
  bond lengths (angstroms):
 
 P1      -Pd2     :   2.212264      P1      -C3      :   1.500000
 P1      -C4      :   1.500000      P1      -C5      :   1.500000
 C3      -C12     :   1.430401      C3      -C16     :   1.408708
 C4      -C17     :   1.545158      C4      -C18     :   1.545039
 C4      -C19     :   1.547122      C5      -C20     :   1.542780
 C5      -C21     :   1.546572      C5      -C22     :   1.543353
 C6      -C7      :   1.419495      C6      -C11     :   1.414556
 C6      -C12     :   1.437694      C7      -C8      :   1.405069
 C7      -H23     :   1.096601      C8      -C9      :   1.397358
 C8      -H24     :   1.103720      C9      -C10     :   1.397219
 C9      -H25     :   1.103011      C10     -C11     :   1.404631
 C10     -H26     :   1.103723      C11     -H27     :   1.088780
 C12     -C13     :   1.419350      C13     -C14     :   1.401480
 C13     -H28     :   1.095911      C14     -C15     :   1.393176
 C14     -H29     :   1.103792      C15     -C16     :   1.396683
 C15     -H30     :   1.103287      C16     -H31     :   1.094974
 C17     -H32     :   1.112363      C17     -H33     :   1.114011
 C17     -H34     :   1.114250      C18     -H35     :   1.109436
 C18     -H36     :   1.110632      C18     -H37     :   1.113871
 C19     -H38     :   1.114411      C19     -H39     :   1.114135
 C19     -H40     :   1.112613      C20     -H41     :   1.114084
 C20     -H42     :   1.110987      C20     -H43     :   1.113964
 C21     -H44     :   1.114250      C21     -H45     :   1.114101
 C21     -H46     :   1.114057      C22     -H47     :   1.109875
 C22     -H48     :   1.112365      C22     -H49     :   1.113855
 
  bond angles:
 
 C3      -P1      -Pd2     : 110.642051  C4      -P1      -Pd2     : 109.474992
 C4      -P1      -C3      : 109.277784  C5      -P1      -Pd2     : 110.120396
 C5      -P1      -C3      : 105.661559  C5      -P1      -C4      : 111.614203
 C12     -C3      -P1      : 126.866735  C16     -C3      -P1      : 112.921406
 C16     -C3      -C12     : 120.197482  C17     -C4      -P1      : 108.635479
 C18     -C4      -P1      : 119.564083  C18     -C4      -C17     : 108.247562
 C19     -C4      -P1      : 106.792043  C19     -C4      -C17     : 106.342742
 C19     -C4      -C18     : 106.518855  C20     -C5      -P1      : 111.631893
 C21     -C5      -P1      : 105.564318  C21     -C5      -C20     : 106.722903
 C22     -C5      -P1      : 116.895060  C22     -C5      -C20     : 108.750722
 C22     -C5      -C21     : 106.646205  C11     -C6      -C7      : 112.083859
 C12     -C6      -C7      : 122.638665  C12     -C6      -C11     : 125.277476
 C8      -C7      -C6      : 124.596171  H23     -C7      -C6      : 123.420160
 H23     -C7      -C8      : 111.983632  C9      -C8      -C7      : 120.559660
 H24     -C8      -C7      : 120.294259  H24     -C8      -C9      : 119.146078
 C10     -C9      -C8      : 117.443483  H25     -C9      -C8      : 121.293605
 H25     -C9      -C10     : 121.262909  C11     -C10     -C9      : 120.458961
 H26     -C10     -C9      : 119.271939  H26     -C10     -C11     : 120.269097
 C10     -C11     -C6      : 124.857824  H27     -C11     -C6      : 122.983415
 H27     -C11     -C10     : 112.158723  C6      -C12     -C3      : 127.767778
 C13     -C12     -C3      : 114.179167  C13     -C12     -C6      : 118.053050
 C14     -C13     -C12     : 125.296897  H28     -C13     -C12     : 123.344249
 H28     -C13     -C14     : 111.358848  C15     -C14     -C13     : 119.253491
 H29     -C14     -C13     : 120.974078  H29     -C14     -C15     : 119.772406
 C16     -C15     -C14     : 117.425968  H30     -C15     -C14     : 121.118955
 H30     -C15     -C16     : 121.455055  C15     -C16     -C3      : 123.646561
 H31     -C16     -C3      : 120.808706  H31     -C16     -C15     : 115.544693
 H32     -C17     -C4      : 111.910845  H33     -C17     -C4      : 111.807544
 H33     -C17     -H32     : 106.538408  H34     -C17     -C4      : 111.522463
 H34     -C17     -H32     : 107.488352  H34     -C17     -H33     : 107.281718
 H35     -C18     -C4      : 113.673662  H36     -C18     -C4      : 112.148234
 H36     -C18     -H35     : 108.467982  H37     -C18     -C4      : 110.849242
 H37     -C18     -H35     : 105.303521  H37     -C18     -H36     : 105.890065
 H38     -C19     -C4      : 111.536748  H39     -C19     -C4      : 112.063982
 H39     -C19     -H38     : 106.941488  H40     -C19     -C4      : 111.909518
 H40     -C19     -H38     : 107.196505  H40     -C19     -H39     : 106.879073
 H41     -C20     -C5      : 111.350636  H42     -C20     -C5      : 112.020047
 H42     -C20     -H41     : 107.790504  H43     -C20     -C5      : 111.731603
 H43     -C20     -H41     : 107.239005  H43     -C20     -H42     : 106.428016
 H44     -C21     -C5      : 111.584181  H45     -C21     -C5      : 111.919355
 H45     -C21     -H44     : 107.076047  H46     -C21     -C5      : 111.595099
 H46     -C21     -H44     : 107.347393  H46     -C21     -H45     : 107.038637
 H47     -C22     -C5      : 112.642254  H48     -C22     -C5      : 111.970515
 H48     -C22     -H47     : 108.440249  H49     -C22     -C5      : 111.094202
 H49     -C22     -H47     : 106.325725  H49     -C22     -H48     : 105.991230
 
  torsional angles:
 
 P1      -C3      -C12     -C6      :  -1.244791
 P1      -C3      -C12     -C13     : 178.729711
 P1      -C3      -C16     -C15     :-178.962339
 P1      -C3      -C16     -H31     :   0.961507
 P1      -C4      -C17     -H32     :  69.066294
 P1      -C4      -C17     -H33     :-171.500578
 P1      -C4      -C17     -H34     : -51.385074
 P1      -C4      -C18     -H35     : -63.625205
 P1      -C4      -C18     -H36     :  59.871656
 P1      -C4      -C18     -H37     : 177.992778
 P1      -C4      -C19     -H38     :  54.960151
 P1      -C4      -C19     -H39     : 174.826861
 P1      -C4      -C19     -H40     : -65.126497
 P1      -C5      -C20     -H41     : -50.476119
 P1      -C5      -C20     -H42     :  70.318293
 P1      -C5      -C20     -H43     :-170.366999
 P1      -C5      -C21     -H44     :  59.004770
 P1      -C5      -C21     -H45     : 178.976975
 P1      -C5      -C21     -H46     : -61.091110
 P1      -C5      -C22     -H47     : -60.037413
 P1      -C5      -C22     -H48     :  62.500013
 P1      -C5      -C22     -H49     :-179.204233
 Pd2     -P1      -C3      -C12     :  11.615731
 Pd2     -P1      -C3      -C16     :-169.774349
 Pd2     -P1      -C4      -C17     :  82.405157
 Pd2     -P1      -C4      -C18     :-152.760667
 Pd2     -P1      -C4      -C19     : -31.921688
 Pd2     -P1      -C5      -C20     :  62.890670
 Pd2     -P1      -C5      -C21     : -52.690285
 Pd2     -P1      -C5      -C22     :-171.030664
 C3      -P1      -C4      -C17     : -38.914883
 C3      -P1      -C4      -C18     :  85.919293
 C3      -P1      -C4      -C19     :-153.241727
 C3      -P1      -C5      -C20     :-177.595796
 C3      -P1      -C5      -C21     :  66.823249
 C3      -P1      -C5      -C22     : -51.517131
 C3      -C12     -C6      -C7      :-105.457153
 C3      -C12     -C6      -C11     :  74.547585
 C3      -C12     -C13     -C14     :  -0.059613
 C3      -C12     -C13     -H28     : 179.909160
 C3      -C16     -C15     -C14     :   0.107798
 C3      -C16     -C15     -H30     :-179.945215
 C4      -P1      -C3      -C12     : 132.225580
 C4      -P1      -C3      -C16     : -49.164500
 C4      -P1      -C5      -C20     : -58.917219
 C4      -P1      -C5      -C21     :-174.498174
 C4      -P1      -C5      -C22     :  67.161446
 C5      -P1      -C3      -C12     :-107.553020
 C5      -P1      -C3      -C16     :  71.056900
 C5      -P1      -C4      -C17     :-155.415056
 C5      -P1      -C4      -C18     : -30.580880
 C5      -P1      -C4      -C19     :  90.258099
 C6      -C7      -C8      -C9      :  -0.011981
 C6      -C7      -C8      -H24     : 179.970654
 C6      -C11     -C10     -C9      :   0.040255
 C6      -C11     -C10     -H26     :-179.980554
 C6      -C12     -C3      -C16     :-179.763430
 C6      -C12     -C13     -C14     : 179.917547
 C6      -C12     -C13     -H28     :  -0.113679
 C7      -C6      -C11     -C10     :  -0.074732
 C7      -C6      -C11     -H27     : 179.848321
 C7      -C6      -C12     -C13     :  74.569205
 C7      -C8      -C9      -C10     :  -0.029064
 C7      -C8      -C9      -H25     : 179.990200
 C8      -C7      -C6      -C11     :   0.060605
 C8      -C7      -C6      -C12     :-179.935221
 C8      -C9      -C10     -C11     :   0.015975
 C8      -C9      -C10     -H26     :-179.963423
 C9      -C8      -C7      -H23     :-179.943483
 C9      -C10     -C11     -H27     :-179.890053
 C10     -C9      -C8      -H24     : 179.988104
 C10     -C11     -C6      -C12     : 179.920963
 C11     -C6      -C7      -H23     : 179.984505
 C11     -C6      -C12     -C13     :-105.426058
 C11     -C10     -C9      -H25     : 179.996718
 C12     -C3      -C16     -C15     :  -0.249043
 C12     -C3      -C16     -H31     : 179.674803
 C12     -C6      -C7      -H23     :  -0.011321
 C12     -C6      -C11     -H27     :  -0.155984
 C12     -C13     -C14     -C15     :  -0.073105
 C12     -C13     -C14     -H29     : 179.984555
 C13     -C12     -C3      -C16     :   0.211072
 C13     -C14     -C15     -C16     :   0.051014
 C13     -C14     -C15     -H30     :-179.896162
 C14     -C15     -C16     -H31     :-179.819709
 C15     -C14     -C13     -H28     : 179.954905
 C16     -C15     -C14     -H29     : 179.994058
 C17     -C4      -C18     -H35     :  61.394213
 C17     -C4      -C18     -H36     :-175.108926
 C17     -C4      -C18     -H37     : -56.987804
 C17     -C4      -C19     -H38     : -60.909139
 C17     -C4      -C19     -H39     :  58.957571
 C17     -C4      -C19     -H40     : 179.004213
 C18     -C4      -C17     -H32     : -62.191818
 C18     -C4      -C17     -H33     :  57.241310
 C18     -C4      -C17     -H34     : 177.356814
 C18     -C4      -C19     -H38     :-176.206687
 C18     -C4      -C19     -H39     : -56.339978
 C18     -C4      -C19     -H40     :  63.706664
 C19     -C4      -C17     -H32     :-176.313205
 C19     -C4      -C17     -H33     : -56.880076
 C19     -C4      -C17     -H34     :  63.235427
 C19     -C4      -C18     -H35     : 175.399296
 C19     -C4      -C18     -H36     : -61.103843
 C19     -C4      -C18     -H37     :  57.017279
 C20     -C5      -C21     -H44     : -59.893717
 C20     -C5      -C21     -H45     :  60.078488
 C20     -C5      -C21     -H46     :-179.989597
 C20     -C5      -C22     -H47     :  67.458488
 C20     -C5      -C22     -H48     :-170.004085
 C20     -C5      -C22     -H49     : -51.708331
 C21     -C5      -C20     -H41     :  64.392944
 C21     -C5      -C20     -H42     :-174.812645
 C21     -C5      -C20     -H43     : -55.497936
 C21     -C5      -C22     -H47     :-177.791448
 C21     -C5      -C22     -H48     : -55.254022
 C21     -C5      -C22     -H49     :  63.041732
 C22     -C5      -C20     -H41     : 179.093085
 C22     -C5      -C20     -H42     : -60.112503
 C22     -C5      -C20     -H43     :  59.202205
 C22     -C5      -C21     -H44     :-176.007825
 C22     -C5      -C21     -H45     : -56.035620
 C22     -C5      -C21     -H46     :  63.896294
 H23     -C7      -C8      -H24     :   0.039152
 H24     -C8      -C9      -H25     :   0.007368
 H25     -C9      -C10     -H26     :   0.017320
 H26     -C10     -C11     -H27     :   0.089139
 H28     -C13     -C14     -H29     :   0.012565
 H29     -C14     -C15     -H30     :   0.046882
 H30     -C15     -C16     -H31     :   0.127278
 
  nuclear repulsion energy.......          2440.188135080 hartrees
  
  Detected an organometallic with only one TM atom. 
  
  
 
  Will use High-Quality Initial guess for organometallics
       including d-d repulsion (iguess=30)
 
 Non-default options chosen:
   SCF calculation type: DFT(b3pw91-d3)              
   DFT=Becke_3_Parameter/HF+Slater+Becke88+PW91+PW-GGAIIC (B3PW91-D3)
   Geometry will be optimized in redundant internal coordinates
   Solvation energy will be computed using PBF
     -solute cavity energy will not be included
     -surface area terms will not be included
   Vibrational frequencies and related properties will be computed
      from analytic second derivatives
   IR intensities will be computed
   Thermochemical properties will be computed
   Maximum number of geometry steps: 100
   Scaling standard convergence criteria by a factor of   5.00
   Solvent: benzene                                                         
   Internal dielectric constant:    1.000
   Continuum dielectric constant:   2.283
   Solvent probe molecule radius:   2.600
  
 Non-default print settings:
     11=  2
  
 Temporary integer options set:
     21= -1  73=  2
  
  atom       vdw   vdw2    cov     mass  grid  daf  charge   basis
  P1        2.147  2.074  1.060   30.974    Y    Y      Y    ps_6-31g*
  Pd2       1.450  1.450  1.280  105.903    Y    Y      Y    lacv3p*
  C3        1.949  1.900  0.770   12.000    Y    Y      Y    ps_6-31g*
  C4        1.949  1.900  0.770   12.000    Y    Y      Y    ps_6-31g*
  C5        1.949  1.900  0.770   12.000    Y    Y      Y    ps_6-31g*
  C6        1.949  1.900  0.770   12.000    Y    Y      Y    ps_6-31g*
  C7        1.949  1.900  0.770   12.000    Y    Y      Y    ps_6-31g*
  C8        1.949  1.900  0.770   12.000    Y    Y      Y    ps_6-31g*
  C9        1.949  1.900  0.770   12.000    Y    Y      Y    ps_6-31g*
  C10       1.949  1.900  0.770   12.000    Y    Y      Y    ps_6-31g*
  C11       1.949  1.900  0.770   12.000    Y    Y      Y    ps_6-31g*
  C12       1.949  1.900  0.770   12.000    Y    Y      Y    ps_6-31g*
  C13       1.949  1.900  0.770   12.000    Y    Y      Y    ps_6-31g*
  C14       1.949  1.900  0.770   12.000    Y    Y      Y    ps_6-31g*
  C15       1.949  1.900  0.770   12.000    Y    Y      Y    ps_6-31g*
  C16       1.949  1.900  0.770   12.000    Y    Y      Y    ps_6-31g*
  C17       1.949  1.900  0.770   12.000    Y    Y      Y    ps_6-31g*
  C18       1.949  1.900  0.770   12.000    Y    Y      Y    ps_6-31g*
  C19       1.949  1.900  0.770   12.000    Y    Y      Y    ps_6-31g*
  C20       1.949  1.900  0.770   12.000    Y    Y      Y    ps_6-31g*
  C21       1.949  1.900  0.770   12.000    Y    Y      Y    ps_6-31g*
  C22       1.949  1.900  0.770   12.000    Y    Y      Y    ps_6-31g*
  H23       1.597  1.150  0.320    1.008    Y    Y      Y    ps_6-31g*
  H24       1.597  1.150  0.320    1.008    Y    Y      Y    ps_6-31g*
  H25       1.597  1.150  0.320    1.008    Y    Y      Y    ps_6-31g*
  H26       1.597  1.150  0.320    1.008    Y    Y      Y    ps_6-31g*
  H27       1.597  1.150  0.320    1.008    Y    Y      Y    ps_6-31g*
  H28       1.597  1.150  0.320    1.008    Y    Y      Y    ps_6-31g*
  H29       1.597  1.150  0.320    1.008    Y    Y      Y    ps_6-31g*
  H30       1.597  1.150  0.320    1.008    Y    Y      Y    ps_6-31g*
  H31       1.597  1.150  0.320    1.008    Y    Y      Y    ps_6-31g*
  H32       1.597  1.150  0.320    1.008    Y    Y      Y    ps_6-31g*
  H33       1.597  1.150  0.320    1.008    Y    Y      Y    ps_6-31g*
  H34       1.597  1.150  0.320    1.008    Y    Y      Y    ps_6-31g*
  H35       1.597  1.150  0.320    1.008    Y    Y      Y    ps_6-31g*
  H36       1.597  1.150  0.320    1.008    Y    Y      Y    ps_6-31g*
  H37       1.597  1.150  0.320    1.008    Y    Y      Y    ps_6-31g*
  H38       1.597  1.150  0.320    1.008    Y    Y      Y    ps_6-31g*
  H39       1.597  1.150  0.320    1.008    Y    Y      Y    ps_6-31g*
  H40       1.597  1.150  0.320    1.008    Y    Y      Y    ps_6-31g*
  H41       1.597  1.150  0.320    1.008    Y    Y      Y    ps_6-31g*
  H42       1.597  1.150  0.320    1.008    Y    Y      Y    ps_6-31g*
  H43       1.597  1.150  0.320    1.008    Y    Y      Y    ps_6-31g*
  H44       1.597  1.150  0.320    1.008    Y    Y      Y    ps_6-31g*
  H45       1.597  1.150  0.320    1.008    Y    Y      Y    ps_6-31g*
  H46       1.597  1.150  0.320    1.008    Y    Y      Y    ps_6-31g*
  H47       1.597  1.150  0.320    1.008    Y    Y      Y    ps_6-31g*
  H48       1.597  1.150  0.320    1.008    Y    Y      Y    ps_6-31g*
  H49       1.597  1.150  0.320    1.008    Y    Y      Y    ps_6-31g*
 
  atom      formal  2spin      esp    mulk    frag
  P1           0       0        Y    0.000       0
  Pd2          0       0        Y    0.000       0
  
  end of program pre
   
 Time(pre)  user:       0.938  user+sys:       0.938  wallclock:       0.981
  
  start of program onee
  
  smallest eigenvalue of S:    3.774E-04
  number of canonical orbitals.....          381
  end of program onee
   
 Time(onee)  user:       1.720  user+sys:       1.720  wallclock:       1.250
  
  start of program hfig
  
  initial wavefunction generated automatically from atomic wavefunctions
  Only one possible d-orb occupation 
  Skip d-d repulsion considerations 
 
  Irreducible     Total no   No of occupied orbitals 
  representation  orbitals   Shell_1  Shell_2    ...
  No Symm          381         90
  ------------------------
  Orbital occupation/shell    1.000
 
  end of program hfig
   
 Time(hfig)  user:       0.613  user+sys:       0.613  wallclock:       0.655
  
  start of program probe
  
  end of program probe
   
 Time(probe)  user:       0.270  user+sys:       0.270  wallclock:       0.225
  
  start of program grid
  
   grid     grid set  grid #  grid sym
  ------    --------  ------  --------
  coarse        0        0        1
  medium        2        1        1
  fine          0        0        1
  ultrafine     4        2        1
  charge       -1        3        1
  gradient      4        2        1
  density       0        0        1
  DFT-fine    -11        4        1
  DFT-med.    -10        5        1
  DFT-grad    -12        6        1
  DFT-der2     -8        7        1
  DFT-cphf     -9        8        1
  LMP2-enrg     4        2        1
  LMP2-grad     2        1        1
  DFT-cphf2   -15        9        1
  PBF-dens      0        0        1
  plotting      0        0        1
  Rel-grad    -17        0        1
  
  number of gridpoints: 
     atom           P1         Pd2          C3          C4          C5          C6          C7
  grid # 1         522         385          91          87          87          96          92
  grid # 2         366         351         354         337         344         349         326
  grid # 3           6         349           6           6           6          10          18
  grid # 4        8714        8714        8714        8714        8714        8714        8714
  grid # 5        1192        1192        1192        1192        1192        1192        1192
  grid # 6        9132        9132        5922        5922        5922        5922        5922
  grid # 7       23034       32968       13950       13950       13950       13950       13950
  grid # 8         722        1150         748         748         748         748         748
  grid # 9         366        2198         394         394         394         394         394
   
  number of gridpoints: 
     atom           C8          C9         C10         C11         C12         C13         C14
  grid # 1          95          95          95          93          97          93          97
  grid # 2         325         324         326         325         349         326         323
  grid # 3          32          33          30          21          11          28          39
  grid # 4        8714        8714        8714        8714        8714        8714        8714
  grid # 5        1192        1192        1192        1192        1192        1192        1192
  grid # 6        5922        5922        5922        5922        5922        5922        5922
  grid # 7       13950       13950       13950       13950       13950       13950       13950
  grid # 8         748         748         748         748         748         748         748
  grid # 9         394         394         394         394         394         394         394
   
  number of gridpoints: 
     atom          C15         C16         C17         C18         C19         C20         C21
  grid # 1          95          89          78          81          79          80          81
  grid # 2         318         315         248         240         247         249         241
  grid # 3          18           6           6           6           6           6           6
  grid # 4        8714        8714        8714        8714        8714        8714        8714
  grid # 5        1192        1192        1192        1192        1192        1192        1192
  grid # 6        5922        5922        5922        5922        5922        5922        5922
  grid # 7       13950       13950       13950       13950       13950       13950       13950
  grid # 8         748         748         748         748         748         748         748
  grid # 9         394         394         394         394         394         394         394
   
  number of gridpoints: 
     atom          C22         H23         H24         H25         H26         H27         H28
  grid # 1          80         115         118         118         117         104         116
  grid # 2         242         458         464         467         463         432         460
  grid # 3           6         319         410         426         397         177         363
  grid # 4        8714        8714        8714        8714        8714        8714        8714
  grid # 5        1192        1192        1192        1192        1192        1192        1192
  grid # 6        5922        5922        5922        5922        5922        5922        5922
  grid # 7       13950       15206       15206       15206       15206       15206       15206
  grid # 8         748         786         786         786         786         786         786
  grid # 9         394         420         420         420         420         420         420
   
  number of gridpoints: 
     atom          H29         H30         H31         H32         H33         H34         H35
  grid # 1         118         118          90         102         107         104          98
  grid # 2         465         467         387         429         445         442         401
  grid # 3         420         404          48         187         282         195         150
  grid # 4        8714        8714        8714        8714        8714        8714        8714
  grid # 5        1192        1192        1192        1192        1192        1192        1192
  grid # 6        5922        5922        5922        5922        5922        5922        5922
  grid # 7       15206       15206       15206       15206       15206       15206       15206
  grid # 8         786         786         786         786         786         786         786
  grid # 9         420         420         420         420         420         420         420
   
  number of gridpoints: 
     atom          H36         H37         H38         H39         H40         H41         H42
  grid # 1          98         107         101         109          96         102          95
  grid # 2         415         443         441         447         417         434         408
  grid # 3         135         274         186         273         155         179         145
  grid # 4        8714        8714        8714        8714        8714        8714        8714
  grid # 5        1192        1192        1192        1192        1192        1192        1192
  grid # 6        5922        5922        5922        5922        5922        5922        5922
  grid # 7       15206       15206       15206       15206       15206       15206       15206
  grid # 8         786         786         786         786         786         786         786
  grid # 9         420         420         420         420         420         420         420
   
  number of gridpoints: 
     atom          H43         H44         H45         H46         H47         H48         H49
  grid # 1         107          99         108         100          96         100         109
  grid # 2         445         429         447         422         403         424         447
  grid # 3         280         123         272         125         124         177         275
  grid # 4        8714        8714        8714        8714        8714        8714        8714
  grid # 5        1192        1192        1192        1192        1192        1192        1192
  grid # 6        5922        5922        5922        5922        5922        5922        5922
  grid # 7       15206       15206       15206       15206       15206       15206       15206
  grid # 8         786         786         786         786         786         786         786
  grid # 9         420         420         420         420         420         420         420
   
  number of gridpoints: 
     atom        total
  grid # 1        5540
  grid # 2       18627
  grid # 3        7156
  grid # 4      426986
  grid # 5       58408
  grid # 6      296598
  grid # 7      745564
  grid # 8       38054
  grid # 9       21784
   
  end of program grid
   
 Time(grid)  user:      81.006  user+sys:      81.006  wallclock:      41.883
  
  start of program rwr
  
  end of program rwr
   
 Time(rwr)  user:       8.840  user+sys:       8.840  wallclock:      10.853
  
  start of program scf
  
 number of electrons..........        180
 number of alpha electrons....         90
 number of beta electrons.....         90
 number of orbitals, total....        381
 number of doubly-occ'd orbs..         90
 number of open shell orbs....          0
 number of occupied orbitals..         90
 number of virtual orbitals...        291
 number of hamiltonians.......          1
 number of shells.............          1
 SCF type: DFT=Becke_3_Parameter/HF+Slater+Becke88+PW91+PW-GGAIIC (B3PW91-D3)
 Energy computed using pseudospectral method.
 Convergence Criterion:
    Energy (econv):       1.00E-05
    RMS density (dconv):  5.00E-06
  
       i  u  d  i  g                   
       t  p  i  c  r                                 RMS    maximum
       e  d  i  u  i                       energy  density   DIIS  
       r  t  s  t  d       total energy    change  change    error 
  
etot    1  N  N  5  M   -1243.14668770813           3.8E-03  1.8E-01
etot    2  Y  Y  6  M   -1244.96321667570  1.8E+00  6.2E-03  1.1E-01
etot    3  Y  Y  6  M   -1245.29381285096  3.3E-01  2.9E-03  1.0E-01
etot    4  N  Y  2  U   -1245.79915615395  5.1E-01  2.4E-03  1.9E-02
etot    5  Y  Y  6  M   -1245.85847044010  5.9E-02  1.4E-03  8.5E-03
etot    6  N  Y  2  U   -1245.85973461774  1.3E-03  3.9E-04  7.5E-03
etot    7  Y  Y  6  M   -1245.86395985494  4.2E-03  1.2E-04  3.0E-03
etot    8  Y  Y  6  M   -1245.86562140070  1.7E-03  2.8E-05  5.3E-04
etot    9  N  Y  2  U   -1245.86580528421  1.8E-04  2.5E-05  2.6E-04
etot   10  N  Y  2  U   -1245.86581523738  1.0E-05  2.0E-05  1.1E-04
etot   11  N  Y  2  U   -1245.86581722971  2.0E-06  4.3E-06  4.0E-05
etot   12  N  N  2  U   -1245.86581782288  5.9E-07  0.0E+00  0.0E+00
 
  Computing the dispersion energy correction and its gradients...
  
  
 Energy components, in hartrees:
   (A)  Nuclear repulsion............    2440.18813508019
   (E)  Total one-electron terms.....   -6606.29489033435
   (F)    Electron-nuclear...........   -7768.72919542229
   (H)    Kinetic....................    1162.43430508794
   (I)  Total two-electron terms.....    2920.24093743128
   (J)    Coulomb....................    3075.21668888284
   (K)    Exchange+Correlation.......    -154.97575145156
   (L)  Electronic energy............   -3686.05395290307  (E+I)
   (N0) D3 correction................      -0.08446527969
   (N)  Total energy.................   -1245.95028310257  (A+L+N0)
   (O)  Gas phase energy.............   -1245.95028310257
  
 SCFE: SCF energy: DFT(b3pw91-d3)     -1245.95028310257 hartrees   iterations:  12
  
 
 HOMO energy:    -0.12195
 LUMO energy:    -0.03569
 
  Orbital energies (hartrees): 
   -76.97603   -10.19730   -10.18876   -10.18188   -10.17944   -10.17876
   -10.17763   -10.17149   -10.17149   -10.17081   -10.16840   -10.16787
   -10.16765   -10.16112   -10.16109   -10.16034   -10.15872   -10.15732
   -10.15534   -10.15216   -10.14858    -6.51305    -4.66931    -4.66873
    -4.66478    -3.22599    -1.96214    -1.94595    -1.94349    -0.91472
    -0.86403    -0.84432    -0.82046    -0.78658    -0.77240    -0.73731
    -0.73171    -0.71434    -0.69423    -0.68221    -0.68033    -0.67480
    -0.63082    -0.61186    -0.59396    -0.58342    -0.58060    -0.54261
    -0.51013    -0.50000    -0.48691    -0.48132    -0.47739    -0.46543
    -0.45638    -0.44957    -0.44361    -0.43986    -0.42987    -0.42730
    -0.40728    -0.39948    -0.39602    -0.39436    -0.38798    -0.37827
    -0.37642    -0.36717    -0.36507    -0.36411    -0.35956    -0.35503
    -0.35251    -0.34475    -0.33880    -0.33615    -0.32644    -0.32224
    -0.30991    -0.29610    -0.26771    -0.26059    -0.25012    -0.24551
    -0.24387    -0.18680    -0.18428    -0.16523    -0.16319    -0.12195
    -0.03569    -0.01842    -0.01047     0.00246     0.00570     0.03363
     0.04799     0.06694     0.08478     0.09277
 
  end of program scf
   
 Time(scf)  user:     166.252  user+sys:     166.252  wallclock:      90.495
  
  start of program der1a
  
  end of program der1a
   
 Time(der1a)  user:       5.013  user+sys:       5.013  wallclock:       2.834
  
  start of program rwr
  
  end of program rwr
   
 Time(rwr)  user:       9.068  user+sys:       9.068  wallclock:      11.810
  
  start of program der1b
  
   
  forces (hartrees/bohr) : total     
   
 atom  label           x              y              z
 ---- --------   -------------  -------------  -------------
    1 P1          9.244356E-03   5.680059E-03   3.071809E-01
    2 Pd2         8.280452E-03  -3.055810E-03   3.120176E-02
    3 C3          2.674590E-01  -3.325340E-03  -9.811649E-02
    4 C4         -1.464651E-01   2.583639E-01  -9.555275E-02
    5 C5         -1.269063E-01  -2.658939E-01  -9.210631E-02
    6 C6         -2.377966E-03  -2.552674E-03   6.440324E-02
    7 C7          1.088205E-02   1.606449E-02   2.843056E-03
    8 C8         -4.467230E-04  -3.915709E-03   2.229310E-03
    9 C9         -4.062266E-04   3.655239E-04   1.695920E-03
   10 C10         4.058673E-03   2.251922E-03   3.452926E-03
   11 C11        -4.962984E-03  -1.867172E-02   3.591841E-03
   12 C12         1.861514E-02   7.452782E-03  -6.452123E-02
   13 C13         1.736705E-02   3.593661E-04  -3.038656E-03
   14 C14        -3.675544E-03   4.787202E-04  -9.549688E-04
   15 C15        -1.512436E-03   1.542347E-03   6.528070E-04
   16 C16         3.547553E-02   3.887286E-03  -2.494250E-02
   17 C17         6.583330E-03   2.816178E-02  -3.204840E-03
   18 C18        -2.423638E-02   2.362402E-02  -1.648784E-02
   19 C19        -3.138331E-02   2.108925E-02   6.957717E-03
   20 C20        -2.341050E-02  -1.558422E-02   4.826152E-04
   21 C21         1.774102E-03  -3.120697E-02   1.853731E-03
   22 C22        -7.891530E-03  -2.630556E-02  -2.492997E-02
   23 H23        -4.999692E-03  -7.084176E-03  -1.118440E-02
   24 H24        -3.572383E-03  -6.004809E-03  -9.254346E-03
   25 H25        -9.740699E-04   1.747462E-03  -1.033526E-02
   26 H26         1.929403E-03   8.764417E-03  -7.475994E-03
   27 H27         5.823376E-03   8.005958E-03  -5.791971E-03
   28 H28        -9.822758E-03  -1.257164E-03   1.145992E-02
   29 H29        -8.030619E-03  -8.066034E-04   8.323859E-03
   30 H30        -1.563150E-03  -1.611326E-03   1.034360E-02
   31 H31         2.217946E-02  -1.199235E-03   1.221451E-02
   32 H32        -1.012481E-02   4.913884E-03   1.000572E-02
   33 H33        -5.971372E-05  -1.085500E-02   3.441671E-03
   34 H34        -5.350504E-03  -3.408376E-03  -9.409530E-03
   35 H35        -1.668949E-02   9.604031E-03   8.041206E-03
   36 H36         8.239752E-03   1.487628E-02  -1.290964E-03
   37 H37         5.474254E-03  -6.894905E-03   5.424937E-03
   38 H38        -1.130558E-03  -1.783943E-03  -1.111276E-02
   39 H39         3.587216E-03  -5.514698E-03  -4.769694E-03
   40 H40         1.070654E-02   1.643825E-02   1.895375E-03
   41 H41         4.441758E-03  -2.449919E-03  -1.084012E-02
   42 H42         4.998916E-03  -1.354177E-02   6.477247E-03
   43 H43         7.177127E-03   7.424465E-03  -3.441412E-04
   44 H44        -2.699229E-03   2.309313E-03  -1.319677E-02
   45 H45         1.358029E-03   9.424936E-03  -2.280795E-03
   46 H46        -1.475266E-02  -1.204923E-03  -3.952269E-04
   47 H47         8.602155E-03  -2.299316E-02   6.036667E-03
   48 H48        -1.456385E-02  -3.743795E-03   4.394639E-03
   49 H49         2.960608E-03   7.421081E-03   6.222156E-03
 -------------   -------------  -------------  -------------
     total       -7.902314E-04  -6.141746E-04  -7.102194E-04
   
  end of program der1b
   
 Time(der1b)  user:      54.854  user+sys:      54.854  wallclock:      29.554
  
  start of program geopt
  
 ----------------------------------------------------------------------------
  Geometry optimization step  1
  Total energy:     -1245.95028310257 hartrees
 ----------------------------------------------------------------------------
  
  
  Level shifts adjusted to satisfy step-size constraints
   Step size:    0.3000439
   Cos(theta):   0.9951634
   Final level shift:  -2.0056880E+00
  
  gradient maximum:        4.1465E-01 .  (  2.2500E-03 )
  gradient rms:            6.3585E-02 .  (  1.5000E-03 )
  displacement maximum:    1.6283E-01 .  (  9.0000E-03 )
  displacement rms:        2.4178E-02 .  (  6.0000E-03 )
  
  predicted energy change:  -2.0809E-01
  step size:     0.30004
  trust radius:  0.30000
  
  molecular structure not yet converged...
  
  center of mass moved by:
     x:     5.1690E-02     y:    -6.6847E-03     z:    -8.5805E-03
  
  new geometry: 
                                   angstroms
  atom               x                 y                 z
  P1           -0.0173824912      0.0037199507     -0.0028520681 
  Pd2           0.0370771816     -0.0109152356      2.2160239963 
  C3            1.4500662475      0.0084658841     -0.5757549876 
  C4           -0.7861299456      1.3029535606     -0.4896125262 
  C5           -0.6800804045     -1.3434220617     -0.5092472140 
  C6            2.7260978430     -0.4865407899      1.6113168094 
  C7            3.1817826451      0.4988783031      2.5223560482 
  C8            3.3001122652      0.3008194673      3.9060941399 
  C9            2.9648210457     -0.9278066352      4.4786669589 
  C10           2.5123409791     -1.9361489369      3.6254373743 
  C11           2.4023693369     -1.7070108407      2.2462540515 
  C12           2.6377769974     -0.2293781747      0.1916339796 
  C13           3.8564497525     -0.2001039111     -0.5276149687 
  C14           3.9635512274      0.0361854540     -1.9004636019 
  C15           2.8061201769      0.2627048444     -2.6391146568 
  C16           1.5858094099      0.2422957369     -1.9615661759 
  C17           0.1753003263      2.5148606124     -0.4776282885 
  C18          -1.5403573083      1.3730712465     -1.8401061275 
  C19          -1.8749458424      1.6652705494      0.5528276503 
  C20          -2.1575888816     -1.4941619766     -0.0856176066 
  C21           0.0569061503     -2.5137287391      0.1838466121 
  C22          -0.6151757432     -1.7087708477     -2.0101494238 
  H23           3.4773832133      1.5057545377      2.2078091469 
  H24           3.6627424849      1.1157596361      4.5518874098 
  H25           3.0532836048     -1.0962250963      5.5627293946 
  H26           2.2388915693     -2.9172672075      4.0440803214 
  H27           2.0370539937     -2.5725399333      1.6984385177 
  H28           4.8279785200     -0.3657510160     -0.0506016382 
  H29           4.9468525650      0.0448382223     -2.3963116235 
  H30           2.8496386447      0.4509680011     -3.7229302629 
  H31           0.7101910002      0.4262466914     -2.5838309103 
  H32           0.9545202723      2.4359671192     -1.2629339832 
  H33          -0.3669912655      3.4679761725     -0.6604514821 
  H34           0.6958907713      2.6100487343      0.5000496960 
  H35          -0.8879317881      1.2663354351     -2.7261794702 
  H36          -2.3479860757      0.6193190959     -1.9101895421 
  H37          -2.0373144609      2.3602363988     -1.9601706340 
  H38          -1.4393633101      1.7796665348      1.5696038174 
  H39          -2.3851623360      2.6218929187      0.3015874672 
  H40          -2.6637050073      0.8894897778      0.6194153136 
  H41          -2.2834114994     -1.3150147007      1.0040679763 
  H42          -2.8219023486     -0.7910769140     -0.6251723118 
  H43          -2.5414275660     -2.5148536590     -0.3024769820 
  H44          -0.0158988984     -2.4389697102      1.2902875527 
  H45          -0.3667731284     -3.4986358205     -0.1118714679 
  H46           1.1352144612     -2.5310898591     -0.0823128196 
  H47          -1.1004963495     -0.9562470856     -2.6576328884 
  H48           0.4285882627     -1.8495476734     -2.3579279467 
  H49          -1.1357970697     -2.6713094552     -2.2062323430 
   
 
  bond lengths (angstroms):
 
 P1      -Pd2     :   2.219593      P1      -C3      :   1.575324
 P1      -C4      :   1.586164      P1      -C5      :   1.584423
 C3      -C12     :   1.433915      C3      -C16     :   1.411940
 C4      -C17     :   1.547000      C4      -C18     :   1.548421
 C4      -C19     :   1.550315      C5      -C20     :   1.544414
 C5      -C21     :   1.546980      C5      -C22     :   1.546092
 C6      -C7      :   1.417283      C6      -C11     :   1.413327
 C6      -C12     :   1.445487      C7      -C8      :   1.402840
 C7      -H23     :   1.095500      C8      -C9      :   1.396346
 C8      -H24     :   1.101216      C9      -C10     :   1.396243
 C9      -H25     :   1.100628      C10     -C11     :   1.402407
 C10     -H26     :   1.101195      C11     -H27     :   1.087519
 C12     -C13     :   1.415394      C13     -C14     :   1.397146
 C13     -H28     :   1.094920      C14     -C15     :   1.391604
 C14     -H29     :   1.101282      C15     -C16     :   1.395939
 C15     -H30     :   1.100906      C16     -H31     :   1.089844
 C17     -H32     :   1.109105      C17     -H33     :   1.111726
 C17     -H34     :   1.111724      C18     -H35     :   1.105521
 C18     -H36     :   1.106941      C18     -H37     :   1.111700
 C19     -H38     :   1.112049      C19     -H39     :   1.112910
 C19     -H40     :   1.108337      C20     -H41     :   1.111458
 C20     -H42     :   1.107592      C20     -H43     :   1.111833
 C21     -H44     :   1.111351      C21     -H45     :   1.112203
 C21     -H46     :   1.110806      C22     -H47     :   1.105017
 C22     -H48     :   1.109149      C22     -H49     :   1.111744
 
  bond angles:
 
 C3      -P1      -Pd2     : 109.920734  C4      -P1      -Pd2     : 108.909383
 C4      -P1      -C3      : 109.718448  C5      -P1      -Pd2     : 108.914785
 C5      -P1      -C3      : 106.018345  C5      -P1      -C4      : 113.306073
 C12     -C3      -P1      : 125.201380  C16     -C3      -P1      : 116.551236
 C16     -C3      -C12     : 118.235978  C17     -C4      -P1      : 109.760941
 C18     -C4      -P1      : 122.739352  C18     -C4      -C17     : 105.902520
 C19     -C4      -P1      : 108.993859  C19     -C4      -C17     : 104.370181
 C19     -C4      -C18     : 103.519497  C20     -C5      -P1      : 113.294488
 C21     -C5      -P1      : 107.503419  C21     -C5      -C20     : 105.012717
 C22     -C5      -P1      : 119.579096  C22     -C5      -C20     : 106.461902
 C22     -C5      -C21     : 103.660530  C11     -C6      -C7      : 112.660862
 C12     -C6      -C7      : 121.821874  C12     -C6      -C11     : 125.511450
 C8      -C7      -C6      : 124.264250  H23     -C7      -C6      : 122.767389
 H23     -C7      -C8      : 112.968137  C9      -C8      -C7      : 120.559923
 H24     -C8      -C7      : 120.115589  H24     -C8      -C9      : 119.324222
 C10     -C9      -C8      : 117.559977  H25     -C9      -C8      : 121.279956
 H25     -C9      -C10     : 121.160065  C11     -C10     -C9      : 120.556374
 H26     -C10     -C9      : 119.445065  H26     -C10     -C11     : 119.998453
 C10     -C11     -C6      : 124.398324  H27     -C11     -C6      : 122.541852
 H27     -C11     -C10     : 113.059819  C6      -C12     -C3      : 127.281850
 C13     -C12     -C3      : 115.963139  C13     -C12     -C6      : 116.754018
 C14     -C13     -C12     : 124.668357  H28     -C13     -C12     : 122.647376
 H28     -C13     -C14     : 112.684209  C15     -C14     -C13     : 119.034192
 H29     -C14     -C13     : 120.809814  H29     -C14     -C15     : 120.155984
 C16     -C15     -C14     : 117.844355  H30     -C15     -C14     : 121.165323
 H30     -C15     -C16     : 120.990289  C15     -C16     -C3      : 124.253390
 H31     -C16     -C3      : 120.737901  H31     -C16     -C15     : 115.008524
 H32     -C17     -C4      : 112.050369  H33     -C17     -C4      : 111.542882
 H33     -C17     -H32     : 106.693485  H34     -C17     -C4      : 111.402100
 H34     -C17     -H32     : 107.444258  H34     -C17     -H33     : 107.435701
 H35     -C18     -C4      : 114.029978  H36     -C18     -C4      : 112.319497
 H36     -C18     -H35     : 108.305865  H37     -C18     -C4      : 110.618833
 H37     -C18     -H35     : 105.247098  H37     -C18     -H36     : 105.763330
 H38     -C19     -C4      : 111.330410  H39     -C19     -C4      : 111.781619
 H39     -C19     -H38     : 107.311079  H40     -C19     -C4      : 112.124958
 H40     -C19     -H38     : 107.206993  H40     -C19     -H39     : 106.795441
 H41     -C20     -C5      : 111.191942  H42     -C20     -C5      : 112.223412
 H42     -C20     -H41     : 107.901686  H43     -C20     -C5      : 111.492308
 H43     -C20     -H41     : 107.464427  H43     -C20     -H42     : 106.300359
 H44     -C21     -C5      : 111.343108  H45     -C21     -C5      : 111.673743
 H45     -C21     -H44     : 107.417031  H46     -C21     -C5      : 111.526852
 H46     -C21     -H44     : 107.649647  H46     -C21     -H45     : 106.992304
 H47     -C22     -C5      : 112.920907  H48     -C22     -C5      : 111.955565
 H48     -C22     -H47     : 108.422110  H49     -C22     -C5      : 110.863986
 H49     -C22     -H47     : 106.295450  H49     -C22     -H48     : 105.991471
 
  torsional angles:
 
 P1      -C3      -C12     -C6      :  -1.366940
 P1      -C3      -C12     -C13     : 179.009984
 P1      -C3      -C16     -C15     :-179.084349
 P1      -C3      -C16     -H31     :   1.079669
 P1      -C4      -C17     -H32     :  69.294032
 P1      -C4      -C17     -H33     :-171.161388
 P1      -C4      -C17     -H34     : -51.113370
 P1      -C4      -C18     -H35     : -63.784342
 P1      -C4      -C18     -H36     :  59.911293
 P1      -C4      -C18     -H37     : 177.830453
 P1      -C4      -C19     -H38     :  55.051116
 P1      -C4      -C19     -H39     : 175.053994
 P1      -C4      -C19     -H40     : -65.053812
 P1      -C5      -C20     -H41     : -50.389073
 P1      -C5      -C20     -H42     :  70.577759
 P1      -C5      -C20     -H43     :-170.296416
 P1      -C5      -C21     -H44     :  59.003781
 P1      -C5      -C21     -H45     : 179.076836
 P1      -C5      -C21     -H46     : -61.265337
 P1      -C5      -C22     -H47     : -60.017299
 P1      -C5      -C22     -H48     :  62.693257
 P1      -C5      -C22     -H49     :-179.173148
 Pd2     -P1      -C3      -C12     :  11.497095
 Pd2     -P1      -C3      -C16     :-169.758042
 Pd2     -P1      -C4      -C17     :  81.773375
 Pd2     -P1      -C4      -C18     :-152.978524
 Pd2     -P1      -C4      -C19     : -31.964825
 Pd2     -P1      -C5      -C20     :  64.097056
 Pd2     -P1      -C5      -C21     : -51.465479
 Pd2     -P1      -C5      -C22     :-169.094414
 C3      -P1      -C4      -C17     : -38.582510
 C3      -P1      -C4      -C18     :  86.665590
 C3      -P1      -C4      -C19     :-152.320711
 C3      -P1      -C5      -C20     :-177.667649
 C3      -P1      -C5      -C21     :  66.769816
 C3      -P1      -C5      -C22     : -50.859119
 C3      -C12     -C6      -C7      :-105.054900
 C3      -C12     -C6      -C11     :  75.887897
 C3      -C12     -C13     -C14     :  -0.188922
 C3      -C12     -C13     -H28     : 179.904468
 C3      -C16     -C15     -C14     :   0.082221
 C3      -C16     -C15     -H30     :-179.982650
 C4      -P1      -C3      -C12     : 131.236765
 C4      -P1      -C3      -C16     : -50.018372
 C4      -P1      -C5      -C20     : -57.277067
 C4      -P1      -C5      -C21     :-172.839602
 C4      -P1      -C5      -C22     :  69.531464
 C5      -P1      -C3      -C12     :-106.068478
 C5      -P1      -C3      -C16     :  72.676386
 C5      -P1      -C4      -C17     :-156.849467
 C5      -P1      -C4      -C18     : -31.601367
 C5      -P1      -C4      -C19     :  89.412332
 C6      -C7      -C8      -C9      :   0.177716
 C6      -C7      -C8      -H24     : 179.988704
 C6      -C11     -C10     -C9      :   0.076199
 C6      -C11     -C10     -H26     : 179.956409
 C6      -C12     -C3      -C16     : 179.907473
 C6      -C12     -C13     -C14     :-179.853063
 C6      -C12     -C13     -H28     :   0.240327
 C7      -C6      -C11     -C10     :   0.056281
 C7      -C6      -C11     -H27     :-179.971553
 C7      -C6      -C12     -C13     :  74.565589
 C7      -C8      -C9      -C10     :  -0.030140
 C7      -C8      -C9      -H25     : 179.988499
 C8      -C7      -C6      -C11     :  -0.182257
 C8      -C7      -C6      -C12     :-179.350628
 C8      -C9      -C10     -C11     :  -0.089207
 C8      -C9      -C10     -H26     :-179.970076
 C9      -C8      -C7      -H23     :-179.990510
 C9      -C10     -C11     -H27     :-179.898299
 C10     -C9      -C8      -H24     :-179.842612
 C10     -C11     -C6      -C12     : 179.188184
 C11     -C6      -C7      -H23     :-179.998056
 C11     -C6      -C12     -C13     :-104.491614
 C11     -C10     -C9      -H25     : 179.892178
 C12     -C3      -C16     -C15     :  -0.248471
 C12     -C3      -C16     -H31     : 179.915547
 C12     -C6      -C7      -H23     :   0.833573
 C12     -C6      -C11     -H27     :  -0.839650
 C12     -C13     -C14     -C15     :   0.027613
 C12     -C13     -C14     -H29     : 179.993466
 C13     -C12     -C3      -C16     :   0.284397
 C13     -C14     -C15     -C16     :   0.032614
 C13     -C14     -C15     -H30     :-179.902396
 C14     -C15     -C16     -H31     : 179.926660
 C15     -C14     -C13     -H28     : 179.942386
 C16     -C15     -C14     -H29     :-179.933468
 C17     -C4      -C18     -H35     :  63.166370
 C17     -C4      -C18     -H36     :-173.137994
 C17     -C4      -C18     -H37     : -55.218834
 C17     -C4      -C19     -H38     : -62.161891
 C17     -C4      -C19     -H39     :  57.840986
 C17     -C4      -C19     -H40     : 177.733180
 C18     -C4      -C17     -H32     : -65.123309
 C18     -C4      -C17     -H33     :  54.421271
 C18     -C4      -C17     -H34     : 174.469288
 C18     -C4      -C19     -H38     :-172.802996
 C18     -C4      -C19     -H39     : -52.800118
 C18     -C4      -C19     -H40     :  67.092076
 C19     -C4      -C17     -H32     :-174.023659
 C19     -C4      -C17     -H33     : -54.479079
 C19     -C4      -C17     -H34     :  65.568938
 C19     -C4      -C18     -H35     : 172.673173
 C19     -C4      -C18     -H36     : -63.631192
 C19     -C4      -C18     -H37     :  54.287968
 C20     -C5      -C21     -H44     : -61.919231
 C20     -C5      -C21     -H45     :  58.153825
 C20     -C5      -C21     -H46     : 177.811652
 C20     -C5      -C22     -H47     :  69.914399
 C20     -C5      -C22     -H48     :-167.375045
 C20     -C5      -C22     -H49     : -49.241450
 C21     -C5      -C20     -H41     :  66.643438
 C21     -C5      -C20     -H42     :-172.389729
 C21     -C5      -C20     -H43     : -53.263905
 C21     -C5      -C22     -H47     :-179.611385
 C21     -C5      -C22     -H48     : -56.900829
 C21     -C5      -C22     -H49     :  61.232767
 C22     -C5      -C20     -H41     : 176.168106
 C22     -C5      -C20     -H42     : -62.865062
 C22     -C5      -C20     -H43     :  56.260763
 C22     -C5      -C21     -H44     :-173.456971
 C22     -C5      -C21     -H45     : -53.383915
 C22     -C5      -C21     -H46     :  66.273912
 H23     -C7      -C8      -H24     :  -0.179522
 H24     -C8      -C9      -H25     :   0.176027
 H25     -C9      -C10     -H26     :   0.011309
 H26     -C10     -C11     -H27     :  -0.018089
 H28     -C13     -C14     -H29     :  -0.091761
 H29     -C14     -C15     -H30     :   0.131522
 H30     -C15     -C16     -H31     :  -0.138211
 
  nuclear repulsion energy.......          2397.762441521 hartrees
 -------------------------------------------------
   end of geometry optimization iteration  1
 -------------------------------------------------
   
  end of program geopt
   
 Time(geopt)  user:       0.499  user+sys:       0.499  wallclock:       0.544
  
  start of program onee
  
  smallest eigenvalue of S:    4.113E-04
  number of canonical orbitals.....          381
  end of program onee
   
 Time(onee)  user:       1.699  user+sys:       1.699  wallclock:       1.429
  
  start of program probe
  
  end of program probe
   
 Time(probe)  user:       0.261  user+sys:       0.261  wallclock:       0.216
  
  start of program grid
  
  end of program grid
   
 Time(grid)  user:      81.607  user+sys:      81.607  wallclock:      42.187
  
  start of program rwr
  
  end of program rwr
   
 Time(rwr)  user:       8.510  user+sys:       8.510  wallclock:      11.001
  
  start of program scf
  
 Energy computed using pseudospectral method.
 Convergence Criterion:
    Energy (econv):       1.00E-05
    RMS density (dconv):  5.00E-06
  
       i  u  d  i  g                   
       t  p  i  c  r                                 RMS    maximum
       e  d  i  u  i                       energy  density   DIIS  
       r  t  s  t  d       total energy    change  change    error 
  
etot    1  N  N  2  U   -1246.01489666715           6.6E-04  7.0E-03
etot    2  Y  Y  6  M   -1246.03322379658  1.8E-02  3.9E-04  2.9E-03
etot    3  N  Y  2  U   -1246.03243330549 -7.9E-04  2.3E-04  6.3E-03
etot    4  Y  Y  6  M   -1246.03681595907  4.4E-03  5.1E-05  2.1E-03
etot    5  Y  Y  6  M   -1246.03705058642  2.3E-04  2.0E-05  3.1E-04
etot    6  N  Y  2  U   -1246.03710927490  5.9E-05  1.3E-05  1.6E-04
etot    7  N  Y  2  U   -1246.03711454473  5.3E-06  8.7E-06  5.2E-05
etot    8  N  Y  2  U   -1246.03711537128  8.3E-07  7.0E-06  2.9E-05
etot    9  N  Y  2  U   -1246.03711590665  5.4E-07  1.3E-06  2.6E-05
etot   10  N  N  2  U   -1246.03711610064  1.9E-07  0.0E+00  0.0E+00
 
  Computing the dispersion energy correction and its gradients...
  
  
 Energy components, in hartrees:
   (A)  Nuclear repulsion............    2397.76244152051
   (E)  Total one-electron terms.....   -6521.91174995682
   (F)    Electron-nuclear...........   -7683.26180612646
   (H)    Kinetic....................    1161.35005616964
   (I)  Total two-electron terms.....    2878.11219233567
   (J)    Coulomb....................    3032.89322999695
   (K)    Exchange+Correlation.......    -154.78103766128
   (L)  Electronic energy............   -3643.79955762115  (E+I)
   (N0) D3 correction................      -0.08396569255
   (N)  Total energy.................   -1246.12108179319  (A+L+N0)
   (O)  Gas phase energy.............   -1246.12108179319
  
 SCFE: SCF energy: DFT(b3pw91-d3)     -1246.12108179319 hartrees   iterations:  10
  
 
 HOMO energy:    -0.12733
 LUMO energy:    -0.03546
 
  Orbital energies (hartrees): 
   -77.00329   -10.19802   -10.18891   -10.18252   -10.18223   -10.18011
   -10.17856   -10.17167   -10.17125   -10.16854   -10.16839   -10.16815
   -10.16814   -10.16778   -10.16545   -10.16543   -10.15800   -10.15761
   -10.15666   -10.15405   -10.14748    -6.52654    -4.68346    -4.68314
    -4.67943    -3.22677    -1.96266    -1.94679    -1.94453    -0.88990
    -0.85948    -0.84425    -0.81569    -0.78577    -0.76807    -0.73864
    -0.72740    -0.69762    -0.68760    -0.67942    -0.67760    -0.67263
    -0.62970    -0.61048    -0.59474    -0.58113    -0.57605    -0.53831
    -0.50829    -0.49475    -0.47885    -0.47325    -0.47158    -0.45683
    -0.45068    -0.44764    -0.44095    -0.43600    -0.42744    -0.42393
    -0.41019    -0.40497    -0.39581    -0.39223    -0.38598    -0.37900
    -0.37202    -0.36777    -0.36476    -0.36282    -0.35875    -0.35443
    -0.34903    -0.34011    -0.33874    -0.33544    -0.32743    -0.32015
    -0.31396    -0.30219    -0.27121    -0.26240    -0.25552    -0.24818
    -0.24628    -0.18750    -0.18537    -0.16604    -0.16429    -0.12733
    -0.03546    -0.01890    -0.01170     0.00217     0.00520     0.03355
     0.04839     0.06543     0.08789     0.09200
 
  end of program scf
   
 Time(scf)  user:     165.019  user+sys:     165.019  wallclock:      88.835
  
  start of program der1a
  
  end of program der1a
   
 Time(der1a)  user:       4.998  user+sys:       4.998  wallclock:       2.757
  
  start of program rwr
  
  end of program rwr
   
 Time(rwr)  user:       8.766  user+sys:       8.766  wallclock:      11.543
  
  start of program der1b
  
   
  forces (hartrees/bohr) : total     
   
 atom  label           x              y              z
 ---- --------   -------------  -------------  -------------
    1 P1         -2.911706E-03   4.499949E-03   1.911390E-01
    2 Pd2         6.486619E-03  -1.616158E-03   2.164357E-02
    3 C3          1.735994E-01  -2.530514E-03  -7.005626E-02
    4 C4         -9.963766E-02   1.726717E-01  -5.954472E-02
    5 C5         -8.433818E-02  -1.794337E-01  -6.013184E-02
    6 C6         -4.636635E-03  -5.165950E-04   5.730069E-02
    7 C7          9.583161E-03   1.519381E-02   2.059260E-03
    8 C8          3.782657E-04  -3.014418E-03   2.586002E-03
    9 C9         -2.271637E-04   3.222876E-04   1.808622E-03
   10 C10         3.184551E-03   1.048935E-03   3.642432E-03
   11 C11        -4.700284E-03  -1.636191E-02   1.289350E-03
   12 C12         1.341151E-02   4.855587E-03  -5.001300E-02
   13 C13         1.342755E-02   1.386114E-04  -2.390758E-03
   14 C14        -2.099363E-03   8.165776E-04  -2.095101E-03
   15 C15        -1.984959E-03   9.695456E-04   5.216746E-04
   16 C16         1.714380E-02   1.876054E-03  -1.658860E-02
   17 C17         1.258905E-02   1.595103E-02  -3.168305E-04
   18 C18        -9.677665E-03   3.473147E-03  -1.550973E-02
   19 C19        -1.992925E-02   9.211009E-03   1.198697E-02
   20 C20        -1.733155E-02  -2.033881E-03   5.043069E-03
   21 C21         5.625862E-03  -1.893172E-02   7.043888E-03
   22 C22        -1.613831E-03  -6.487296E-03  -1.892222E-02
   23 H23        -4.173946E-03  -6.523291E-03  -9.660122E-03
   24 H24        -2.980388E-03  -5.173910E-03  -7.880043E-03
   25 H25        -6.148440E-04   1.502355E-03  -8.907983E-03
   26 H26         1.722429E-03   7.455319E-03  -6.299669E-03
   27 H27         4.889499E-03   6.844833E-03  -5.601187E-03
   28 H28        -9.473808E-03  -9.612363E-04   9.386341E-03
   29 H29        -7.336939E-03  -6.627606E-04   6.466748E-03
   30 H30        -1.559979E-03  -1.427258E-03   9.005529E-03
   31 H31         2.959632E-03  -1.353341E-03   7.273423E-03
   32 H32        -7.041445E-03   2.253504E-03   7.470900E-03
   33 H33         6.921711E-04  -1.032568E-02   2.742263E-03
   34 H34        -4.317685E-03  -2.442204E-03  -7.760741E-03
   35 H35        -4.739830E-03  -2.086718E-04   5.878076E-03
   36 H36         7.228673E-03   5.608398E-03  -5.185343E-04
   37 H37         5.363551E-03  -7.553363E-03   3.557575E-03
   38 H38        -1.527666E-03  -2.861289E-03  -9.115290E-03
   39 H39         4.256237E-03  -6.295238E-03  -3.048873E-03
   40 H40         7.437875E-03   8.044485E-03   5.616093E-04
   41 H41         2.796262E-03  -8.568832E-04  -9.037569E-03
   42 H42         4.660712E-03  -6.329551E-03   4.437793E-03
   43 H43         6.488935E-03   7.499283E-03   1.345403E-04
   44 H44        -1.469961E-03   1.450201E-03  -1.057023E-02
   45 H45         1.449967E-03   9.388301E-03  -1.450441E-03
   46 H46        -1.089654E-02  -1.216239E-04   4.225570E-04
   47 H47         4.375697E-03  -6.530280E-03   3.733824E-03
   48 H48        -9.056701E-03   1.825508E-03   3.030723E-03
   49 H49         3.341263E-03   7.992393E-03   4.326130E-03
 -------------   -------------  -------------  -------------
     total       -1.185341E-03   3.400430E-04  -9.272016E-04
   
  end of program der1b
   
 Time(der1b)  user:      53.774  user+sys:      53.774  wallclock:      28.996
  
  start of program geopt
  
 ----------------------------------------------------------------------------
  Geometry optimization step  2
  Total energy:     -1246.12108179319 hartrees
 ----------------------------------------------------------------------------
  
  
  Level shifts adjusted to satisfy step-size constraints
   Step size:    0.3000101
   Cos(theta):   0.9493287
   Final level shift:  -7.9626843E-01
  
  energy change:          -1.7080E-01 .  (  2.5000E-04 )
  gradient maximum:        2.2675E-01 .  (  2.2500E-03 )
  gradient rms:            3.2958E-02 .  (  1.5000E-03 )
  displacement maximum:    1.5527E-01 .  (  9.0000E-03 )
  displacement rms:        2.4175E-02 .  (  6.0000E-03 )
  
  predicted energy change:  -9.4077E-02
  step size:     0.30001
  trust radius:  0.30000
  
  molecular structure not yet converged...
  
  center of mass moved by:
     x:     2.4785E-02     y:    -3.5860E-02     z:     5.9307E-02
  
  new geometry: 
                                   angstroms
  atom               x                 y                 z
  P1           -0.0519966150     -0.0278846218      0.0291696607 
  Pd2           0.0298925040     -0.0575224502      2.2570612385 
  C3            1.4932830281     -0.0090145587     -0.5700110229 
  C4           -0.8349838401      1.3471687154     -0.4926062736 
  C5           -0.7941285139     -1.3878145971     -0.5850680436 
  C6            2.7852946276     -0.4457269637      1.6348168548 
  C7            3.2292772113      0.5830339922      2.4965564322 
  C8            3.3813572819      0.4223872484      3.8782952994 
  C9            3.1022034614     -0.8028750939      4.4845368183 
  C10           2.6693165424     -1.8496048617      3.6696673779 
  C11           2.5176397169     -1.6656102208      2.2909883818 
  C12           2.6874061687     -0.2200061927      0.1954839518 
  C13           3.9126928492     -0.1919692182     -0.5005079371 
  C14           4.0192657182      0.0195954284     -1.8747316423 
  C15           2.8620122480      0.2196230354     -2.6219074597 
  C16           1.6365109729      0.2003713747     -1.9596796696 
  C17           0.1311163906      2.5567135287     -0.4309452328 
  C18          -1.5055404163      1.3848236033     -1.8897906674 
  C19          -1.9749181515      1.7090512532      0.4995401435 
  C20          -2.2717362114     -1.5120573385     -0.1492083566 
  C21          -0.1065182096     -2.6424907169      0.0056152760 
  C22          -0.7524787328     -1.6114986145     -2.1173956377 
  H23           3.4724316910      1.5802061957      2.1197924075 
  H24           3.7299744059      1.2634570930      4.4896218483 
  H25           3.2179564939     -0.9414702900      5.5658048399 
  H26           2.4410441031     -2.8260954646      4.1134507377 
  H27           2.1754432320     -2.5414466702      1.7483806434 
  H28           4.8634154776     -0.3429414378      0.0168245220 
  H29           5.0017876624      0.0305174528     -2.3618447786 
  H30           2.9056910688      0.3874005829     -3.7045154325 
  H31           0.7557891788      0.3572037413     -2.5820243103 
  H32           0.9322936245      2.4891192949     -1.1882481246 
  H33          -0.4083775953      3.5056768972     -0.6135670289 
  H34           0.6182257460      2.6315553024      0.5607605415 
  H35          -0.7937184344      1.2739681560     -2.7258488079 
  H36          -2.2889231603      0.6152596597     -1.9991900339 
  H37          -2.0043799361      2.3594416267     -2.0515993589 
  H38          -1.5866122469      1.8097459332      1.5319659248 
  H39          -2.4603322909      2.6674163121      0.2235410985 
  H40          -2.7672773722      0.9402673002      0.5210415558 
  H41          -2.3736469411     -1.3961011128      0.9470094325 
  H42          -2.9141914223     -0.7553391824     -0.6324450500 
  H43          -2.6861523117     -2.5009233088     -0.4250617473 
  H44          -0.1705073196     -2.6483935713      1.1102320213 
  H45          -0.5795137276     -3.5716472334     -0.3686384075 
  H46           0.9624835140     -2.6867312204     -0.2744330391 
  H47          -1.2302059200     -0.7924951732     -2.6816924966 
  H48           0.2814191844     -1.7311731361     -2.4887367239 
  H49          -1.2927491613     -2.5381330342     -2.3907959072 
   
 
  bond lengths (angstroms):
 
 P1      -Pd2     :   2.229593      P1      -C3      :   1.657487
 P1      -C4      :   1.666160      P1      -C5      :   1.666571
 C3      -C12     :   1.434026      C3      -C16     :   1.412634
 C4      -C17     :   1.549242      C4      -C18     :   1.550222
 C4      -C19     :   1.553951      C5      -C20     :   1.545553
 C5      -C21     :   1.547878      C5      -C22     :   1.549128
 C6      -C7      :   1.413529      C6      -C11     :   1.410785
 C6      -C12     :   1.460209      C7      -C8      :   1.399335
 C7      -H23     :   1.093356      C8      -C9      :   1.395250
 C8      -H24     :   1.096655      C9      -C10     :   1.395366
 C9      -H25     :   1.096243      C10     -C11     :   1.399148
 C10     -H26     :   1.096625      C11     -H27     :   1.085639
 C12     -C13     :   1.409439      C13     -C14     :   1.394492
 C13     -H28     :   1.092840      C14     -C15     :   1.391948
 C14     -H29     :   1.096699      C15     -C16     :   1.393115
 C15     -H30     :   1.096402      C16     -H31     :   1.089761
 C17     -H32     :   1.104519      C17     -H33     :   1.106768
 C17     -H34     :   1.107410      C18     -H35     :   1.103618
 C18     -H36     :   1.103578      C18     -H37     :   1.106753
 C19     -H38     :   1.107621      C19     -H39     :   1.109174
 C19     -H40     :   1.104230      C20     -H41     :   1.107034
 C20     -H42     :   1.104033      C20     -H43     :   1.107110
 C21     -H44     :   1.106484      C21     -H45     :   1.107756
 C21     -H46     :   1.105961      C22     -H47     :   1.103368
 C22     -H48     :   1.105062      C22     -H49     :   1.106929
 
  bond angles:
 
 C3      -P1      -Pd2     : 109.094858  C4      -P1      -Pd2     : 109.947077
 C4      -P1      -C3      : 108.392130  C5      -P1      -Pd2     : 111.949597
 C5      -P1      -C3      : 106.930608  C5      -P1      -C4      : 110.410925
 C12     -C3      -P1      : 125.569384  C16     -C3      -P1      : 116.861592
 C16     -C3      -C12     : 117.549183  C17     -C4      -P1      : 109.804528
 C18     -C4      -P1      : 120.368830  C18     -C4      -C17     : 106.657329
 C19     -C4      -P1      : 109.692940  C19     -C4      -C17     : 104.490771
 C19     -C4      -C18     : 104.623771  C20     -C5      -P1      : 112.791977
 C21     -C5      -P1      : 108.842755  C21     -C5      -C20     : 104.591245
 C22     -C5      -P1      : 118.061577  C22     -C5      -C20     : 107.040469
 C22     -C5      -C21     : 104.387831  C11     -C6      -C7      : 113.913376
 C12     -C6      -C7      : 120.628772  C12     -C6      -C11     : 125.408818
 C8      -C7      -C6      : 123.542430  H23     -C7      -C6      : 121.570420
 H23     -C7      -C8      : 114.884737  C9      -C8      -C7      : 120.538115
 H24     -C8      -C7      : 119.797680  H24     -C8      -C9      : 119.662588
 C10     -C9      -C8      : 117.844982  H25     -C9      -C8      : 121.229469
 H25     -C9      -C10     : 120.925545  C11     -C10     -C9      : 120.691962
 H26     -C10     -C9      : 119.750234  H26     -C10     -C11     : 119.557283
 C10     -C11     -C6      : 123.466507  H27     -C11     -C6      : 121.662682
 H27     -C11     -C10     : 114.870707  C6      -C12     -C3      : 127.210341
 C13     -C12     -C3      : 117.218355  C13     -C12     -C6      : 115.565611
 C14     -C13     -C12     : 123.785634  H28     -C13     -C12     : 121.317637
 H28     -C13     -C14     : 114.896244  C15     -C14     -C13     : 119.159727
 H29     -C14     -C13     : 120.509820  H29     -C14     -C15     : 120.330343
 C16     -C15     -C14     : 118.308026  H30     -C15     -C14     : 121.258503
 H30     -C15     -C16     : 120.433426  C15     -C16     -C3      : 123.977660
 H31     -C16     -C3      : 120.078683  H31     -C16     -C15     : 115.943476
 H32     -C17     -C4      : 112.164369  H33     -C17     -C4      : 111.031200
 H33     -C17     -H32     : 107.032646  H34     -C17     -C4      : 111.266309
 H34     -C17     -H32     : 107.402273  H34     -C17     -H33     : 107.711804
 H35     -C18     -C4      : 113.662067  H36     -C18     -C4      : 112.300191
 H36     -C18     -H35     : 108.222420  H37     -C18     -C4      : 110.372427
 H37     -C18     -H35     : 105.569691  H37     -C18     -H36     : 106.238600
 H38     -C19     -C4      : 111.046189  H39     -C19     -C4      : 111.307994
 H39     -C19     -H38     : 107.867382  H40     -C19     -C4      : 112.128472
 H40     -C19     -H38     : 107.259860  H40     -C19     -H39     : 106.999796
 H41     -C20     -C5      : 111.029199  H42     -C20     -C5      : 112.197505
 H42     -C20     -H41     : 107.942441  H43     -C20     -C5      : 111.063435
 H43     -C20     -H41     : 107.808071  H43     -C20     -H42     : 106.578177
 H44     -C21     -C5      : 111.075536  H45     -C21     -C5      : 111.179266
 H45     -C21     -H44     : 107.945409  H46     -C21     -C5      : 111.418495
 H46     -C21     -H44     : 107.967343  H46     -C21     -H45     : 107.074496
 H47     -C22     -C5      : 112.771943  H48     -C22     -C5      : 111.912126
 H48     -C22     -H47     : 108.277267  H49     -C22     -C5      : 110.613600
 H49     -C22     -H47     : 106.483069  H49     -C22     -H48     : 106.438979
 
  torsional angles:
 
 P1      -C3      -C12     -C6      :  -2.145327
 P1      -C3      -C12     -C13     : 178.766259
 P1      -C3      -C16     -C15     :-178.784782
 P1      -C3      -C16     -H31     :   1.054290
 P1      -C4      -C17     -H32     :  69.546376
 P1      -C4      -C17     -H33     :-170.751559
 P1      -C4      -C17     -H34     : -50.790955
 P1      -C4      -C18     -H35     : -63.576364
 P1      -C4      -C18     -H36     :  59.702914
 P1      -C4      -C18     -H37     : 178.043570
 P1      -C4      -C19     -H38     :  55.108712
 P1      -C4      -C19     -H39     : 175.304189
 P1      -C4      -C19     -H40     : -64.868933
 P1      -C5      -C20     -H41     : -50.405233
 P1      -C5      -C20     -H42     :  70.480836
 P1      -C5      -C20     -H43     :-170.350778
 P1      -C5      -C21     -H44     :  59.064621
 P1      -C5      -C21     -H45     : 179.292157
 P1      -C5      -C21     -H46     : -61.352073
 P1      -C5      -C22     -H47     : -60.028060
 P1      -C5      -C22     -H48     :  62.347637
 P1      -C5      -C22     -H49     :-179.149828
 Pd2     -P1      -C3      -C12     :  10.316367
 Pd2     -P1      -C3      -C16     :-171.350354
 Pd2     -P1      -C4      -C17     :  79.057491
 Pd2     -P1      -C4      -C18     :-156.600496
 Pd2     -P1      -C4      -C19     : -35.233062
 Pd2     -P1      -C5      -C20     :  62.672603
 Pd2     -P1      -C5      -C21     : -52.930102
 Pd2     -P1      -C5      -C22     :-171.579864
 C3      -P1      -C4      -C17     : -40.113525
 C3      -P1      -C4      -C18     :  84.228488
 C3      -P1      -C4      -C19     :-154.404078
 C3      -P1      -C5      -C20     :-177.897693
 C3      -P1      -C5      -C21     :  66.499602
 C3      -P1      -C5      -C22     : -52.150160
 C3      -C12     -C6      -C7      :-104.517948
 C3      -C12     -C6      -C11     :  78.188334
 C3      -C12     -C13     -C14     :  -0.375400
 C3      -C12     -C13     -H28     : 179.890955
 C3      -C16     -C15     -C14     :   0.071906
 C3      -C16     -C15     -H30     : 179.995965
 C4      -P1      -C3      -C12     : 130.022751
 C4      -P1      -C3      -C16     : -51.643970
 C4      -P1      -C5      -C20     : -60.175708
 C4      -P1      -C5      -C21     :-175.778413
 C4      -P1      -C5      -C22     :  65.571825
 C5      -P1      -C3      -C12     :-110.939142
 C5      -P1      -C3      -C16     :  67.394137
 C5      -P1      -C4      -C17     :-156.932753
 C5      -P1      -C4      -C18     : -32.590740
 C5      -P1      -C4      -C19     :  88.776694
 C6      -C7      -C8      -C9      :   0.507253
 C6      -C7      -C8      -H24     :-179.956967
 C6      -C11     -C10     -C9      :   0.161135
 C6      -C11     -C10     -H26     : 179.897821
 C6      -C12     -C3      -C16     : 179.531711
 C6      -C12     -C13     -C14     :-179.570606
 C6      -C12     -C13     -H28     :   0.695749
 C7      -C6      -C11     -C10     :   0.247822
 C7      -C6      -C11     -H27     :-179.628696
 C7      -C6      -C12     -C13     :  74.583425
 C7      -C8      -C9      -C10     :  -0.057532
 C7      -C8      -C9      -H25     : 179.965050
 C8      -C7      -C6      -C11     :  -0.579624
 C8      -C7      -C6      -C12     :-178.166963
 C8      -C9      -C10     -C11     :  -0.260736
 C8      -C9      -C10     -H26     :-179.996917
 C9      -C8      -C7      -H23     : 179.949012
 C9      -C10     -C11     -H27     :-179.954711
 C10     -C9      -C8      -H24     :-179.593936
 C10     -C11     -C6      -C12     : 177.700542
 C11     -C6      -C7      -H23     :-179.985241
 C11     -C6      -C12     -C13     :-102.710293
 C11     -C10     -C9      -H25     : 179.716754
 C12     -C3      -C16     -C15     :  -0.313857
 C12     -C3      -C16     -H31     : 179.525215
 C12     -C6      -C7      -H23     :   2.427419
 C12     -C6      -C11     -H27     :  -2.175976
 C12     -C13     -C14     -C15     :   0.135704
 C12     -C13     -C14     -H29     :-179.984447
 C13     -C12     -C3      -C16     :   0.443296
 C13     -C14     -C15     -C16     :   0.026367
 C13     -C14     -C15     -H30     :-179.897037
 C14     -C15     -C16     -H31     :-179.773231
 C15     -C14     -C13     -H28     : 179.884845
 C16     -C15     -C14     -H29     :-179.853703
 C17     -C4      -C18     -H35     :  62.241997
 C17     -C4      -C18     -H36     :-174.478725
 C17     -C4      -C18     -H37     : -56.138068
 C17     -C4      -C19     -H38     : -62.548763
 C17     -C4      -C19     -H39     :  57.646714
 C17     -C4      -C19     -H40     : 177.473592
 C18     -C4      -C17     -H32     : -62.414999
 C18     -C4      -C17     -H33     :  57.287066
 C18     -C4      -C17     -H34     : 177.247671
 C18     -C4      -C19     -H38     :-174.474989
 C18     -C4      -C19     -H39     : -54.279512
 C18     -C4      -C19     -H40     :  65.547365
 C19     -C4      -C17     -H32     :-172.872717
 C19     -C4      -C17     -H33     : -53.170652
 C19     -C4      -C17     -H34     :  66.789953
 C19     -C4      -C18     -H35     : 172.606901
 C19     -C4      -C18     -H36     : -64.113821
 C19     -C4      -C18     -H37     :  54.226836
 C20     -C5      -C21     -H44     : -61.719205
 C20     -C5      -C21     -H45     :  58.508331
 C20     -C5      -C21     -H46     : 177.864101
 C20     -C5      -C22     -H47     :  68.474128
 C20     -C5      -C22     -H48     :-169.150175
 C20     -C5      -C22     -H49     : -50.647640
 C21     -C5      -C20     -H41     :  67.719086
 C21     -C5      -C20     -H42     :-171.394845
 C21     -C5      -C20     -H43     : -52.226459
 C21     -C5      -C22     -H47     : 179.001090
 C21     -C5      -C22     -H48     : -58.623213
 C21     -C5      -C22     -H49     :  59.879322
 C22     -C5      -C20     -H41     : 178.105126
 C22     -C5      -C20     -H42     : -61.008806
 C22     -C5      -C20     -H43     :  58.159581
 C22     -C5      -C21     -H44     :-174.015586
 C22     -C5      -C21     -H45     : -53.788050
[...]
    C18      Z    -0.00002   0.00008   0.00045  -0.00006   0.00045   0.00012
    C19      X     0.00028   0.00006  -0.00002  -0.00005  -0.00000  -0.00001
    C19      Y     0.00016  -0.00007  -0.00001  -0.00002   0.00003  -0.00007
    C19      Z     0.00024   0.00011   0.00001  -0.00005  -0.00002   0.00004
    C20      X    -0.00004   0.00001  -0.00003  -0.00000  -0.00001   0.00001
    C20      Y    -0.00002   0.00001   0.00003  -0.00000   0.00002  -0.00003
    C20      Z    -0.00008   0.00005  -0.00004  -0.00001  -0.00002   0.00004
    C21      X     0.00025   0.00003  -0.00005   0.00005  -0.00001  -0.00005
    C21      Y     0.00025   0.00006  -0.00002  -0.00002  -0.00001   0.00001
    C21      Z     0.00130   0.00030   0.00000  -0.00024  -0.00006   0.00021
    C22      X     0.00030  -0.00006  -0.00093   0.00016  -0.00084  -0.00019
    C22      Y    -0.00020  -0.00002   0.00058  -0.00010   0.00045   0.00006
    C22      Z     0.00002   0.00003  -0.00001  -0.00001   0.00005   0.00003
    H23      X    -0.00244   0.20453   0.02402   0.25628  -0.01925   0.16439
    H23      Y    -0.00550   0.39478   0.04564   0.49500  -0.03565   0.31747
    H23      Z     0.00264  -0.24130  -0.02841  -0.30347   0.02318  -0.19739
    H24      X     0.02071  -0.22191   0.00712  -0.05070  -0.05501   0.17987
    H24      Y     0.04020  -0.42716   0.01386  -0.09676  -0.10622   0.34727
    H24      Z     0.02694  -0.28589   0.00988  -0.06012  -0.07160   0.23628
    H25      X     0.00811  -0.03221   0.00550   0.03332  -0.00070   0.01065
    H25      Y    -0.00109   0.00561  -0.00080  -0.00355   0.00140  -0.00627
    H25      Z    -0.11698   0.51493  -0.08576  -0.50968   0.02324  -0.21547
    H26      X    -0.09016   0.06392  -0.01517  -0.12534  -0.04994   0.19174
    H26      Y    -0.24682   0.17447  -0.04164  -0.34349  -0.13658   0.52495
    H26      Z     0.14432  -0.10734   0.02551   0.20958   0.08232  -0.31526
    H27      X     0.12345   0.02322  -0.00448  -0.02678  -0.00611   0.02160
    H27      Y     0.76622   0.14857  -0.02749  -0.16451  -0.03805   0.13566
    H27      Z     0.45076   0.08816  -0.01626  -0.09790  -0.02339   0.08357
    H28      X    -0.00016  -0.03407  -0.36264   0.00079   0.56312   0.13262
    H28      Y    -0.00002   0.00065   0.01058  -0.00053  -0.01661  -0.00428
    H28      Z    -0.00026  -0.02248  -0.23285  -0.00010   0.36370   0.08528
    H29      X     0.00285   0.02346   0.54223  -0.06703  -0.11737  -0.04393
    H29      Y     0.00024   0.00252   0.05773  -0.00709  -0.01177  -0.00446
    H29      Z    -0.00134  -0.01167  -0.27385   0.03414   0.05316   0.02073
    H30      X    -0.00005  -0.00032  -0.01631   0.00288  -0.01531  -0.00343
    H30      Y    -0.00019  -0.00174  -0.07678   0.01358  -0.08196  -0.01901
    H30      Z     0.00194   0.01304   0.57253  -0.10198   0.61315   0.14206
    H31      X    -0.00044  -0.00134  -0.06643   0.01250  -0.07200  -0.01634
    H31      Y     0.00001   0.00006   0.00451  -0.00087   0.00523   0.00119
    H31      Z    -0.00025  -0.00087  -0.04506   0.00835  -0.04980  -0.01139
    H32      X    -0.00039   0.00126   0.00114   0.00037   0.00002   0.00025
    H32      Y     0.00005   0.00002   0.00004  -0.00000   0.00011   0.00005
    H32      Z     0.00028  -0.00155  -0.00116  -0.00062   0.00009  -0.00040
    H33      X     0.00001   0.00074   0.00040   0.00059   0.00008   0.00029
    H33      Y     0.00002  -0.00139  -0.00085  -0.00115  -0.00020  -0.00052
    H33      Z     0.00003   0.00007  -0.00001   0.00005  -0.00003   0.00001
    H34      X     0.00010   0.00053  -0.00012   0.00066  -0.00002   0.00047
    H34      Y    -0.00009  -0.00028   0.00005  -0.00032   0.00002  -0.00032
    H34      Z     0.00051   0.00196  -0.00010   0.00209  -0.00015   0.00151
    H35      X    -0.00029   0.00106   0.00645  -0.00081   0.00618   0.00167
    H35      Y     0.00006  -0.00025  -0.00155   0.00019  -0.00147  -0.00041
    H35      Z     0.00031  -0.00112  -0.00665   0.00081  -0.00644  -0.00177
    H36      X    -0.00052   0.00071   0.00324   0.00004   0.00256   0.00111
    H36      Y    -0.00044   0.00057   0.00280  -0.00000   0.00223   0.00091
    H36      Z    -0.00012   0.00019   0.00081   0.00003   0.00063   0.00029
    H37      X    -0.00004  -0.00011   0.00029  -0.00008   0.00037  -0.00001
    H37      Y     0.00005   0.00012  -0.00113   0.00020  -0.00120  -0.00011
    H37      Z    -0.00007  -0.00010   0.00018  -0.00004   0.00015  -0.00000
    H38      X    -0.00086  -0.00040  -0.00003   0.00017   0.00006  -0.00019
    H38      Y     0.00021  -0.00006   0.00001  -0.00001   0.00006  -0.00008
    H38      Z    -0.00260  -0.00121  -0.00000   0.00055   0.00018  -0.00046
    H39      X    -0.00005  -0.00036   0.00019   0.00004   0.00011  -0.00026
    H39      Y     0.00015   0.00088  -0.00031  -0.00016  -0.00029   0.00059
    H39      Z     0.00001  -0.00021  -0.00002   0.00005   0.00008  -0.00014
    H40      X    -0.00245   0.00015   0.00025   0.00047  -0.00010   0.00058
    H40      Y    -0.00219   0.00006   0.00024   0.00040  -0.00008   0.00046
    H40      Z    -0.00033   0.00003   0.00001   0.00004  -0.00005   0.00010
    H41      X    -0.00009   0.00006  -0.00003  -0.00003  -0.00004   0.00005
    H41      Y     0.00002  -0.00000   0.00001  -0.00000  -0.00001  -0.00003
    H41      Z     0.00059  -0.00048   0.00027   0.00014   0.00007  -0.00039
    H42      X     0.00022  -0.00010   0.00032  -0.00000   0.00022  -0.00021
    H42      Y    -0.00029   0.00015  -0.00045  -0.00003  -0.00029   0.00029
    H42      Z     0.00019  -0.00007   0.00021   0.00002   0.00016  -0.00018
    H43      X     0.00024  -0.00005   0.00019   0.00002  -0.00008   0.00006
    H43      Y     0.00054  -0.00016   0.00021   0.00007  -0.00007   0.00009
    H43      Z     0.00019  -0.00007   0.00004   0.00003  -0.00002   0.00001
    H44      X     0.00071   0.00023   0.00004  -0.00006  -0.00002   0.00006
    H44      Y     0.00084   0.00022   0.00000  -0.00012  -0.00005   0.00008
    H44      Z    -0.01522  -0.00338   0.00009   0.00266   0.00076  -0.00233
    H45      X    -0.00256  -0.00056   0.00018   0.00024   0.00011  -0.00011
    H45      Y    -0.00423  -0.00092   0.00035   0.00040   0.00020  -0.00015
    H45      Z    -0.00209  -0.00048   0.00015   0.00019   0.00011  -0.00007
    H46      X    -0.00293  -0.00029   0.00057  -0.00041   0.00015   0.00034
    H46      Y     0.00017   0.00000  -0.00009   0.00001  -0.00001  -0.00002
    H46      Z     0.00078   0.00011  -0.00011   0.00021   0.00000  -0.00018
    H47      X    -0.00108  -0.00014   0.00280  -0.00044   0.00204   0.00024
    H47      Y     0.00248   0.00026  -0.00604   0.00093  -0.00438  -0.00054
    H47      Z    -0.00124  -0.00013   0.00305  -0.00048   0.00223   0.00026
    H48      X    -0.00247   0.00069   0.00849  -0.00155   0.00815   0.00200
    H48      Y     0.00037  -0.00016  -0.00121   0.00021  -0.00124  -0.00034
    H48      Z     0.00101  -0.00028  -0.00346   0.00062  -0.00334  -0.00082
    H49      X    -0.00009   0.00009   0.00070  -0.00004   0.00087   0.00032
    H49      Y    -0.00027   0.00008   0.00113  -0.00008   0.00124   0.00041
    H49      Z    -0.00002  -0.00002   0.00029  -0.00001   0.00030   0.00010
  
  vibration #          139       140       141
                 --------- --------- ---------
  frequencies      3207.93   3209.86   3251.19
  intensities        22.39     19.13      7.50
  reduc. mass         0.28      0.38      0.88
  force const         1.69      2.30      5.47
    P1       X     0.00001  -0.00004   0.00002
    P1       Y    -0.00001   0.00000  -0.00002
    P1       Z     0.00001   0.00003   0.00011
    Pd2      X     0.00001  -0.00001  -0.00000
    Pd2      Y     0.00002  -0.00000  -0.00000
    Pd2      Z     0.00000   0.00000   0.00000
    C3       X    -0.00000  -0.00015   0.00056
    C3       Y     0.00001   0.00005   0.00041
    C3       Z    -0.00011  -0.00021  -0.00261
    C4       X    -0.00001  -0.00001  -0.00014
    C4       Y    -0.00001   0.00002  -0.00002
    C4       Z    -0.00000  -0.00001   0.00010
    C5       X    -0.00000  -0.00001  -0.00010
    C5       Y     0.00001  -0.00003  -0.00001
    C5       Z     0.00000  -0.00001   0.00010
    C6       X     0.00022   0.00011   0.00003
    C6       Y     0.00054  -0.00005   0.00002
    C6       Z     0.00114  -0.00015  -0.00001
    C7       X    -0.00997   0.00171  -0.00007
    C7       Y    -0.01882   0.00338  -0.00015
    C7       Z     0.01358  -0.00231   0.00010
    C8       X    -0.02167   0.00236  -0.00005
    C8       Y    -0.04126   0.00453  -0.00009
    C8       Z    -0.02581   0.00288  -0.00007
    C9       X     0.00385  -0.00041   0.00001
    C9       Y     0.00075  -0.00013   0.00000
    C9       Z    -0.05072   0.00496  -0.00006
    C10      X     0.01124  -0.00111   0.00001
    C10      Y     0.02931  -0.00287   0.00006
    C10      Z    -0.01598   0.00161  -0.00003
    C11      X     0.00120  -0.00014   0.00001
    C11      Y     0.00664  -0.00080   0.00004
    C11      Z     0.00534  -0.00073   0.00002
    C12      X    -0.00018  -0.00157  -0.00059
    C12      Y    -0.00007  -0.00024   0.00002
    C12      Z     0.00018   0.00120  -0.00035
    C13      X     0.00317   0.03612  -0.00132
    C13      Y    -0.00010  -0.00148   0.00007
    C13      Z     0.00232   0.02652  -0.00110
    C14      X     0.00657   0.05692  -0.00285
    C14      Y     0.00071   0.00612  -0.00017
    C14      Z    -0.00328  -0.02914   0.00036
    C15      X    -0.00019  -0.00201  -0.00265
    C15      Y     0.00058   0.00437  -0.00200
    C15      Z    -0.00445  -0.03375   0.01424
    C16      X     0.00039   0.00471   0.06831
    C16      Y    -0.00006  -0.00063  -0.00468
    C16      Z     0.00053   0.00493   0.04418
    C17      X     0.00001  -0.00007  -0.00008
    C17      Y    -0.00002   0.00007  -0.00001
    C17      Z    -0.00007   0.00006   0.00023
    C18      X    -0.00003  -0.00059  -0.00255
    C18      Y    -0.00002   0.00003  -0.00003
    C18      Z     0.00004   0.00038   0.00205
    C19      X    -0.00001  -0.00002   0.00013
    C19      Y    -0.00004   0.00003   0.00000
    C19      Z    -0.00002   0.00001   0.00022
    C20      X     0.00003  -0.00003   0.00004
    C20      Y    -0.00001  -0.00000  -0.00001
    C20      Z     0.00002  -0.00002   0.00018
    C21      X     0.00011  -0.00006  -0.00004
    C21      Y     0.00004  -0.00004   0.00004
    C21      Z    -0.00006   0.00002   0.00015
    C22      X    -0.00001  -0.00064  -0.00330
    C22      Y     0.00001   0.00020   0.00174
    C22      Z     0.00002   0.00007   0.00034
    H23      X     0.11096  -0.01953   0.00079
    H23      Y     0.21362  -0.03863   0.00147
    H23      Z    -0.13517   0.02393  -0.00093
    H24      X     0.23286  -0.02567   0.00053
    H24      Y     0.44840  -0.04938   0.00104
    H24      Z     0.29870  -0.03311   0.00075
    H25      X    -0.03537   0.00349  -0.00002
    H25      Y     0.00440  -0.00043  -0.00001
    H25      Z     0.55637  -0.05421   0.00067
    H26      X    -0.11763   0.01171  -0.00024
    H26      Y    -0.32095   0.03176  -0.00059
    H26      Z     0.18970  -0.01889   0.00040
    H27      X    -0.01223   0.00149  -0.00003
    H27      Y    -0.07494   0.00891  -0.00028
    H27      Z    -0.04643   0.00559  -0.00022
    H28      X    -0.03616  -0.41341   0.01416
    H28      Y     0.00094   0.01279  -0.00046
    H28      Z    -0.02390  -0.27196   0.00947
    H29      X    -0.07246  -0.63016   0.02346
    H29      Y    -0.00767  -0.06715   0.00235
    H29      Z     0.03641   0.31824  -0.01033
    H30      X    -0.00081  -0.00552   0.00683
    H30      Y    -0.00650  -0.04892   0.01914
    H30      Z     0.04847   0.36659  -0.14241
    H31      X    -0.00697  -0.07158  -0.78915
    H31      Y     0.00051   0.00497   0.05110
    H31      Z    -0.00498  -0.04897  -0.50940
    H32      X    -0.00027   0.00052   0.00187
    H32      Y    -0.00000   0.00019   0.00012
    H32      Z     0.00026  -0.00048  -0.00090
    H33      X    -0.00019   0.00050  -0.00014
    H33      Y     0.00045  -0.00103   0.00024
    H33      Z    -0.00004  -0.00003   0.00003
    H34      X     0.00024  -0.00009  -0.00052
    H34      Y    -0.00023   0.00010   0.00011
    H34      Z     0.00059  -0.00018  -0.00170
    H35      X     0.00045   0.00519   0.02836
    H35      Y    -0.00014  -0.00121  -0.00838
    H35      Z    -0.00043  -0.00548  -0.02924
    H36      X     0.00016   0.00197   0.00786
    H36      Y     0.00010   0.00172   0.00672
    H36      Z     0.00005   0.00047   0.00179
    H37      X    -0.00015   0.00050   0.00078
    H37      Y     0.00034  -0.00143  -0.00290
    H37      Z    -0.00008   0.00014   0.00035
    H38      X     0.00013  -0.00007  -0.00109
    H38      Y    -0.00008   0.00006   0.00017
    H38      Z     0.00024  -0.00010  -0.00279
    H39      X    -0.00024   0.00034  -0.00032
    H39      Y     0.00049  -0.00069   0.00064
    H39      Z    -0.00009   0.00008  -0.00004
    H40      X     0.00017   0.00003  -0.00017
    H40      Y     0.00012   0.00007  -0.00031
    H40      Z     0.00002  -0.00001  -0.00004
    H41      X     0.00005  -0.00004   0.00016
    H41      Y     0.00000  -0.00003  -0.00022
    H41      Z    -0.00003   0.00004  -0.00247
    H42      X    -0.00021   0.00016  -0.00026
    H42      Y     0.00028  -0.00027   0.00040
    H42      Z    -0.00015   0.00013  -0.00020
    H43      X    -0.00014   0.00034  -0.00047
    H43      Y    -0.00025   0.00053  -0.00060
    H43      Z    -0.00007   0.00015  -0.00013
    H44      X     0.00011  -0.00000   0.00020
    H44      Y     0.00006  -0.00002   0.00013
    H44      Z     0.00073  -0.00032  -0.00129
    H45      X    -0.00032   0.00034  -0.00043
    H45      Y    -0.00053   0.00059  -0.00064
    H45      Z    -0.00031   0.00028  -0.00026
    H46      X    -0.00089   0.00046   0.00104
    H46      Y     0.00005  -0.00012   0.00003
    H46      Z     0.00040  -0.00013  -0.00008
    H47      X    -0.00001   0.00095   0.00790
    H47      Y     0.00008  -0.00204  -0.01259
    H47      Z    -0.00004   0.00106   0.00708
    H48      X     0.00029   0.00617   0.03452
    H48      Y    -0.00002  -0.00107  -0.00411
    H48      Z    -0.00010  -0.00255  -0.01388
    H49      X    -0.00009   0.00130   0.00461
    H49      Y    -0.00014   0.00167   0.00496
    H49      Z    -0.00008   0.00045   0.00092
  
  Number of imaginary frequencies:   0
   
  Writing vibrational animation data to L1_PL139.vib
  Writing IR vibrational spectrum data to L1_PL139_vib.spm
  rotational symmetry number:  1

  rotational temperatures (K):      0.013999      0.011040      0.008553
   
  The Quasi-Harmonic approximation will be applied to compute
  vibrational constributions to thermodynamic properties.
  Frequencies will be adjusted to a minimum value of  100.00 cm^-1.

  vibrational temperatures:
       mode:      1        2        3        4        5        6
  temp. (K):   143.88   143.88   143.88   143.88   143.88   143.88
   
       mode:      7        8        9       10       11       12
  temp. (K):   161.62   182.22   205.38   212.25   237.48   305.59
   
       mode:     13       14       15       16       17       18
  temp. (K):   318.55   354.74   363.10   368.86   382.51   387.23
   
       mode:     19       20       21       22       23       24
  temp. (K):   397.44   422.64   458.35   461.45   467.43   480.97
   
       mode:     25       26       27       28       29       30
  temp. (K):   484.77   516.20   544.08   558.69   584.43   587.17
   
       mode:     31       32       33       34       35       36
  temp. (K):   595.89   615.17   657.46   696.58   731.77   739.71
   
       mode:     37       38       39       40       41       42
  temp. (K):   795.16   824.39   851.70   882.62   885.76   899.80
   
       mode:     43       44       45       46       47       48
  temp. (K):   986.32  1010.58  1085.61  1099.53  1110.54  1146.40
   
       mode:     49       50       51       52       53       54
  temp. (K):  1196.48  1197.30  1199.43  1306.89  1319.81  1354.38
   
       mode:     55       56       57       58       59       60
  temp. (K):  1375.90  1377.27  1386.81  1388.29  1391.04  1409.81
   
       mode:     61       62       63       64       65       66
  temp. (K):  1413.19  1423.92  1429.90  1459.99  1464.41  1500.92
   
       mode:     67       68       69       70       71       72
  temp. (K):  1508.43  1514.06  1516.31  1522.57  1530.00  1563.67
   
       mode:     73       74       75       76       77       78
  temp. (K):  1592.06  1669.32  1709.35  1728.37  1739.97  1748.21
   
       mode:     79       80       81       82       83       84
  temp. (K):  1754.05  1772.75  1781.53  1791.65  1801.81  1845.90
   
       mode:     85       86       87       88       89       90
  temp. (K):  1888.70  1904.39  1932.36  1985.32  2036.80  2044.79
   
       mode:     91       92       93       94       95       96
  temp. (K):  2048.28  2051.56  2086.63  2092.16  2097.96  2126.06
   
       mode:     97       98       99      100      101      102
  temp. (K):  2156.60  2158.74  2161.11  2169.18  2174.00  2178.94
   
       mode:    103      104      105      106      107      108
  temp. (K):  2183.68  2184.83  2192.26  2202.43  2210.64  2216.36
   
       mode:    109      110      111      112      113      114
  temp. (K):  2225.83  2234.08  2308.20  2327.57  2339.94  2379.68
   
       mode:    115      116      117      118      119      120
  temp. (K):  4363.88  4367.04  4368.84  4371.56  4376.26  4380.61
   
       mode:    121      122      123      124      125      126
  temp. (K):  4469.20  4471.97  4474.54  4476.70  4479.03  4490.36
   
       mode:    127      128      129      130      131      132
  temp. (K):  4497.91  4507.30  4518.27  4523.70  4532.44  4552.26
   
       mode:    133      134      135      136      137      138
  temp. (K):  4556.74  4573.13  4582.25  4585.58  4598.28  4600.14
   
       mode:    139      140      141
  temp. (K):  4615.49  4618.27  4677.73
   
   
  Thermodynamic properties calculated assuming an ideal gas

  In the table below, the units for temperature
  are kelvins, the units for U, H, and G are
  kcal/mol and the units for Cv and S are cal/(mol K)

  The zero point energy (ZPE):    264.831 kcal/mol
  is not included in U, H, or G in the table below
  
 
  =============================================================================
  Thermodynamic properties for P = 1.00E+00 atm, calculated at   1 temperatures


  T =   298.15 K, P = 1.00E+00 atm
   
                  U         Cv          S          H          G        ln(Q)
              =========  =========  =========  =========  =========  =========
  trans.          0.889      2.981     43.881      1.481    -11.602   19.58157
  rot.            0.889      2.981     34.552      0.889     -9.413   15.88699
  vib.           12.561     85.923     73.967     12.561     -9.492   16.02021
  elec.           0.000      0.000      0.000      0.000      0.000    0.00000
  ----------------------------------------------------------------------------
  total          14.339     91.884    152.399     14.931    -30.506   51.48878
   
   Total internal energy, Utot(SCFE + ZPE + U):   -1245.858421 hartrees
   Total enthalpy, Htot (Utot + nRT), with n=1:   -1245.857477 hartrees
    Total Gibbs free energy, Gtot (Htot - T*S):   -1245.929886 hartrees
   
  end of program freq
   
 Time(freq)  user:       0.270  user+sys:       0.270  wallclock:       0.263
  
  start of program post
  
  Writing input files for PBF
  end of program post
   
 Time(post)  user:       0.166  user+sys:       0.166  wallclock:       0.112

 Total cpu seconds     user:   18162.795   user+sys:   18162.795
  
 Total elapsed time:    10503 seconds

Job L1_PL139 completed on bp1-compute082.data.bp.acrc.priv at Fri Mar 28 20:54:55 2025
