Job L2_PL139 started on bp1-compute058 at Mon Dec  1 17:11:12 2025
jobid: bp1-compute058-0-692dcc19

  +--------------------------------------------------------------------+
  |  Jaguar version 12.5, release 138                                  |
  |                                                                    |
  |  Copyright Schrodinger, Inc.                                       |
  |  All Rights Reserved.                                              |
  |                                                                    |
  |  The following have contributed to Jaguar (listed alphabetically): |
  |  Ty Balduf, Mike Beachy, Chandler Bennett, Art Bochevarov,         |
  |  Dale Braden, Yixiang Cao, Alan Chien, Chris Cortis,               |
  |  Rich Friesner, Jim Furness, Bill Goddard, Hod Greeley,            |
  |  Tom Hughes, Leif Jacobson, Jean-Marc Langlois, Daniel Levine,     |
  |  Rob Murphy, Dean Philipp, Tom Pollard, Murco Ringnalda,           |
  |  Daniel Mainz, Pablo Videla, Mark Watson, Haoyu Yu.                |
  |                                                                    |
  |  Use of this program should be acknowledged in publications as:    |
  |                                                                    |
  |  Jaguar, version 12.5, Schrodinger, Inc., New York, NY, 2024.      |
  |                                                                    |
  |  A. D. Bochevarov, E. Harder, T. F. Hughes, J. R. Greenwood,       |
  |  D. A. Braden, D. M. Philipp, D. Rinaldo, M. D. Halls,             |
  |  J. Zhang, R. A. Friesner, "Jaguar: A High-Performance Quantum     |
  |  Chemistry Software Program with Strengths in Life and Materials   |
  |  Sciences", Int. J. Quantum Chem., 2013, 113(18), 2110-2142.       |
  +--------------------------------------------------------------------+
  
  start of program pre
  
  Job name: L2_PL139
  Executables used: /software/local/apps/schrodinger2024-3/jaguar-v12.5/bin/Linux-x86_64
  Temporary files : /tmp/ar21627/L2_PL139#bp1-compute058-0-692dcc19
  Basis file : using default basis file from /software/local/apps/schrodinger2024-3
  Maestro file (input):  L2_PL139.mae
  Maestro file (output): L2_PL139.01.mae
  
 Contents of input file: &gen and (if present) &atomic sections only
 ----------------Contents start----------------
&gen
dftname=b3pw91-d3
basis=6-31G*
numd=5
ip11=2
iaccg=3
isolv=2
igeopt=1
solvent=benzene
ifreq=1
&
&atomic
atom basis
Pd2 lacv3p*
&
 -----------------Contents end-----------------
 
  PS calculation requested. Using PS version of 6-31g*
  basis set:               non_standard                    
  net molecular charge:    0
  multiplicity:            1
  
  Using up to  18 threads per process
  
  This run will use ECP on 1 atom
  number of basis functions....          735
  
 Input geometry:
                                   angstroms
  atom               x                 y                 z
  P1            0.2892019779      0.0572190836     -0.6143579710 
  Pd2           0.4486855134      0.3504081935      1.6495146867 
  C3            1.9423393250     -0.0062550185     -1.5077177639 
  C4           -0.5309813990     -1.6283079192     -0.7862187972 
  C5           -0.7710034506      1.1738111951     -1.6413395794 
  C6            2.8065766428      1.1435162515     -0.9642066939 
  C10           2.0041086885     -0.0182995249     -3.0403707865 
  C11          -2.0135486468     -1.4833475915     -0.4052480868 
  C15          -0.3647680437     -2.4774745611     -2.0511536835 
  C16          -1.0533152066      0.8666241956     -2.9847902717 
  C17          -1.8476300867      1.6812962706     -3.7839902014 
  C18          -2.3892074251      2.8491456358     -3.2504836790 
  C19          -2.1407030948      3.1587544164     -1.9194918578 
  C20          -1.3492854332      2.3375317511     -1.0999749816 
  C21          -1.2683134954      2.7752481860      0.3248518109 
  C22          -2.3923347260      2.5927656606      1.1481078398 
  C23          -2.4690984291      3.1838468113      2.4136151237 
  C24          -1.4049578423      3.9653340928      2.8513300828 
  C25          -0.2694505791      4.1487624021      2.0704132936 
  C26          -0.2045457599      3.5494310326      0.8078722296 
  C27           2.5308614789     -1.3283058091     -0.9810078044 
  H32           2.3485851184      2.0938825678     -1.2695344252 
  H33           2.7777997548      1.1263188956      0.1327850218 
  H40           1.4181113972     -0.8452170160     -3.4554620287 
  H41           1.5623727439      0.9101987145     -3.4273309593 
  C28           0.1638316894     -2.3900653313      0.3577044595 
  H43          -2.1044009476     -0.8766271186      0.5054951654 
  H44          -2.5406966437     -0.9350457809     -1.1991172843 
  H51          -0.8357596455     -1.9864672674     -2.9126619281 
  H52           0.6991225197     -2.6059314557     -2.2877142501 
  H53          -0.6459898829     -0.0369542008     -3.4205556417 
  H54          -2.0406640366      1.4024928288     -4.8182075712 
  H55          -3.0085237092      3.5045222629     -3.8593529543 
  H56          -2.5766483835      4.0537203191     -1.4806889137 
  H57          -3.3360347671      3.0420272000      3.0497495094 
  H58          -1.4616611246      4.4454018543      3.8262762628 
  H59           0.5456620425      4.7584119151      2.4406708723 
  P66           0.1154002187      0.2450401176      3.9117876933 
  C67          -1.7426067555     -0.0064852217      4.0921054044 
  C71          -2.4816515899      0.3928603161      5.3730734730 
  C72          -2.0775599300     -1.4515366794      3.6896091090 
  H76          -2.1509892562     -0.2280703251      6.2162858595 
  H77          -1.7107158261     -2.1378424358      4.4663083533 
  C44          -2.2554801574      0.9150510697      2.9699058957 
  H82          -2.2634799621      1.4370896074      5.6308482483 
  H83          -1.5426760881     -1.7126466180      2.7671234425 
  C84           0.5748510849      1.8290612799      4.8189165477 
  C88           1.9145207239      2.3215101715      4.2441802889 
  C89           0.6263733936      1.8582137475      6.3516163137 
  H93           2.6909369941      1.5883116855      4.5023815690 
  H94           1.3802704088      1.1400300959      6.7019204167 
  C52          -0.5292739278      2.7909803644      4.3422409440 
  H99           1.8529242623      2.3318697543      3.1481036810 
  H100         -0.3315060416      1.5482349025      6.7850140627 
  C101          0.8417972332     -1.1167336574      4.9323585601 
  C102          1.9059461793     -3.1862880817      6.5441210198 
  C103          1.7390271253     -2.0538361660      4.3846082767 
  C104          0.4707537457     -1.2736293924      6.2809535910 
  C105          0.9876248312     -2.2861719580      7.0818412379 
  C106          2.2632062396     -3.0648371595      5.2072474005 
  H107         -0.2383926040     -0.5839786714      6.7209662661 
  H108          0.6734372075     -2.3683262613      8.1206371641 
  H109          2.9573973604     -3.7764617662      4.7653156945 
  H110          2.3289907940     -3.9817369449      7.1541628858 
  C111          2.1604214439     -2.1386713857      2.9554760323 
  C112          3.2191342183     -2.6803361355      0.4244311066 
  C113          1.6326910546     -3.1688704213      2.1584984327 
  C114          3.2174990504     -1.3723382062      2.4446929960 
  C115          3.7517039898     -1.6410046591      1.1796013398 
  C116          2.1568561441     -3.4473223216      0.8917137463 
  H117          4.5758515227     -1.0578202333      0.7865279188 
  H118          1.7487174300     -4.2412094618      0.2757882906 
  H119          3.6437334312     -2.8979528921     -0.5535905242 
  H74          -3.2185865035      1.9864994323      0.8073010609 
  H75           0.6794615918      3.6894412601      0.2034484227 
  H78           0.8068851837     -3.7629859135      2.5210883464 
  H79           3.6295346297     -0.5631131722      3.0293138354 
  H80          -2.4654513559     -2.4639155989     -0.2556809632 
  H81          -0.8224360504     -3.4543713986     -1.8952288152 
  H84           3.0406179723     -0.0989515878     -3.3678517011 
  H85           3.8308800232      1.0684922930     -1.3292737980 
  H86          -3.5549432961      0.2696051101      5.2283217287 
  H87          -3.1525254129     -1.5697800664      3.5533457174 
  H88           0.8815789705      2.8607375111      6.6950056219 
  H89           2.1659313002      3.3091976278      4.6306595390 
  H90          -0.3825748169      3.7689981947      4.8005645137 
  H91          -0.4838309678      2.8881275828      3.2575302197 
  H92          -1.5040172480      2.3976213327      4.6307615358 
  H95          -3.3445778546      0.8815643838      2.9408396298 
  H96          -1.9288886141      1.9373033769      3.1607937804 
  H97          -1.8564974816      0.5794682355      2.0126718670 
  H98          -0.2111211834     -3.4128954055      0.3941596735 
  H101          1.2399088460     -2.4040638550      0.1846091259 
  H102         -0.0448106881     -1.8931686212      1.3051547314 
  H103          3.5112467863     -1.4937000944     -1.4277620762 
  H104          2.6303740444     -1.2758973749      0.1031741939 
  H105          1.8681067442     -2.1523864934     -1.2451047326 
   
  principal moments of inertia:
        amu*angstrom^2:              4584.16975              6697.59910              9007.38120
                g*cm^2:          7.61219201E-37          1.11216236E-36          1.49571065E-36
   
  rotational constants:
               cm^(-1):      0.00367736      0.00251697      0.00187153
                   GHz:      0.11024439      0.07545674      0.05610721
   
  Molecular weight:     702.27 amu
   
  Stoichiometry: PdC40P2H54
  Molecular Point Group: C1      
  Point Group used: C1
  
 
Number of optimization coordinates:   316
Number of independent coordinates:    316
Number of non-redundant coordinates:  285
Number of frozen coordinates:           0
Number of harmonic constraints:         0
 
Number of geometric degrees of freedom:   285
Maximum geometric degrees of freedom:     285
 " " " " " excluding dummy atoms:         285
 
 
  bond lengths (angstroms):
 
 P1      -Pd2     :   2.288343      P1      -C3      :   1.880155
 P1      -C4      :   1.882349      P1      -C5      :   1.850812
 Pd2     -P66     :   2.289118      C3      -C6      :   1.537623
 C3      -C10     :   1.533945      C3      -C27     :   1.540000
 C4      -C11     :   1.537582      C4      -C15     :   1.532570
 C4      -C28     :   1.540000      C5      -C16     :   1.406742
 C5      -C20     :   1.407740      C6      -H32     :   1.098261
 C6      -H33     :   1.097504      C6      -H85     :   1.090000
 C10     -H40     :   1.095211      C10     -H41     :   1.098625
 C10     -H84     :   1.090000      C11     -H43     :   1.098097
 C11     -H44     :   1.099431      C11     -H80     :   1.090000
 C15     -H51     :   1.097779      C15     -H52     :   1.097418
 C15     -H81     :   1.090000      C16     -C17     :   1.390449
 C16     -H53     :   1.082709      C17     -C18     :   1.393487
 C17     -H54     :   1.088393      C18     -C19     :   1.388939
 C18     -H55     :   1.088023      C19     -C20     :   1.404406
 C19     -H56     :   1.087916      C20     -C21     :   1.492744
 C21     -C22     :   1.405160      C21     -C26     :   1.401524
 C22     -C23     :   1.398849      C22     -H74     :   1.080000
 C23     -C24     :   1.390939      C23     -H57     :   1.084601
 C24     -C25     :   1.390271      C24     -H58     :   1.088210
 C25     -C26     :   1.399079      C25     -H59     :   1.083131
 C26     -H75     :   1.080000      C27     -H103    :   1.090000
 C27     -H104    :   1.090000      C27     -H105    :   1.090000
 C28     -H98     :   1.090000      C28     -H101    :   1.090000
 C28     -H102    :   1.090000      P66     -C67     :   1.883605
 P66     -C84     :   1.882313      P66     -C101    :   1.850310
 C67     -C71     :   1.531843      C67     -C72     :   1.537001
 C67     -C44     :   1.540000      C71     -H76     :   1.098135
 C71     -H82     :   1.097480      C71     -H86     :   1.090000
 C72     -H77     :   1.099478      C72     -H83     :   1.097843
 C72     -H87     :   1.090000      C44     -H95     :   1.090000
 C44     -H96     :   1.090000      C44     -H97     :   1.090000
 C84     -C88     :   1.538682      C84     -C89     :   1.533843
 C84     -C52     :   1.540000      C88     -H93     :   1.098667
 C88     -H99     :   1.097855      C88     -H89     :   1.090000
 C89     -H94     :   1.098572      C89     -H100    :   1.096108
 C89     -H88     :   1.090000      C52     -H90     :   1.090000
 C52     -H91     :   1.090000      C52     -H92     :   1.090000
 C101    -C103    :   1.408266      C101    -C104    :   1.407479
 C102    -C105    :   1.393796      C102    -C106    :   1.389106
 C102    -H110    :   1.088052      C103    -C106    :   1.404857
 C103    -C111    :   1.492377      C104    -C105    :   1.390618
 C104    -H107    :   1.082644      C105    -H108    :   1.088375
 C106    -H109    :   1.087940      C111    -C113    :   1.405341
 C111    -C114    :   1.401991      C112    -C115    :   1.390727
 C112    -C116    :   1.391063      C112    -H119    :   1.088195
 C113    -C116    :   1.398938      C113    -H78     :   1.080000
 C114    -C115    :   1.399290      C114    -H79     :   1.080000
 C115    -H117    :   1.083434      C116    -H118    :   1.084527
 
  bond angles:
 
 C3      -P1      -Pd2     : 114.400839  C4      -P1      -Pd2     : 103.616280
 C4      -P1      -C3      : 108.029114  C5      -P1      -Pd2     : 120.768771
 C5      -P1      -C3      : 105.092644  C5      -P1      -C4      : 103.884094
 P66     -Pd2     -P1      : 164.083023  C6      -C3      -P1      : 107.517455
 C10     -C3      -P1      : 120.692031  C10     -C3      -C6      : 109.658631
 C27     -C3      -P1      : 101.682302  C27     -C3      -C6      : 107.832851
 C27     -C3      -C10     : 108.638853  C11     -C4      -P1      : 108.245607
 C15     -C4      -P1      : 121.617475  C15     -C4      -C11     : 111.180968
 C28     -C4      -P1      : 100.283486  C28     -C4      -C11     : 107.314792
 C28     -C4      -C15     : 106.862939  C16     -C5      -P1      : 120.872850
 C20     -C5      -P1      : 121.375705  C20     -C5      -C16     : 117.732077
 H32     -C6      -C3      : 108.324976  H33     -C6      -C3      : 109.078028
 H33     -C6      -H32     : 106.290382  H85     -C6      -C3      : 110.997615
 H85     -C6      -H32     : 110.997615  H85     -C6      -H33     : 110.997615
 H40     -C10     -C3      : 111.288827  H41     -C10     -C3      : 109.214061
 H41     -C10     -H40     : 106.826911  H84     -C10     -C3      : 109.819701
 H84     -C10     -H40     : 109.819701  H84     -C10     -H41     : 109.819701
 H43     -C11     -C4      : 109.716407  H44     -C11     -C4      : 109.294631
 H44     -C11     -H43     : 106.478516  H80     -C11     -C4      : 110.422584
 H80     -C11     -H43     : 110.422584  H80     -C11     -H44     : 110.422584
 H51     -C15     -C4      : 110.693654  H52     -C15     -C4      : 110.359851
 H52     -C15     -H51     : 107.404838  H81     -C15     -C4      : 109.449724
 H81     -C15     -H51     : 109.449724  H81     -C15     -H52     : 109.449724
 C17     -C16     -C5      : 122.385944  H53     -C16     -C5      : 119.413479
 H53     -C16     -C17     : 118.199945  C18     -C17     -C16     : 119.537801
 H54     -C17     -C16     : 119.828150  H54     -C17     -C18     : 120.634048
 C19     -C18     -C17     : 118.957733  H55     -C18     -C17     : 120.783349
 H55     -C18     -C19     : 120.253987  C20     -C19     -C18     : 121.982842
 H56     -C19     -C18     : 119.880718  H56     -C19     -C20     : 118.130921
 C19     -C20     -C5      : 119.371507  C21     -C20     -C5      : 125.957448
 C21     -C20     -C19     : 114.587704  C22     -C21     -C20     : 118.538745
 C26     -C21     -C20     : 122.147886  C26     -C21     -C22     : 118.487521
 C23     -C22     -C21     : 121.268911  H74     -C22     -C21     : 120.000000
 H74     -C22     -C23     : 118.731089  C24     -C23     -C22     : 118.692917
 H57     -C23     -C22     : 121.279877  H57     -C23     -C24     : 120.027198
 C25     -C24     -C23     : 121.481538  H58     -C24     -C23     : 119.336007
 H58     -C24     -C25     : 119.182420  C26     -C25     -C24     : 119.225987
 H59     -C25     -C24     : 119.795051  H59     -C25     -C26     : 120.976269
 C25     -C26     -C21     : 120.825391  H75     -C26     -C21     : 120.000000
 H75     -C26     -C25     : 119.174609  H103    -C27     -C3      : 109.500000
 H104    -C27     -C3      : 109.500000  H104    -C27     -H103    : 109.442426
 H105    -C27     -C3      : 109.500000  H105    -C27     -H103    : 109.442426
 H105    -C27     -H104    : 109.442426  H98     -C28     -C4      : 109.500000
 H101    -C28     -C4      : 109.500000  H101    -C28     -H98     : 109.442426
 H102    -C28     -C4      : 109.500000  H102    -C28     -H98     : 109.442426
 H102    -C28     -H101    : 109.442426  C67     -P66     -Pd2     : 104.144657
 C84     -P66     -Pd2     : 113.703090  C84     -P66     -C67     : 107.879106
 C101    -P66     -Pd2     : 121.454276  C101    -P66     -C67     : 103.660446
 C101    -P66     -C84     : 104.933839  C71     -C67     -P66     : 121.408637
 C72     -C67     -P66     : 108.387463  C72     -C67     -C71     : 111.035381
 C44     -C67     -P66     : 100.302394  C44     -C67     -C71     : 107.018740
 C44     -C67     -C72     : 107.409483  H76     -C71     -C67     : 110.451995
 H82     -C71     -C67     : 110.398664  H82     -C71     -H76     : 107.325078
 H86     -C71     -C67     : 109.543930  H86     -C71     -H76     : 109.543930
 H86     -C71     -H82     : 109.543930  H77     -C72     -C67     : 109.218016
 H83     -C72     -C67     : 109.723222  H83     -C72     -H77     : 106.413473
 H87     -C72     -C67     : 110.465802  H87     -C72     -H77     : 110.465802
 H87     -C72     -H83     : 110.465802  H95     -C44     -C67     : 109.500000
 H96     -C44     -C67     : 109.500000  H96     -C44     -H95     : 109.442426
 H97     -C44     -C67     : 109.500000  H97     -C44     -H95     : 109.442426
 H97     -C44     -H96     : 109.442426  C88     -C84     -P66     : 107.567916
 C89     -C84     -P66     : 120.381598  C89     -C84     -C88     : 109.750084
 C52     -C84     -P66     : 101.622718  C52     -C84     -C88     : 107.981353
 C52     -C84     -C89     : 108.754292  H93     -C88     -C84     : 108.295598
 H99     -C88     -C84     : 109.092280  H99     -C88     -H93     : 106.294787
 H89     -C88     -C84     : 111.001005  H89     -C88     -H93     : 111.001005
 H89     -C88     -H99     : 111.001005  H94     -C89     -C84     : 109.223916
 H100    -C89     -C84     : 111.123104  H100    -C89     -H94     : 106.783140
 H88     -C89     -C84     : 109.885820  H88     -C89     -H94     : 109.885820
 H88     -C89     -H100    : 109.885820  H90     -C52     -C84     : 109.500000
 H91     -C52     -C84     : 109.500000  H91     -C52     -H90     : 109.442426
 H92     -C52     -C84     : 109.500000  H92     -C52     -H90     : 109.442426
 H92     -C52     -H91     : 109.442426  C103    -C101    -P66     : 121.689989
 C104    -C101    -P66     : 120.466818  C104    -C101    -C103    : 117.804897
 C106    -C102    -C105    : 118.965124  H110    -C102    -C105    : 120.796975
 H110    -C102    -C106    : 120.232715  C106    -C103    -C101    : 119.264141
 C111    -C103    -C101    : 126.170950  C111    -C103    -C106    : 114.487080
 C105    -C104    -C101    : 122.344517  H107    -C104    -C101    : 119.412136
 H107    -C104    -C105    : 118.242806  C104    -C105    -C102    : 119.533028
 H108    -C105    -C102    : 120.641987  H108    -C105    -C104    : 119.824953
 C103    -C106    -C102    : 122.039770  H109    -C106    -C102    : 119.857985
 H109    -C106    -C103    : 118.095268  C113    -C111    -C103    : 118.601287
 C114    -C111    -C103    : 122.053660  C114    -C111    -C113    : 118.503672
 C116    -C112    -C115    : 121.471944  H119    -C112    -C115    : 119.213096
 H119    -C112    -C116    : 119.314958  C116    -C113    -C111    : 121.248012
 H78     -C113    -C111    : 120.000000  H78     -C113    -C116    : 118.751988
 C115    -C114    -C111    : 120.816102  H79     -C114    -C111    : 120.000000
 H79     -C114    -C115    : 119.183898  C114    -C115    -C112    : 119.223662
 H117    -C115    -C112    : 119.772804  H117    -C115    -C114    : 121.001657
 C113    -C116    -C112    : 118.722382  H118    -C116    -C112    : 120.014194
 H118    -C116    -C113    : 121.263114
 
  torsional angles:
 
 P1      -Pd2     -P66     -C67     : -31.743045
 P1      -Pd2     -P66     -C84     :-148.899354
 P1      -Pd2     -P66     -C101    :  84.339182
 P1      -C3      -C6      -H32     : -66.676491
 P1      -C3      -C6      -H33     :  48.614161
 P1      -C3      -C6      -H85     : 171.220661
 P1      -C3      -C10     -H40     : -55.814895
 P1      -C3      -C10     -H41     :  61.883018
 P1      -C3      -C10     -H84     :-177.634239
 P1      -C3      -C27     -H103    : 180.000000
 P1      -C3      -C27     -H104    : -60.000000
 P1      -C3      -C27     -H105    :  60.000000
 P1      -C4      -C11     -H43     : -44.282964
 P1      -C4      -C11     -H44     :  72.122225
 P1      -C4      -C11     -H80     :-166.219072
 P1      -C4      -C15     -H51     : -65.751924
 P1      -C4      -C15     -H52     :  53.014342
 P1      -C4      -C15     -H81     : 173.525742
 P1      -C4      -C28     -H98     :-179.999999
 P1      -C4      -C28     -H101    : -60.000000
 P1      -C4      -C28     -H102    :  60.000000
 P1      -C5      -C16     -C17     : 179.874532
 P1      -C5      -C16     -H53     :   0.168915
 P1      -C5      -C20     -C19     : 179.647259
 P1      -C5      -C20     -C21     :  -3.861402
 Pd2     -P1      -C3      -C6      : -45.470594
 Pd2     -P1      -C3      -C10     :-172.168127
 Pd2     -P1      -C3      -C27     :  67.682508
 Pd2     -P1      -C4      -C11     :  73.399332
 Pd2     -P1      -C4      -C15     :-156.081248
 Pd2     -P1      -C4      -C28     : -38.829417
 Pd2     -P1      -C5      -C16     :-169.127728
 Pd2     -P1      -C5      -C20     :   9.234968
 Pd2     -P66     -C67     -C71     :-156.216306
 Pd2     -P66     -C67     -C72     :  73.530145
 Pd2     -P66     -C67     -C44     : -38.858477
 Pd2     -P66     -C84     -C88     : -43.616873
 Pd2     -P66     -C84     -C89     :-170.235451
 Pd2     -P66     -C84     -C52     :  69.693300
 Pd2     -P66     -C101    -C103    :   6.876552
 Pd2     -P66     -C101    -C104    :-170.822904
 C3      -P1      -Pd2     -P66     :-142.735930
 C3      -P1      -C4      -C11     :-164.874958
 C3      -P1      -C4      -C15     : -34.355538
 C3      -P1      -C4      -C28     :  82.896293
 C3      -P1      -C5      -C16     :  59.683942
 C3      -P1      -C5      -C20     :-121.953361
 C4      -P1      -Pd2     -P66     : -25.376679
 C4      -P1      -C3      -C6      :-160.274123
 C4      -P1      -C3      -C10     :  73.028343
 C4      -P1      -C3      -C27     : -47.121021
 C4      -P1      -C5      -C16     : -53.698424
 C4      -P1      -C5      -C20     : 124.664273
 C5      -P1      -Pd2     -P66     :  90.190034
 C5      -P1      -C3      -C6      :  89.291070
 C5      -P1      -C3      -C10     : -37.406463
 C5      -P1      -C3      -C27     :-157.555828
 C5      -P1      -C4      -C11     : -53.619962
 C5      -P1      -C4      -C15     :  76.899459
 C5      -P1      -C4      -C28     :-165.848711
 C5      -C16     -C17     -C18     :   0.119160
 C5      -C16     -C17     -H54     :-179.887579
 C5      -C20     -C19     -C18     :   0.934681
 C5      -C20     -C19     -H56     :-179.921520
 C5      -C20     -C21     -C22     :-103.501657
 C5      -C20     -C21     -C26     :  87.067260
 C6      -C3      -C10     -H40     : 178.471334
 C6      -C3      -C10     -H41     : -63.830753
 C6      -C3      -C10     -H84     :  56.651990
 C6      -C3      -C27     -H103    : -67.083272
 C6      -C3      -C27     -H104    :  52.916728
 C6      -C3      -C27     -H105    : 172.916728
 C10     -C3      -C6      -H32     :  66.255498
 C10     -C3      -C6      -H33     :-178.453849
 C10     -C3      -C6      -H85     : -55.847350
 C10     -C3      -C27     -H103    :  51.697626
 C10     -C3      -C27     -H104    : 171.697626
 C10     -C3      -C27     -H105    : -68.302374
 C11     -C4      -C15     -H51     :  63.508917
 C11     -C4      -C15     -H52     :-177.724817
 C11     -C4      -C15     -H81     : -57.213417
 C11     -C4      -C28     -H98     :  67.053711
 C11     -C4      -C28     -H101    :-172.946289
 C11     -C4      -C28     -H102    : -52.946289
 C15     -C4      -C11     -H43     : 179.684522
 C15     -C4      -C11     -H44     : -63.910290
 C15     -C4      -C11     -H80     :  57.748413
 C15     -C4      -C28     -H98     : -52.284654
 C15     -C4      -C28     -H101    :  67.715346
 C15     -C4      -C28     -H102    :-172.284654
 C16     -C5      -C20     -C19     :  -1.940411
 C16     -C5      -C20     -C21     : 174.550928
 C16     -C17     -C18     -C19     :  -1.182476
 C16     -C17     -C18     -H55     : 179.623338
 C17     -C16     -C5      -C20     :   1.453808
 C17     -C18     -C19     -C20     :   0.663465
 C17     -C18     -C19     -H56     :-178.465710
 C18     -C17     -C16     -H53     : 179.828186
 C18     -C19     -C20     -C21     :-175.942423
 C19     -C18     -C17     -H54     : 178.824317
 C19     -C20     -C21     -C22     :  73.135967
 C19     -C20     -C21     -C26     : -96.295116
 C20     -C5      -C16     -H53     :-178.251809
 C20     -C19     -C18     -H55     : 179.862028
 C20     -C21     -C22     -C23     :-168.752584
 C20     -C21     -C22     -H74     :  11.247416
 C20     -C21     -C26     -C25     : 168.230278
 C20     -C21     -C26     -H75     : -11.769722
 C21     -C20     -C19     -H56     :   3.201376
 C21     -C22     -C23     -C24     :   0.048446
 C21     -C22     -C23     -H57     :-179.917011
 C21     -C26     -C25     -C24     :   0.225661
 C21     -C26     -C25     -H59     :-179.176093
 C22     -C21     -C26     -C25     :  -1.205996
 C22     -C21     -C26     -H75     : 178.794004
 C22     -C23     -C24     -C25     :  -1.075591
 C22     -C23     -C24     -H58     : 178.856488
 C23     -C22     -C21     -C26     :   1.070435
 C23     -C24     -C25     -C26     :   0.943781
 C23     -C24     -C25     -H59     :-179.647276
 C24     -C23     -C22     -H74     :-179.951554
 C24     -C25     -C26     -H75     :-179.774339
 C25     -C24     -C23     -H57     : 178.890311
 C26     -C21     -C22     -H74     :-178.929565
 C26     -C25     -C24     -H58     :-178.988400
 C27     -C3      -C6      -H32     :-175.617034
 C27     -C3      -C6      -H33     : -60.326381
 C27     -C3      -C6      -H85     :  62.280118
 C27     -C3      -C10     -H40     :  60.845924
 C27     -C3      -C10     -H41     : 178.543837
 C27     -C3      -C10     -H84     : -60.973420
 C28     -C4      -C11     -H43     :  63.154473
 C28     -C4      -C11     -H44     : 179.559661
 C28     -C4      -C11     -H80     : -58.781636
 C28     -C4      -C15     -H51     :-179.684456
 C28     -C4      -C15     -H52     : -60.918190
 C28     -C4      -C15     -H81     :  59.593209
 H53     -C16     -C17     -H54     :  -0.178553
 H54     -C17     -C18     -H55     :  -0.369868
 H55     -C18     -C19     -H56     :   0.732852
 H57     -C23     -C22     -H74     :   0.082989
 H57     -C23     -C24     -H58     :  -1.177610
 H58     -C24     -C25     -H59     :   0.420543
 H59     -C25     -C26     -H75     :   0.823907
 P66     -C67     -C71     -H76     : -65.619165
 P66     -C67     -C71     -H82     :  52.920873
 P66     -C67     -C71     -H86     : 173.633939
 P66     -C67     -C72     -H77     :  71.658654
 P66     -C67     -C72     -H83     : -44.628170
 P66     -C67     -C72     -H87     :-166.651244
 P66     -C67     -C44     -H95     : 180.000000
 P66     -C67     -C44     -H96     : -60.000000
 P66     -C67     -C44     -H97     :  60.000000
 P66     -C84     -C88     -H93     : -65.831415
 P66     -C84     -C88     -H99     :  49.456160
 P66     -C84     -C88     -H89     : 172.078792
 P66     -C84     -C89     -H94     :  60.953417
 P66     -C84     -C89     -H100    : -56.598032
 P66     -C84     -C89     -H88     :-178.435523
 P66     -C84     -C52     -H90     : 180.000000
 P66     -C84     -C52     -H91     : -60.000000
 P66     -C84     -C52     -H92     :  60.000000
 P66     -C101    -C103    -C106    : 179.801227
 P66     -C101    -C103    -C111    :  -3.593618
 P66     -C101    -C104    -C105    : 179.719284
 P66     -C101    -C104    -H107    :  -0.553207
 C67     -P66     -C84     -C88     :-158.581277
 C67     -P66     -C84     -C89     :  74.800145
 C67     -P66     -C84     -C52     : -45.271104
 C67     -P66     -C101    -C103    : 123.202310
 C67     -P66     -C101    -C104    : -54.497145
 C71     -C67     -P66     -C84     : -35.091846
 C71     -C67     -P66     -C101    :  75.828265
 C71     -C67     -C72     -H77     : -64.084952
 C71     -C67     -C72     -H83     : 179.628225
 C71     -C67     -C72     -H87     :  57.605150
 C71     -C67     -C44     -H95     : -52.441277
 C71     -C67     -C44     -H96     :  67.558723
 C71     -C67     -C44     -H97     :-172.441277
 C72     -C67     -P66     -C84     :-165.345394
 C72     -C67     -P66     -C101    : -54.425284
 C72     -C67     -C71     -H76     :  63.490776
 C72     -C67     -C71     -H82     :-177.969185
 C72     -C67     -C71     -H86     : -57.256119
 C72     -C67     -C44     -H95     :  66.858705
 C72     -C67     -C44     -H96     :-173.141295
 C72     -C67     -C44     -H97     : -53.141295
 H76     -C71     -C67     -C44     :-179.575788
 H77     -C72     -C67     -C44     : 179.221131
 C44     -C67     -P66     -C84     :  82.265984
 C44     -C67     -P66     -C101    :-166.813905
 C44     -C67     -C71     -H82     : -61.035750
 C44     -C67     -C71     -H86     :  59.677316
 C44     -C67     -C72     -H83     :  62.934307
 C44     -C67     -C72     -H87     : -59.088767
 C84     -P66     -C101    -C103    :-123.730287
 C84     -P66     -C101    -C104    :  58.570258
 C88     -C84     -P66     -C101    :  91.367246
 C88     -C84     -C89     -H94     : -64.655047
 C88     -C84     -C89     -H100    : 177.793504
 C88     -C84     -C89     -H88     :  55.956013
 C88     -C84     -C52     -H90     : -66.999731
 C88     -C84     -C52     -H91     :  53.000269
 C88     -C84     -C52     -H92     : 173.000269
 C89     -C84     -P66     -C101    : -35.251332
 C89     -C84     -C88     -H93     :  66.803819
 C89     -C84     -C88     -H99     :-177.908606
 C89     -C84     -C88     -H89     : -55.285974
 C89     -C84     -C52     -H90     :  52.038381
 C89     -C84     -C52     -H91     : 172.038381
 C89     -C84     -C52     -H92     : -67.961619
 H93     -C88     -C84     -C52     :-174.792782
 H94     -C89     -C84     -C52     : 177.420919
 C52     -C84     -P66     -C101    :-155.322581
 C52     -C84     -C88     -H99     : -59.505207
 C52     -C84     -C88     -H89     :  63.117425
 C52     -C84     -C89     -H100    :  59.869470
 C52     -C84     -C89     -H88     : -61.968021
 C101    -C103    -C106    -C102    :   1.177769
 C101    -C103    -C106    -H109    :-179.785114
 C101    -C103    -C111    -C113    :-105.264406
 C101    -C103    -C111    -C114    :  85.400149
 C101    -C104    -C105    -C102    :  -0.055715
 C101    -C104    -C105    -H108    : 179.879338
 C102    -C105    -C104    -H107    :-179.786267
 C102    -C106    -C103    -C111    :-175.811227
 C103    -C101    -C104    -C105    :   1.932297
 C103    -C101    -C104    -H107    :-178.340194
 C103    -C106    -C102    -C105    :   0.729307
 C103    -C106    -C102    -H110    : 179.907559
 C103    -C111    -C113    -C116    :-168.656739
 C103    -C111    -C113    -H78     :  11.343261
 C103    -C111    -C114    -C115    : 168.241946
 C103    -C111    -C114    -H79     : -11.758054
 C104    -C101    -C103    -C106    :  -2.440461
 C104    -C101    -C103    -C111    : 174.164694
 C104    -C105    -C102    -C106    :  -1.285064
 C104    -C105    -C102    -H110    : 179.541467
 C105    -C102    -C106    -H109    :-178.291262
 C106    -C102    -C105    -H108    : 178.780425
 C106    -C103    -C111    -C113    :  71.481462
 C106    -C103    -C111    -C114    : -97.853983
 H107    -C104    -C105    -H108    :   0.148785
 H108    -C105    -C102    -H110    :  -0.393043
 H109    -C106    -C102    -H110    :   0.886990
 H109    -C106    -C103    -C111    :   3.225891
 C111    -C113    -C116    -C112    :  -0.099870
 C111    -C113    -C116    -H118    :-179.897271
 C111    -C114    -C115    -C112    :   0.188242
 C111    -C114    -C115    -H117    :-179.312225
 C112    -C115    -C114    -H79     :-179.811758
 C112    -C116    -C113    -H78     : 179.900130
 C113    -C111    -C114    -C115    :  -1.103496
 C113    -C111    -C114    -H79     : 178.896504
 C113    -C116    -C112    -C115    :  -0.858260
 C113    -C116    -C112    -H119    : 179.120785
 C114    -C111    -C113    -C116    :   1.061961
 C114    -C111    -C113    -H78     :-178.938039
 C114    -C115    -C112    -C116    :   0.817175
 C114    -C115    -C112    -H119    :-179.161891
 C115    -C112    -C116    -H118    : 178.941740
 C116    -C112    -C115    -H117    :-179.676115
 H117    -C115    -C112    -H119    :   0.344819
 H117    -C115    -C114    -H79     :   0.687775
 H118    -C116    -C112    -H119    :  -1.079214
 H118    -C116    -C113    -H78     :   0.102729
 
  nuclear repulsion energy.......          6903.555204182 hartrees
  
  Detected an organometallic with only one TM atom. 
  
  
 
  Will use High-Quality Initial guess for organometallics
       including d-d repulsion (iguess=30)
 
 Non-default options chosen:
   SCF calculation type: DFT(b3pw91-d3)              
   DFT=Becke_3_Parameter/HF+Slater+Becke88+PW91+PW-GGAIIC (B3PW91-D3)
   Geometry will be optimized in redundant internal coordinates
   Solvation energy will be computed using PBF
     -solute cavity energy will not be included
     -surface area terms will not be included
   Vibrational frequencies and related properties will be computed
      from analytic second derivatives
   IR intensities will be computed
   Thermochemical properties will be computed
   Maximum number of geometry steps: 100
   Scaling standard convergence criteria by a factor of   5.00
   Solvent: benzene                                                         
   Internal dielectric constant:    1.000
   Continuum dielectric constant:   2.283
   Solvent probe molecule radius:   2.600
  
 Non-default print settings:
     11=  2
  
 Temporary integer options set:
     21= -1  73=  2
  
  atom       vdw   vdw2    cov     mass  grid  daf  charge   basis
  P1        2.147  2.074  1.060   30.974    Y    Y      Y    ps_6-31g*
  Pd2       1.450  1.450  1.280  105.903    Y    Y      Y    lacv3p*
  C3        1.949  1.900  0.770   12.000    Y    Y      Y    ps_6-31g*
  C4        1.949  1.900  0.770   12.000    Y    Y      Y    ps_6-31g*
  C5        1.949  1.900  0.770   12.000    Y    Y      Y    ps_6-31g*
  C6        1.949  1.900  0.770   12.000    Y    Y      Y    ps_6-31g*
  C10       1.949  1.900  0.770   12.000    Y    Y      Y    ps_6-31g*
  C11       1.949  1.900  0.770   12.000    Y    Y      Y    ps_6-31g*
  C15       1.949  1.900  0.770   12.000    Y    Y      Y    ps_6-31g*
  C16       1.949  1.900  0.770   12.000    Y    Y      Y    ps_6-31g*
  C17       1.949  1.900  0.770   12.000    Y    Y      Y    ps_6-31g*
  C18       1.949  1.900  0.770   12.000    Y    Y      Y    ps_6-31g*
  C19       1.949  1.900  0.770   12.000    Y    Y      Y    ps_6-31g*
  C20       1.949  1.900  0.770   12.000    Y    Y      Y    ps_6-31g*
  C21       1.949  1.900  0.770   12.000    Y    Y      Y    ps_6-31g*
  C22       1.949  1.900  0.770   12.000    Y    Y      Y    ps_6-31g*
  C23       1.949  1.900  0.770   12.000    Y    Y      Y    ps_6-31g*
  C24       1.949  1.900  0.770   12.000    Y    Y      Y    ps_6-31g*
  C25       1.949  1.900  0.770   12.000    Y    Y      Y    ps_6-31g*
  C26       1.949  1.900  0.770   12.000    Y    Y      Y    ps_6-31g*
  C27       1.949  1.900  0.770   12.000    Y    Y      Y    ps_6-31g*
  H32       1.597  1.150  0.320    1.008    Y    Y      Y    ps_6-31g*
  H33       1.597  1.150  0.320    1.008    Y    Y      Y    ps_6-31g*
  H40       1.597  1.150  0.320    1.008    Y    Y      Y    ps_6-31g*
  H41       1.597  1.150  0.320    1.008    Y    Y      Y    ps_6-31g*
  C28       1.949  1.900  0.770   12.000    Y    Y      Y    ps_6-31g*
  H43       1.597  1.150  0.320    1.008    Y    Y      Y    ps_6-31g*
  H44       1.597  1.150  0.320    1.008    Y    Y      Y    ps_6-31g*
  H51       1.597  1.150  0.320    1.008    Y    Y      Y    ps_6-31g*
  H52       1.597  1.150  0.320    1.008    Y    Y      Y    ps_6-31g*
  H53       1.597  1.150  0.320    1.008    Y    Y      Y    ps_6-31g*
  H54       1.597  1.150  0.320    1.008    Y    Y      Y    ps_6-31g*
  H55       1.597  1.150  0.320    1.008    Y    Y      Y    ps_6-31g*
  H56       1.597  1.150  0.320    1.008    Y    Y      Y    ps_6-31g*
  H57       1.597  1.150  0.320    1.008    Y    Y      Y    ps_6-31g*
  H58       1.597  1.150  0.320    1.008    Y    Y      Y    ps_6-31g*
  H59       1.597  1.150  0.320    1.008    Y    Y      Y    ps_6-31g*
  P66       2.147  2.074  1.060   30.974    Y    Y      Y    ps_6-31g*
  C67       1.949  1.900  0.770   12.000    Y    Y      Y    ps_6-31g*
  C71       1.949  1.900  0.770   12.000    Y    Y      Y    ps_6-31g*
  C72       1.949  1.900  0.770   12.000    Y    Y      Y    ps_6-31g*
  H76       1.597  1.150  0.320    1.008    Y    Y      Y    ps_6-31g*
  H77       1.597  1.150  0.320    1.008    Y    Y      Y    ps_6-31g*
  C44       1.949  1.900  0.770   12.000    Y    Y      Y    ps_6-31g*
  H82       1.597  1.150  0.320    1.008    Y    Y      Y    ps_6-31g*
  H83       1.597  1.150  0.320    1.008    Y    Y      Y    ps_6-31g*
  C84       1.949  1.900  0.770   12.000    Y    Y      Y    ps_6-31g*
  C88       1.949  1.900  0.770   12.000    Y    Y      Y    ps_6-31g*
  C89       1.949  1.900  0.770   12.000    Y    Y      Y    ps_6-31g*
  H93       1.597  1.150  0.320    1.008    Y    Y      Y    ps_6-31g*
  H94       1.597  1.150  0.320    1.008    Y    Y      Y    ps_6-31g*
  C52       1.949  1.900  0.770   12.000    Y    Y      Y    ps_6-31g*
  H99       1.597  1.150  0.320    1.008    Y    Y      Y    ps_6-31g*
  H100      1.597  1.150  0.320    1.008    Y    Y      Y    ps_6-31g*
  C101      1.949  1.900  0.770   12.000    Y    Y      Y    ps_6-31g*
  C102      1.949  1.900  0.770   12.000    Y    Y      Y    ps_6-31g*
  C103      1.949  1.900  0.770   12.000    Y    Y      Y    ps_6-31g*
  C104      1.949  1.900  0.770   12.000    Y    Y      Y    ps_6-31g*
  C105      1.949  1.900  0.770   12.000    Y    Y      Y    ps_6-31g*
  C106      1.949  1.900  0.770   12.000    Y    Y      Y    ps_6-31g*
  H107      1.597  1.150  0.320    1.008    Y    Y      Y    ps_6-31g*
  H108      1.597  1.150  0.320    1.008    Y    Y      Y    ps_6-31g*
  H109      1.597  1.150  0.320    1.008    Y    Y      Y    ps_6-31g*
  H110      1.597  1.150  0.320    1.008    Y    Y      Y    ps_6-31g*
  C111      1.949  1.900  0.770   12.000    Y    Y      Y    ps_6-31g*
  C112      1.949  1.900  0.770   12.000    Y    Y      Y    ps_6-31g*
  C113      1.949  1.900  0.770   12.000    Y    Y      Y    ps_6-31g*
  C114      1.949  1.900  0.770   12.000    Y    Y      Y    ps_6-31g*
  C115      1.949  1.900  0.770   12.000    Y    Y      Y    ps_6-31g*
  C116      1.949  1.900  0.770   12.000    Y    Y      Y    ps_6-31g*
  H117      1.597  1.150  0.320    1.008    Y    Y      Y    ps_6-31g*
  H118      1.597  1.150  0.320    1.008    Y    Y      Y    ps_6-31g*
  H119      1.597  1.150  0.320    1.008    Y    Y      Y    ps_6-31g*
  H74       1.597  1.150  0.320    1.008    Y    Y      Y    ps_6-31g*
  H75       1.597  1.150  0.320    1.008    Y    Y      Y    ps_6-31g*
  H78       1.597  1.150  0.320    1.008    Y    Y      Y    ps_6-31g*
  H79       1.597  1.150  0.320    1.008    Y    Y      Y    ps_6-31g*
  H80       1.597  1.150  0.320    1.008    Y    Y      Y    ps_6-31g*
  H81       1.597  1.150  0.320    1.008    Y    Y      Y    ps_6-31g*
  H84       1.597  1.150  0.320    1.008    Y    Y      Y    ps_6-31g*
  H85       1.597  1.150  0.320    1.008    Y    Y      Y    ps_6-31g*
  H86       1.597  1.150  0.320    1.008    Y    Y      Y    ps_6-31g*
  H87       1.597  1.150  0.320    1.008    Y    Y      Y    ps_6-31g*
  H88       1.597  1.150  0.320    1.008    Y    Y      Y    ps_6-31g*
  H89       1.597  1.150  0.320    1.008    Y    Y      Y    ps_6-31g*
  H90       1.597  1.150  0.320    1.008    Y    Y      Y    ps_6-31g*
  H91       1.597  1.150  0.320    1.008    Y    Y      Y    ps_6-31g*
  H92       1.597  1.150  0.320    1.008    Y    Y      Y    ps_6-31g*
  H95       1.597  1.150  0.320    1.008    Y    Y      Y    ps_6-31g*
  H96       1.597  1.150  0.320    1.008    Y    Y      Y    ps_6-31g*
  H97       1.597  1.150  0.320    1.008    Y    Y      Y    ps_6-31g*
  H98       1.597  1.150  0.320    1.008    Y    Y      Y    ps_6-31g*
  H101      1.597  1.150  0.320    1.008    Y    Y      Y    ps_6-31g*
  H102      1.597  1.150  0.320    1.008    Y    Y      Y    ps_6-31g*
  H103      1.597  1.150  0.320    1.008    Y    Y      Y    ps_6-31g*
  H104      1.597  1.150  0.320    1.008    Y    Y      Y    ps_6-31g*
  H105      1.597  1.150  0.320    1.008    Y    Y      Y    ps_6-31g*
 
  atom      formal  2spin      esp    mulk    frag
  P1           0       0        Y    0.000       0
  Pd2          0       0        Y    0.000       0
  P66          0       0        Y    0.000       0
  
  end of program pre
   
 Time(pre)  user:       4.901  user+sys:       4.901  wallclock:       1.615
  
  start of program onee
  
  smallest eigenvalue of S:    3.946E-04
  number of canonical orbitals.....          731
  end of program onee
   
 Time(onee)  user:       9.525  user+sys:       9.525  wallclock:       1.670
  
  start of program hfig
  
  initial wavefunction generated automatically from atomic wavefunctions
  Only one possible d-orb occupation 
  Skip d-d repulsion considerations 
 
  Irreducible     Total no   No of occupied orbitals 
  representation  orbitals   Shell_1  Shell_2    ...
  No Symm          731        171
  ------------------------
  Orbital occupation/shell    1.000
 
  end of program hfig
   
 Time(hfig)  user:       3.228  user+sys:       3.228  wallclock:       1.253
  
  start of program probe
  
  end of program probe
   
 Time(probe)  user:       2.013  user+sys:       2.013  wallclock:       0.604
  
  start of program grid
  
   grid     grid set  grid #  grid sym
  ------    --------  ------  --------
  coarse        0        0        1
  medium        2        1        1
  fine          0        0        1
  ultrafine     4        2        1
  charge       -1        3        1
  gradient      4        2        1
  density       0        0        1
  DFT-fine    -11        4        1
  DFT-med.    -10        5        1
  DFT-grad    -12        6        1
  DFT-der2     -8        7        1
  DFT-cphf     -9        8        1
  LMP2-enrg     4        2        1
  LMP2-grad     2        1        1
  DFT-cphf2   -15        9        1
  PBF-dens      0        0        1
  plotting      0        0        1
  Rel-grad    -17        0        1
  
  number of gridpoints: 
     atom           P1         Pd2          C3          C4          C5          C6         C10
  grid # 1         602         348          88          88          95          80          81
  grid # 2         425         324         363         361         382         242         236
  grid # 3           6         217           6           6          14           6           6
  grid # 4        8714        8714        8714        8714        8714        8714        8714
  grid # 5        1192        1192        1192        1192        1192        1192        1192
  grid # 6        9132        9132        5922        5922        5922        5922        5922
  grid # 7       23034       32968       13950       13950       13950       13950       13950
  grid # 8         722        1150         748         748         748         748         748
  grid # 9         366        2198         394         394         394         394         394
   
  number of gridpoints: 
     atom          C11         C15         C16         C17         C18         C19         C20
  grid # 1          80          80          93          95          97          96          98
  grid # 2         242         239         324         324         324         327         360
  grid # 3           6           6          14          33          48          34          20
  grid # 4        8714        8714        8714        8714        8714        8714        8714
  grid # 5        1192        1192        1192        1192        1192        1192        1192
  grid # 6        5922        5922        5922        5922        5922        5922        5922
  grid # 7       13950       13950       13950       13950       13950       13950       13950
  grid # 8         748         748         748         748         748         748         748
  grid # 9         394         394         394         394         394         394         394
   
  number of gridpoints: 
     atom          C21         C22         C23         C24         C25         C26         C27
  grid # 1          98          94          91          91          94          94          79
  grid # 2         354         319         291         291         303         323         234
  grid # 3           8          15          26          26          27          18           6
  grid # 4        8714        8714        8714        8714        8714        8714        8714
  grid # 5        1192        1192        1192        1192        1192        1192        1192
  grid # 6        5922        5922        5922        5922        5922        5922        5922
  grid # 7       13950       13950       13950       13950       13950       13950       13950
  grid # 8         748         748         748         748         748         748         748
  grid # 9         394         394         394         394         394         394         394
   
  number of gridpoints: 
     atom          H32         H33         H40         H41         C28         H43         H44
  grid # 1         103         101         101         108          78          98         105
  grid # 2         441         434         427         436         241         415         438
  grid # 3         200         127         157         214           6          75         223
  grid # 4        8714        8714        8714        8714        8714        8714        8714
  grid # 5        1192        1192        1192        1192        1192        1192        1192
  grid # 6        5922        5922        5922        5922        5922        5922        5922
  grid # 7       15206       15206       15206       15206       13950       15206       15206
  grid # 8         786         786         786         786         748         786         786
  grid # 9         420         420         420         420         394         420         420
   
  number of gridpoints: 
     atom          H51         H52         H53         H54         H55         H56         H57
  grid # 1         101          99         104         118         118         116         110
  grid # 2         429         411         421         465         468         457         440
  grid # 3         184         136          93         417         426         346         259
  grid # 4        8714        8714        8714        8714        8714        8714        8714
  grid # 5        1192        1192        1192        1192        1192        1192        1192
  grid # 6        5922        5922        5922        5922        5922        5922        5922
  grid # 7       15206       15206       15206       15206       15206       15206       15206
  grid # 8         786         786         786         786         786         786         786
  grid # 9         420         420         420         420         420         420         420
   
  number of gridpoints: 
     atom          H58         H59         P66         C67         C71         C72         H76
  grid # 1         106         115         604          88          80          81         101
  grid # 2         430         455         426         360         238         241         428
  grid # 3         228         299           6           6           6           6         183
  grid # 4        8714        8714        8714        8714        8714        8714        8714
  grid # 5        1192        1192        1192        1192        1192        1192        1192
  grid # 6        5922        5922        9132        5922        5922        5922        5922
  grid # 7       15206       15206       23034       13950       13950       13950       15206
  grid # 8         786         786         722         748         748         748         786
  grid # 9         420         420         366         394         394         394         420
   
  number of gridpoints: 
     atom          H77         C44         H82         H83         C84         C88         C89
  grid # 1         105          79          99          98          88          80          81
  grid # 2         439         243         409         415         362         242         236
  grid # 3         221           6         135          77           6           6           6
  grid # 4        8714        8714        8714        8714        8714        8714        8714
  grid # 5        1192        1192        1192        1192        1192        1192        1192
  grid # 6        5922        5922        5922        5922        5922        5922        5922
  grid # 7       15206       13950       15206       15206       13950       13950       13950
  grid # 8         786         748         786         786         748         748         748
  grid # 9         420         394         420         420         394         394         394
   
  number of gridpoints: 
     atom          H93         H94         C52         H99        H100        C101        C102
  grid # 1         103         108          78          99         103          95          97
  grid # 2         442         436         237         434         425         382         324
  grid # 3         203         214           6         119         159          14          48
  grid # 4        8714        8714        8714        8714        8714        8714        8714
  grid # 5        1192        1192        1192        1192        1192        1192        1192
  grid # 6        5922        5922        5922        5922        5922        5922        5922
  grid # 7       15206       15206       13950       15206       15206       13950       13950
  grid # 8         786         786         748         786         786         748         748
  grid # 9         420         420         394         420         420         394         394
   
  number of gridpoints: 
     atom         C103        C104        C105        C106        H107        H108        H109
  grid # 1          98          93          95          96         101         118         116
  grid # 2         360         324         324         327         421         466         457
  grid # 3          21          14          33          34          87         415         339
  grid # 4        8714        8714        8714        8714        8714        8714        8714
  grid # 5        1192        1192        1192        1192        1192        1192        1192
  grid # 6        5922        5922        5922        5922        5922        5922        5922
  grid # 7       13950       13950       13950       13950       15206       15206       15206
  grid # 8         748         748         748         748         786         786         786
  grid # 9         394         394         394         394         420         420         420
   
  number of gridpoints: 
     atom         H110        C111        C112        C113        C114        C115        C116
  grid # 1         118          99          91          94          94          93          91
  grid # 2         468         354         297         319         323         298         290
  grid # 3         426           8          28          15          18          27          26
  grid # 4        8714        8714        8714        8714        8714        8714        8714
  grid # 5        1192        1192        1192        1192        1192        1192        1192
  grid # 6        5922        5922        5922        5922        5922        5922        5922
  grid # 7       15206       13950       13950       13950       13950       13950       13950
  grid # 8         786         748         748         748         748         748         748
  grid # 9         420         394         394         394         394         394         394
   
  number of gridpoints: 
     atom         H117        H118        H119         H74         H75         H78         H79
  grid # 1         111         110         106         112         112         112         112
  grid # 2         452         444         426         445         453         445         453
  grid # 3         287         276         234         230         234         234         233
  grid # 4        8714        8714        8714        8714        8714        8714        8714
  grid # 5        1192        1192        1192        1192        1192        1192        1192
  grid # 6        5922        5922        5922        5922        5922        5922        5922
  grid # 7       15206       15206       15206       15206       15206       15206       15206
  grid # 8         786         786         786         786         786         786         786
  grid # 9         420         420         420         420         420         420         420
   
  number of gridpoints: 
     atom          H80         H81         H84         H85         H86         H87         H88
  grid # 1         109         109         109         109         109         109         109
  grid # 2         446         446         447         447         446         447         447
  grid # 3         269         269         274         264         272         271         275
  grid # 4        8714        8714        8714        8714        8714        8714        8714
  grid # 5        1192        1192        1192        1192        1192        1192        1192
  grid # 6        5922        5922        5922        5922        5922        5922        5922
  grid # 7       15206       15206       15206       15206       15206       15206       15206
  grid # 8         786         786         786         786         786         786         786
  grid # 9         420         420         420         420         420         420         420
   
  number of gridpoints: 
     atom          H89         H90         H91         H92         H95         H96         H97
  grid # 1         109         101          88          91         106          87          94
  grid # 2         447         417         384         384         428         368         406
  grid # 3         261         143           6          33         138           6          14
  grid # 4        8714        8714        8714        8714        8714        8714        8714
  grid # 5        1192        1192        1192        1192        1192        1192        1192
  grid # 6        5922        5922        5922        5922        5922        5922        5922
  grid # 7       15206       15206       15206       15206       15206       15206       15206
  grid # 8         786         786         786         786         786         786         786
  grid # 9         420         420         420         420         420         420         420
   
  number of gridpoints: 
     atom          H98        H101        H102        H103        H104        H105       total
  grid # 1         105          87          95         101          90          90       10789
  grid # 2         425         371         405         416         384         379       36601
  grid # 3         127           6          17         135           6          29       11399
  grid # 4        8714        8714        8714        8714        8714        8714      845258
  grid # 5        1192        1192        1192        1192        1192        1192      115624
  grid # 6        5922        5922        5922        5922        5922        5922      584064
  grid # 7       15206       15206       15206       15206       15206       15206     1458160
  grid # 8         786         786         786         786         786         786       74958
  grid # 9         420         420         420         420         420         420       41370
   
  end of program grid
   
 Time(grid)  user:     721.524  user+sys:     721.524  wallclock:      48.663
  
  start of program rwr
  
  end of program rwr
   
 Time(rwr)  user:      82.861  user+sys:      82.861  wallclock:      23.227
  
  start of program scf
  
 number of electrons..........        342
 number of alpha electrons....        171
 number of beta electrons.....        171
 number of orbitals, total....        731
 number of doubly-occ'd orbs..        171
 number of open shell orbs....          0
 number of occupied orbitals..        171
 number of virtual orbitals...        560
 number of hamiltonians.......          1
 number of shells.............          1
 SCF type: DFT=Becke_3_Parameter/HF+Slater+Becke88+PW91+PW-GGAIIC (B3PW91-D3)
 Energy computed using pseudospectral method.
 Convergence Criterion:
    Energy (econv):       1.00E-05
    RMS density (dconv):  5.00E-06
  
       i  u  d  i  g                   
       t  p  i  c  r                                 RMS    maximum
       e  d  i  u  i                       energy  density   DIIS  
       r  t  s  t  d       total energy    change  change    error 
  
etot    1  N  N  5  M   -2360.21745704097           1.8E-03  2.3E-01
etot    2  Y  Y  6  M   -2363.63994344324  3.4E+00  3.1E-03  1.5E-01
etot    3  Y  Y  6  M   -2364.86024600731  1.2E+00  9.9E-04  3.2E-02
etot    4  N  Y  2  U   -2365.08366059571  2.2E-01  8.0E-04  6.9E-02
etot    5  Y  Y  6  M   -2365.17672361021  9.3E-02  4.5E-04  4.4E-02
etot    6  N  Y  2  U   -2365.18922916473  1.3E-02  8.2E-04  2.9E-02
etot    7  Y  Y  6  M   -2365.19330958481  4.1E-03  1.2E-04  4.7E-03
etot    8  Y  Y  6  M   -2365.19896146721  5.7E-03  2.7E-05  6.9E-04
etot    9  N  Y  2  U   -2365.20216008686  3.2E-03  9.1E-06  1.4E-04
etot   10  N  Y  2  U   -2365.20216655734  6.5E-06  3.7E-06  8.0E-05
etot   11  N  N  2  U   -2365.20216931350  2.8E-06  0.0E+00  0.0E+00
 
  Computing the dispersion energy correction and its gradients...
  
  
 Energy components, in hartrees:
   (A)  Nuclear repulsion............    6903.55520418177
   (E)  Total one-electron terms.....  -17034.79440613311
   (F)    Electron-nuclear...........  -19310.51615431798
   (H)    Kinetic....................    2275.72174818487
   (I)  Total two-electron terms.....    7766.03703263784
   (J)    Coulomb....................    8062.87936257353
   (K)    Exchange+Correlation.......    -296.84232993569
   (L)  Electronic energy............   -9268.75737349528  (E+I)
   (N0) D3 correction................      -0.20954066784
   (N)  Total energy.................   -2365.41170998135  (A+L+N0)
   (O)  Gas phase energy.............   -2365.41170998135
  
 SCFE: SCF energy: DFT(b3pw91-d3)     -2365.41170998135 hartrees   iterations:  11
  
 
 HOMO energy:    -0.14080
 LUMO energy:    -0.02406
 
  Orbital energies (hartrees): 
   -77.04323   -77.04206   -10.18171   -10.18062   -10.17675   -10.17619
   -10.17566   -10.17512   -10.17387   -10.17357   -10.17172   -10.17168
   -10.17106   -10.17103   -10.17067   -10.17023   -10.16998   -10.16865
   -10.16864   -10.16698   -10.16662   -10.16594   -10.16314   -10.16113
   -10.16099   -10.16039   -10.15905   -10.15875   -10.15839   -10.15567
   -10.15554   -10.15494   -10.15004   -10.14865   -10.14524   -10.14441
   -10.14428   -10.14388   -10.13383   -10.13131   -10.12783   -10.12529
    -6.54449    -6.54338    -4.70285    -4.70197    -4.70174    -4.70087
    -4.69857    -4.69745    -3.24492    -1.98192    -1.96236    -1.95967
    -0.88060    -0.87817    -0.85991    -0.85669    -0.82503    -0.82115
    -0.80497    -0.80431    -0.78532    -0.78496    -0.75710    -0.75434
    -0.74939    -0.74758    -0.73455    -0.73373    -0.69338    -0.68962
    -0.68808    -0.68657    -0.67980    -0.67896    -0.67575    -0.67346
    -0.64427    -0.63814    -0.61705    -0.61387    -0.61121    -0.60992
    -0.59435    -0.59358    -0.57440    -0.57370    -0.53806    -0.53760
    -0.53661    -0.52581    -0.51574    -0.51522    -0.50415    -0.49438
    -0.47971    -0.47677    -0.47553    -0.46501    -0.46322    -0.46239
    -0.45598    -0.45266    -0.45143    -0.44666    -0.44563    -0.44482
    -0.44207    -0.43912    -0.43647    -0.43196    -0.42629    -0.42557
    -0.42025    -0.41704    -0.41533    -0.41328    -0.40972    -0.40724
    -0.40116    -0.39549    -0.39308    -0.39265    -0.39054    -0.38865
    -0.38249    -0.37802    -0.37711    -0.37413    -0.37042    -0.36931
    -0.36591    -0.36288    -0.35882    -0.35800    -0.35522    -0.35285
    -0.35167    -0.34832    -0.34215    -0.33838    -0.33653    -0.33444
    -0.33033    -0.32894    -0.32368    -0.32068    -0.31538    -0.31232
    -0.30896    -0.29668    -0.29381    -0.28872    -0.28715    -0.28669
    -0.28333    -0.24797    -0.24731    -0.24601    -0.24500    -0.23935
    -0.21561    -0.21424    -0.20251    -0.19715    -0.19448    -0.19205
    -0.17500    -0.17440    -0.14080    -0.02406    -0.02179    -0.00834
    -0.00392    -0.00084     0.00153     0.01388     0.01938     0.03612
     0.03955
 
  end of program scf
   
 Time(scf)  user:     811.771  user+sys:     811.771  wallclock:      77.937
  
  start of program der1a
  
  end of program der1a
   
 Time(der1a)  user:      25.304  user+sys:      25.304  wallclock:       2.325
  
  start of program rwr
  
  end of program rwr
   
 Time(rwr)  user:      67.781  user+sys:      67.781  wallclock:      24.838
  
  start of program der1b
  
   
  forces (hartrees/bohr) : total     
   
 atom  label           x              y              z
 ---- --------   -------------  -------------  -------------
    1 P1         -8.726898E-03   1.167911E-02  -1.084605E-02
    2 Pd2         8.569631E-03   6.695476E-03   1.263245E-03
    3 C3          1.055268E-02  -1.199666E-02  -6.356953E-03
    4 C4         -4.882656E-03  -1.381605E-02   1.437173E-02
    5 C5          1.279782E-03   6.495475E-04  -1.191479E-03
    6 C6         -1.981782E-02   1.677051E-03   3.144591E-03
    7 C10        -1.955016E-02   9.487226E-03   6.582205E-03
    8 C11         5.762260E-03   1.715999E-02  -1.180132E-02
    9 C15        -1.558812E-04   1.871289E-02  -5.640423E-03
   10 C16         1.678328E-04  -3.738741E-04  -9.541844E-05
   11 C17         1.382796E-04  -7.219697E-05  -5.277831E-05
   12 C18         7.427455E-04  -1.399878E-03   1.889987E-04
   13 C19        -1.222930E-03   6.113212E-04  -5.532232E-04
   14 C20        -1.155542E-03  -1.016975E-04   2.585528E-03
   15 C21        -1.748999E-02  -5.434568E-03   6.606037E-03
   16 C22         3.418039E-03   2.585782E-02  -2.811348E-02
   17 C23        -1.204695E-02   5.389665E-02  -3.180993E-02
   18 C24        -5.553845E-02   6.266757E-02  -3.860859E-02
   19 C25        -3.127965E-03   2.171390E-02  -5.465362E-02
   20 C26         6.293446E-03   1.064053E-02   1.977976E-02
   21 C27        -3.328106E-02   6.393157E-02  -6.263532E-02
   22 H32         6.236315E-03   2.817037E-03  -1.688201E-03
   23 H33         4.738445E-03   1.869554E-04  -1.341040E-04
   24 H40         3.926194E-03  -1.229514E-03  -1.964826E-03
   25 H41         4.614587E-03  -6.269921E-04  -4.170394E-03
   26 C28        -4.364947E-02   1.957131E-02  -3.366917E-02
   27 H43        -1.652399E-03  -4.636517E-03   8.283696E-05
   28 H44        -4.450129E-03  -4.107615E-03   1.073632E-03
   29 H51        -9.857834E-04  -5.243235E-03  -5.693967E-04
   30 H52        -6.906909E-03  -5.606127E-03  -3.658984E-03
   31 H53         3.352333E-04  -3.258977E-04  -1.394394E-04
   32 H54         1.297080E-04   9.676619E-05   4.781671E-04
   33 H55         2.863507E-04  -2.972458E-04   1.794330E-04
   34 H56         3.915455E-04  -3.910498E-04   1.071382E-04
   35 H57        -3.831939E-03   8.987083E-03  -4.125783E-03
   36 H58        -1.255198E-02   1.063449E-02  -1.913161E-02
   37 H59         3.111522E-03  -6.332514E-04   1.141564E-03
   38 P66         9.198303E-03  -1.184275E-02   9.446464E-03
   39 C67        -1.493724E-02   1.071396E-03  -1.473581E-02
   40 C71         1.762300E-02  -6.395016E-03   6.419161E-03
   41 C72         1.867050E-02  -1.981113E-04   1.104501E-02
   42 H76        -5.791177E-03   7.186818E-04   4.474986E-04
   43 H77        -5.392254E-03  -2.853604E-03  -9.675021E-04
   44 C44         3.717570E-03  -4.722107E-02   3.199335E-02
   45 H82        -8.323298E-03  -5.956768E-03   4.277338E-03
   46 H83        -4.987510E-03  -1.490002E-04  -2.026982E-04
   47 C84        -9.132670E-03   1.273647E-02   5.244932E-03
   48 C88        -4.593866E-03  -1.949784E-02  -3.459319E-03
   49 C89         2.031763E-03  -2.017182E-02  -7.149618E-03
   50 H93         4.387324E-03   5.195156E-03   1.656798E-03
   51 H94         1.049995E-03   4.884342E-03   4.095377E-03
   52 C52         4.582803E-02  -4.657233E-02   6.058439E-02
   53 H99         1.679538E-03   4.327047E-03   6.216707E-04
   54 H100        5.954332E-04   4.620968E-03   2.056646E-03
   55 C101        3.405691E-04   1.868955E-04   1.090626E-03
   56 C102       -1.303021E-03   1.404182E-03  -2.620143E-04
   57 C103       -8.605000E-04  -1.060488E-03  -1.864150E-03
   58 C104        9.231783E-04  -2.441192E-04  -4.879774E-05
   59 C105        8.026009E-05   5.380579E-05  -1.265098E-04
   60 C106       -9.377084E-06  -1.542559E-03   5.837362E-04
   61 H107       -1.385824E-04  -4.758008E-04  -3.131597E-05
   62 H108        1.153358E-04   4.136689E-05  -4.874925E-04
   63 H109       -2.335622E-04   5.688484E-04  -5.479353E-05
   64 H110       -2.323463E-04   3.832782E-04  -1.976323E-04
   65 C111       -1.269504E-02  -1.939560E-02  -6.850070E-03
   66 C112        4.226262E-02  -8.713964E-02   4.204055E-02
   67 C113        2.449902E-02  -3.069777E-03   3.548570E-02
   68 C114        1.580740E-02   3.126648E-03  -2.195809E-02
   69 C115        2.732540E-02  -1.711711E-02   7.085556E-02
   70 C116        5.286618E-02  -2.114927E-02   2.232110E-02
   71 H117        1.988392E-04   3.172867E-03  -7.887279E-04
   72 H118        4.677653E-03  -3.706689E-03   2.226449E-03
   73 H119        4.536133E-03  -1.376301E-02   1.711081E-02
   74 H74        -3.004503E-03  -7.496531E-04  -5.814158E-03
   75 H75         3.187758E-03   1.742126E-04  -3.988712E-03
   76 H78        -1.847283E-03  -2.450096E-03   5.745251E-03
   77 H79         7.741607E-04   3.413674E-03   3.363429E-03
   78 H80        -2.625833E-03  -3.024186E-03   1.008698E-03
   79 H81        -1.878593E-03  -3.904943E-03  -1.230502E-03
   80 H84         3.531564E-03  -5.295194E-04  -2.261098E-03
   81 H85         4.070029E-03   1.440119E-03  -1.597630E-03
   82 H86        -4.196133E-03  -5.503722E-04   1.292590E-03
   83 H87        -3.626857E-03  -1.514110E-03  -9.263230E-04
   84 H88         5.030776E-04   3.506349E-03   2.271343E-03
   85 H89         2.552887E-03   3.408363E-03   1.596046E-03
   86 H90         1.160075E-02  -4.505785E-03   7.685639E-03
   87 H91         2.323205E-02  -3.439159E-02   3.574863E-02
   88 H92         7.437219E-03   1.398658E-02   6.140186E-03
   89 H95        -6.988996E-03   6.299526E-04   5.273420E-04
   90 H96        -1.479904E-03  -4.012202E-02   1.071102E-03
   91 H97         3.233786E-03   2.982233E-03  -2.072326E-03
   92 H98        -3.014308E-03  -5.366690E-03  -1.195477E-03
   93 H101       -3.957005E-02   1.256450E-02  -2.243254E-03
   94 H102        4.150546E-03   1.770265E-03   2.686777E-03
   95 H103        1.576852E-03   1.132519E-02  -6.022224E-03
   96 H104       -2.910119E-02   3.295210E-02  -4.051997E-02
   97 H105        1.219273E-02   4.976491E-03  -7.984861E-03
 -------------   -------------  -------------  -------------
     total        1.630789E-04   3.725694E-04  -3.265131E-04
   
  end of program der1b
   
 Time(der1b)  user:     307.212  user+sys:     307.212  wallclock:      26.831
  
  start of program geopt
  
 ----------------------------------------------------------------------------
  Geometry optimization step  1
  Total energy:     -2365.41170998135 hartrees
 ----------------------------------------------------------------------------
  
  
  Level shifts adjusted to satisfy step-size constraints
   Step size:    0.3000056
   Cos(theta):   0.3881128
   Final level shift:  -1.0981458E+00
  
  gradient maximum:        2.6213E+00 .  (  2.2500E-03 )
  gradient rms:            3.0122E-01 .  (  1.5000E-03 )
  displacement maximum:    1.0660E-01 .  (  9.0000E-03 )
  displacement rms:        1.6876E-02 .  (  6.0000E-03 )
  
  predicted energy change:  -3.6115E-01
  step size:     0.30000
  trust radius:  0.30000
  
  molecular structure not yet converged...
  
  center of mass moved by:
     x:    -4.3833E-03     y:     9.5330E-04     z:    -3.6288E-04
  
  new geometry: 
                                   angstroms
  atom               x                 y                 z
  P1            0.2445571387      0.0805395614     -0.6361680279 
  Pd2           0.4056585179      0.3304212251      1.6536074956 
  C3            1.8682614153      0.0909322986     -1.6091486333 
  C4           -0.6683609898     -1.5582492631     -0.9108918601 
  C5           -0.7786354838      1.1766097101     -1.7273481140 
  C6            2.7163188803      1.2542063342     -1.0668759153 
  C10           1.8422203570      0.1454635154     -3.1425053286 
  C11          -2.1529101246     -1.3344837990     -0.5769269402 
  C15          -0.5358967883     -2.3486171062     -2.2198618176 
  C16          -1.0169778409      0.8034682979     -3.0634868377 
  C17          -1.7757699849      1.5768039989     -3.9348109029 
  C18          -2.3275265195      2.7745823823     -3.4875088966 
  C19          -2.1231389655      3.1543448607     -2.1682712645 
  C20          -1.3689666586      2.3709176558     -1.2800812685 
  C21          -1.3172210938      2.8770411831      0.1146849496 
  C22          -2.4562718289      2.7624948662      0.9139157336 
  C23          -2.5329115775      3.4135012144      2.1484473040 
  C24          -1.4555267554      4.1858339807      2.5672903198 
  C25          -0.3056329162      4.3088490680      1.7905590898 
  C26          -0.2378023028      3.6491158067      0.5689324173 
  C27           2.6270263794     -1.1989090617     -1.2371511715 
  H32           2.2210927230      2.2012392590     -1.3204850968 
  H33           2.7421479830      1.2049350030      0.0291207085 
  H40           1.2510451213     -0.6746146256     -3.5633643942 
  H41           1.3667638750      1.0795084806     -3.4707546498 
  C28          -0.1414592663     -2.4732069488      0.2177450920 
  H43          -2.2439937574     -0.7593742939      0.3530556319 
  H44          -2.6229256996     -0.7292300124     -1.3649294457 
  H51          -0.9683744197     -1.7925754835     -3.0611239499 
  H52           0.5162915602     -2.5328915379     -2.4628682028 
  H53          -0.6010062338     -0.1233105509     -3.4384735478 
  H54          -1.9322698353      1.2427974187     -4.9585889490 
  H55          -2.9194324699      3.3983119965     -4.1538867731 
  H56          -2.5665455477      4.0741945307     -1.7934202489 
  H57          -3.4177515781      3.3387611517      2.7707627556 
  H58          -1.5249984555      4.7193948856      3.5076168187 
  H59           0.5227681651      4.9116991034      2.1446597931 
  P66           0.1058002814      0.1903745197      3.9391260608 
  C67          -1.7440865518     -0.1248394185      4.2072553874 
  C71          -2.4511533064      0.2711899439      5.5105778627 
  C72          -2.0289108035     -1.5994960572      3.8785815620 
  H76          -2.0701975445     -0.3171277592      6.3550956404 
  H77          -1.6058610544     -2.2414633298      4.6641999958 
  C44          -2.4097058179      0.6877919304      3.0759909281 
  H82          -2.2757792453      1.3251657877      5.7509277200 
  H83          -1.5243796025     -1.8782277993      2.9451929323 
  C84           0.6677963050      1.6999765767      4.9410977550 
  C88           2.0204903671      2.1535307606      4.3635350054 
  C89           0.7687098898      1.6073019364      6.4693598665 
  H93           2.7664287452      1.3696322986      4.5537822184 
  H94           1.4996212069      0.8356125370      6.7453952303 
  C52          -0.3288816865      2.8453528489      4.6643179683 
  H99           1.9388897039      2.2416710581      3.2725236705 
  H100         -0.1873646676      1.3107412578      6.9150081192 
  C101          0.8469791538     -1.1242623452      5.0149350486 
  C102          1.8750439215     -3.1080305325      6.7525760180 
  C103          1.7919199603     -2.0543999875      4.5491471671 
  C104          0.4095183440     -1.2463440732      6.3471693279 
  C105          0.9074504365     -2.2162599095      7.2093978700 
  C106          2.2988927249     -3.0217047468      5.4330053655 
  H107         -0.3438982564     -0.5664269247      6.7239472034 
  H108          0.5407225164     -2.2718535238      8.2324144688 
  H109          3.0335164389     -3.7278876725      5.0523699957 
  H110          2.2849385909     -3.8706863465      7.4112350337 
  C111          2.2923048934     -2.1728054202      3.1557332046 
  C112          3.5095829932     -2.7709589132      0.7192966571 
  C113          1.8398501717     -3.2401196763      2.3803241568 
  C114          3.3568373883     -1.3899931224      2.6791142174 
  C115          3.9687841677     -1.6907302339      1.4667560225 
  C116          2.4420124604     -3.5416032219      1.1543797440 
  H117          4.7999902432     -1.0973043580      1.1028153290 
  H118          2.0937797072     -4.3728639417      0.5514030604 
  H119          4.0013510916     -3.0228107272     -0.2128407673 
  H74          -3.2886711003      2.1585153821      0.5788560092 
  H75           0.6588434073      3.7285246525     -0.0310221755 
  H78           1.0140361955     -3.8452436877      2.7295037338 
  H79           3.7106196278     -0.5490409479      3.2602367994 
  H80          -2.6715864181     -2.2901537382     -0.4824041990 
  H81          -1.0501831647     -3.3063872778     -2.1219983210 
  H84           2.8605818392      0.1015324033     -3.5328427428 
  H85           3.7274931822      1.2274012910     -1.4771427605 
  H86          -3.5250459037      0.1032953471      5.4111778510 
  H87          -3.1030209033     -1.7712549442      3.7892525677 
  H88           1.0783475631      2.5696061185      6.8809835120 
  H89           2.3373982742      3.1008286588      4.8036362595 
  H90          -0.0147189789      3.7195391106      5.2340579878 
  H91          -0.3486112290      3.1170588517      3.6096531223 
  H92          -1.3260220543      2.5556088292      4.9840461001 
  H95          -3.4940046647      0.5657398581      3.1299787582 
  H96          -2.1897709831      1.7556382840      3.1468371870 
  H97          -2.0489962308      0.3350725361      2.1087959072 
  H98          -0.6339996496     -3.4458152743      0.1541971999 
  H101          0.9346181182     -2.6448222097      0.1448699782 
  H102         -0.3488471327     -2.0190202937      1.1877938510 
  H103          3.5682839421     -1.2174914810     -1.7871132912 
  H104          2.8575306597     -1.2336775114     -0.1711794883 
  H105          2.0356196142     -2.0666878235     -1.5161378197 
   
 
  bond lengths (angstroms):
 
 P1      -Pd2     :   2.308997      P1      -C3      :   1.892938
 P1      -C4      :   1.895922      P1      -C5      :   1.854445
 Pd2     -P66     :   2.309356      C3      -C6      :   1.538333
 C3      -C10     :   1.534547      C3      -C27     :   1.542011
 C4      -C11     :   1.538015      C4      -C15     :   1.534806
 C4      -C28     :   1.545508      C5      -C16     :   1.407590
 C5      -C20     :   1.405315      C6      -H32     :   1.098380
 C6      -H33     :   1.097408      C6      -H85     :   1.091563
 C10     -H40     :   1.095052      C10     -H41     :   1.098293
 C10     -H84     :   1.091491      C11     -H43     :   1.097230
 C11     -H44     :   1.099179      C11     -H80     :   1.091451
 C15     -H51     :   1.097243      C15     -H52     :   1.095495
 C15     -H81     :   1.091509      C16     -C17     :   1.390331
 C16     -H53     :   1.082851      C17     -C18     :   1.392547
 C17     -H54     :   1.088198      C18     -C19     :   1.387942
 C18     -H55     :   1.087865      C19     -C20     :   1.404071
 C19     -H56     :   1.087771      C20     -C21     :   1.484659
 C21     -C22     :   1.396183      C21     -C26     :   1.402706
 C22     -C23     :   1.397766      C22     -H74     :   1.081640
 C23     -C24     :   1.390211      C23     -H57     :   1.084345
 C24     -C25     :   1.393090      C24     -H58     :   1.083387
 C25     -C26     :   1.390043      C25     -H59     :   1.084004
 C26     -H75     :   1.081769      C27     -H103    :   1.090307
 C27     -H104    :   1.091163      C27     -H105    :   1.086571
 C28     -H98     :   1.092063      C28     -H101    :   1.092110
 C28     -H102    :   1.091004      P66     -C67     :   1.895609
 P66     -C84     :   1.897020      P66     -C101    :   1.853370
 C67     -C71     :   1.534742      C67     -C72     :   1.537454
 C67     -C44     :   1.543755      C71     -H76     :   1.097477
 C71     -H82     :   1.095166      C71     -H86     :   1.091473
 C72     -H77     :   1.099222      C72     -H83     :   1.097022
 C72     -H87     :   1.091418      C44     -H95     :   1.092481
 C44     -H96     :   1.092560      C44     -H97     :   1.090866
 C84     -C88     :   1.539179      C84     -C89     :   1.534391
 C84     -C52     :   1.543328      C88     -H93     :   1.098688
 C88     -H99     :   1.097603      C88     -H89     :   1.091555
 C89     -H94     :   1.098149      C89     -H100    :   1.095732
 C89     -H88     :   1.091485      C52     -H90     :   1.089726
 C52     -H91     :   1.089280      C52     -H92     :   1.086493
 C101    -C103    :   1.405357      C101    -C104    :   1.407524
 C102    -C105    :   1.392903      C102    -C106    :   1.388656
 C102    -H110    :   1.087883      C103    -C106    :   1.404957
 C103    -C111    :   1.485263      C104    -C105    :   1.390004
 C104    -H107    :   1.082537      C105    -H108    :   1.088183
 C106    -H109    :   1.087773      C111    -C113    :   1.394681
 C111    -C114    :   1.404703      C112    -C115    :   1.391566
 C112    -C116    :   1.386686      C112    -H119    :   1.083580
[...]
    C24      Z    -0.00002  -0.00003   0.00082
    C25      X    -0.00006  -0.00007   0.00717
    C25      Y    -0.00002  -0.00003   0.00351
    C25      Z    -0.00001  -0.00002   0.00292
    C26      X    -0.00018  -0.00033   0.05715
    C26      Y     0.00012   0.00019  -0.03320
    C26      Z     0.00016   0.00028  -0.04864
    C27      X    -0.00001  -0.00001   0.00002
    C27      Y     0.00000   0.00001  -0.00006
    C27      Z     0.00010   0.00008  -0.00000
    H32      X    -0.00027  -0.00008   0.00659
    H32      Y     0.00038   0.00010  -0.00963
    H32      Z    -0.00002  -0.00002  -0.00433
    H33      X    -0.00031  -0.00005   0.00297
    H33      Y    -0.00012  -0.00001  -0.00268
    H33      Z    -0.00118  -0.00011   0.00222
    H40      X    -0.00592  -0.00006   0.00064
    H40      Y    -0.00662  -0.00009   0.00105
    H40      Z    -0.00087  -0.00003   0.00054
    H41      X    -0.00520   0.00002   0.00001
    H41      Y     0.01035  -0.00002  -0.00009
    H41      Z    -0.00433   0.00002   0.00010
    C28      X    -0.00001  -0.00003  -0.00002
    C28      Y     0.00020  -0.00001   0.00001
    C28      Z     0.00027  -0.00002   0.00001
    H43      X    -0.00019   0.00006   0.00005
    H43      Y    -0.00038  -0.00008   0.00002
    H43      Z    -0.00127  -0.00016   0.00005
    H44      X    -0.00157  -0.00003  -0.00003
    H44      Y     0.00079   0.00003  -0.00002
    H44      Z    -0.00008  -0.00006  -0.00005
    H51      X    -0.02263  -0.00002  -0.00017
    H51      Y     0.02884   0.00003   0.00016
    H51      Z    -0.03737  -0.00003  -0.00025
    H52      X    -0.00773   0.00009   0.00030
    H52      Y     0.00088  -0.00002  -0.00011
    H52      Z     0.00335  -0.00004  -0.00010
    H53      X     0.27951   0.00028   0.00089
    H53      Y    -0.84386  -0.00083  -0.00267
    H53      Z    -0.32752  -0.00032  -0.00095
    H54      X    -0.03387  -0.00007  -0.00015
    H54      Y    -0.03124  -0.00006  -0.00010
    H54      Z    -0.07636  -0.00015  -0.00028
    H55      X    -0.00607  -0.00004   0.00058
    H55      Y     0.00559   0.00004  -0.00034
    H55      Z    -0.00385  -0.00003   0.00040
    H56      X    -0.00268  -0.00005   0.00013
    H56      Y     0.00912   0.00014  -0.00034
    H56      Z     0.00341   0.00004  -0.00029
    H57      X    -0.00036  -0.00018   0.00500
    H57      Y     0.00026   0.00011  -0.00295
    H57      Z     0.00035   0.00013  -0.00416
    H58      X     0.00009   0.00012  -0.00086
    H58      Y     0.00024   0.00036  -0.00411
    H58      Z     0.00023   0.00033  -0.00439
    H59      X     0.00069   0.00075  -0.07137
    H59      Y     0.00019   0.00019  -0.01920
    H59      Z     0.00011   0.00007  -0.01090
    P66      X     0.00001  -0.00003   0.00001
    P66      Y     0.00001  -0.00003  -0.00000
    P66      Z    -0.00002  -0.00006  -0.00004
    C67      X    -0.00001   0.00001   0.00001
    C67      Y     0.00001   0.00003   0.00000
    C67      Z    -0.00000   0.00006   0.00001
    C71      X    -0.00001  -0.00004  -0.00000
    C71      Y     0.00014  -0.00002  -0.00000
    C71      Z    -0.00013  -0.00004  -0.00001
    C72      X     0.00000   0.00000   0.00001
    C72      Y     0.00001   0.00000   0.00000
    C72      Z     0.00000   0.00000  -0.00002
    H76      X     0.00123   0.00014   0.00002
    H76      Y    -0.00188  -0.00027  -0.00002
    H76      Z     0.00223   0.00031   0.00002
    H77      X     0.00001  -0.00003   0.00001
    H77      Y    -0.00009  -0.00002  -0.00003
    H77      Z    -0.00003   0.00004   0.00006
    C44      X     0.00002   0.00000  -0.00002
    C44      Y     0.00001  -0.00002  -0.00002
    C44      Z     0.00001  -0.00001   0.00002
    H82      X    -0.00010  -0.00002   0.00001
    H82      Y    -0.00044   0.00031   0.00009
    H82      Z    -0.00021   0.00010   0.00004
    H83      X     0.00011   0.00003  -0.00005
    H83      Y    -0.00005   0.00005   0.00008
    H83      Z    -0.00006  -0.00005   0.00016
    C84      X    -0.00000  -0.00002  -0.00000
    C84      Y     0.00000  -0.00018  -0.00001
    C84      Z    -0.00000   0.00000   0.00001
    C88      X    -0.00000  -0.00015  -0.00001
    C88      Y     0.00000   0.00019  -0.00000
    C88      Z    -0.00002   0.00079  -0.00002
    C89      X    -0.00001  -0.00005   0.00000
    C89      Y     0.00005  -0.00004   0.00000
    C89      Z    -0.00002   0.00002  -0.00000
    H93      X     0.00006  -0.00687  -0.00001
    H93      Y    -0.00009   0.00922  -0.00000
    H93      Z     0.00002   0.00440   0.00007
    H94      X     0.00050  -0.00008  -0.00002
    H94      Y    -0.00053   0.00004   0.00003
    H94      Z     0.00027  -0.00010  -0.00003
    C52      X     0.00000  -0.00006   0.00000
    C52      Y    -0.00000   0.00004  -0.00001
    C52      Z    -0.00000   0.00000  -0.00008
    H99      X    -0.00004  -0.00164  -0.00005
    H99      Y    -0.00003   0.00388  -0.00000
    H99      Z     0.00011  -0.00231   0.00008
    H100     X    -0.00050   0.00123  -0.00008
    H100     Y    -0.00020   0.00027  -0.00003
    H100     Z     0.00005  -0.00055   0.00002
    C101     X    -0.00005   0.00008  -0.00000
    C101     Y    -0.00005  -0.00000   0.00000
    C101     Z     0.00012  -0.00006   0.00001
    C102     X    -0.00006  -0.00004  -0.00000
    C102     Y     0.00007  -0.00005   0.00000
    C102     Z    -0.00001   0.00008   0.00000
    C103     X    -0.00003   0.00010  -0.00000
    C103     Y     0.00002   0.00019   0.00000
    C103     Z     0.00001   0.00006   0.00000
    C104     X     0.00356   0.00032   0.00004
    C104     Y    -0.00269  -0.00023  -0.00003
    C104     Z    -0.00167  -0.00016  -0.00002
    C105     X     0.00019   0.00004   0.00001
    C105     Y     0.00024  -0.00001   0.00000
    C105     Z    -0.00050  -0.00005  -0.00001
    C106     X    -0.00006   0.00006  -0.00001
    C106     Y     0.00004   0.00005   0.00001
    C106     Z     0.00003  -0.00017   0.00000
    H107     X    -0.04165  -0.00354  -0.00046
    H107     Y     0.03126   0.00266   0.00036
    H107     Z     0.01923   0.00155   0.00021
    H108     X    -0.00244  -0.00021  -0.00006
    H108     Y    -0.00136  -0.00014  -0.00004
    H108     Z     0.00453   0.00040   0.00011
    H109     X     0.00055  -0.00026   0.00011
    H109     Y    -0.00039   0.00022  -0.00008
    H109     Z    -0.00025   0.00028  -0.00004
    H110     X     0.00023  -0.00014   0.00001
    H110     Y    -0.00054   0.00068  -0.00004
    H110     Z     0.00028  -0.00040   0.00002
    C111     X     0.00000  -0.00176  -0.00001
    C111     Y    -0.00000  -0.00225  -0.00001
    C111     Z    -0.00000   0.00070   0.00000
    C112     X    -0.00001   0.00052  -0.00003
    C112     Y    -0.00000  -0.00066  -0.00001
    C112     Z     0.00001  -0.00083   0.00002
    C113     X     0.00000  -0.00005  -0.00000
    C113     Y     0.00000  -0.00061  -0.00001
    C113     Z     0.00000  -0.00035  -0.00000
    C114     X     0.00002  -0.01363  -0.00008
    C114     Y    -0.00009   0.06458   0.00037
    C114     Z    -0.00006   0.04876   0.00028
    C115     X    -0.00001   0.00555   0.00002
    C115     Y    -0.00001   0.00553   0.00001
    C115     Z     0.00001  -0.00282  -0.00002
    C116     X    -0.00000   0.00014  -0.00000
    C116     Y     0.00001  -0.00062   0.00001
    C116     Z     0.00001  -0.00041   0.00000
    H117     X     0.00009  -0.04015  -0.00006
    H117     Y     0.00015  -0.05990  -0.00008
    H117     Z    -0.00002   0.00995   0.00006
    H118     X     0.00002  -0.00122   0.00003
    H118     Y    -0.00011   0.00568  -0.00013
    H118     Z    -0.00008   0.00419  -0.00007
    H119     X     0.00014  -0.00434   0.00031
    H119     Y     0.00001   0.00045   0.00000
    H119     Z    -0.00013   0.00445  -0.00025
    H74      X    -0.00133   0.00006   0.00241
    H74      Y    -0.00032   0.00001   0.00035
    H74      Z    -0.00016   0.00001   0.00020
    H75      X     0.00200   0.00378  -0.66236
    H75      Y    -0.00120  -0.00223   0.38809
    H75      Z    -0.00177  -0.00320   0.56197
    H78      X    -0.00002   0.00107   0.00004
    H78      Y    -0.00001   0.00210   0.00008
    H78      Z    -0.00000  -0.00018  -0.00001
    H79      X    -0.00022   0.16108   0.00091
    H79      Y     0.00097  -0.74969  -0.00431
    H79      Z     0.00073  -0.56345  -0.00326
    H80      X     0.00003  -0.00007   0.00004
    H80      Y     0.00029  -0.00013   0.00003
    H80      Z    -0.00010   0.00001   0.00000
    H81      X     0.00179  -0.00002   0.00007
    H81      Y     0.00163  -0.00006   0.00002
    H81      Z     0.00045  -0.00002  -0.00012
    H84      X    -0.00540   0.00008   0.00042
    H84      Y     0.00080   0.00000  -0.00005
    H84      Z     0.00156  -0.00009  -0.00038
    H85      X     0.00055   0.00012  -0.00020
    H85      Y    -0.00005   0.00000   0.00110
    H85      Z    -0.00031  -0.00009  -0.00001
    H86      X     0.00003   0.00005  -0.00006
    H86      Y     0.00007   0.00006  -0.00000
    H86      Z    -0.00004   0.00013   0.00002
    H87      X    -0.00015   0.00004  -0.00015
    H87      Y    -0.00002   0.00002  -0.00002
    H87      Z     0.00000  -0.00000  -0.00001
    H88      X    -0.00004   0.00009   0.00003
    H88      Y    -0.00025   0.00040   0.00008
    H88      Z    -0.00005   0.00039   0.00009
    H89      X     0.00002   0.00100   0.00005
    H89      Y     0.00008  -0.00053   0.00011
    H89      Z     0.00005  -0.00002   0.00008
    H90      X     0.00002  -0.00010   0.00010
    H90      Y     0.00006   0.00023   0.00024
    H90      Z     0.00002   0.00009   0.00011
    H91      X    -0.00000  -0.00008  -0.00008
    H91      Y    -0.00001  -0.00004  -0.00021
    H91      Z     0.00004  -0.00004   0.00103
    H92      X    -0.00005   0.00174  -0.00005
    H92      Y    -0.00000  -0.00020   0.00000
    H92      Z     0.00001  -0.00029  -0.00003
    H95      X    -0.00023  -0.00009  -0.00004
    H95      Y    -0.00005  -0.00000   0.00000
    H95      Z    -0.00000   0.00005   0.00000
    H96      X    -0.00000  -0.00004  -0.00001
    H96      Y    -0.00020   0.00021   0.00039
    H96      Z    -0.00008   0.00006   0.00018
    H97      X     0.00005   0.00005   0.00027
    H97      Y     0.00005  -0.00003  -0.00016
    H97      Z    -0.00006   0.00015  -0.00035
    H98      X    -0.00034  -0.00001  -0.00003
    H98      Y    -0.00057  -0.00003  -0.00008
    H98      Z    -0.00000  -0.00000  -0.00005
    H101     X     0.00017   0.00042   0.00020
    H101     Y     0.00004  -0.00015  -0.00011
    H101     Z    -0.00018  -0.00019  -0.00007
    H102     X    -0.00010  -0.00006  -0.00001
    H102     Y    -0.00171   0.00031   0.00007
    H102     Z    -0.00241   0.00034  -0.00013
    H103     X     0.00071   0.00026   0.00018
    H103     Y    -0.00003   0.00002  -0.00017
    H103     Z    -0.00023  -0.00011  -0.00008
    H104     X    -0.00031  -0.00021  -0.00007
    H104     Y     0.00007  -0.00001  -0.00006
    H104     Z    -0.00169  -0.00104   0.00003
    H105     X    -0.00002  -0.00001   0.00036
    H105     Y    -0.00005  -0.00006   0.00168
    H105     Z     0.00006   0.00003   0.00029
  
  Number of imaginary frequencies:   0
   
  Writing vibrational animation data to L2_PL139.vib
  Writing IR vibrational spectrum data to L2_PL139_vib.spm
  rotational symmetry number:  1

  rotational temperatures (K):      0.004817      0.003244      0.002620
   
  The Quasi-Harmonic approximation will be applied to compute
  vibrational constributions to thermodynamic properties.
  Frequencies will be adjusted to a minimum value of  100.00 cm^-1.

  vibrational temperatures:
       mode:      1        2        3        4        5        6
  temp. (K):   143.88   143.88   143.88   143.88   143.88   143.88
   
       mode:      7        8        9       10       11       12
  temp. (K):   143.88   143.88   143.88   143.88   143.88   143.88
   
       mode:     13       14       15       16       17       18
  temp. (K):   143.88   143.88   151.08   162.99   166.51   169.67
   
       mode:     19       20       21       22       23       24
  temp. (K):   181.04   188.30   197.53   221.01   228.74   233.14
   
       mode:     25       26       27       28       29       30
  temp. (K):   241.94   254.61   258.13   312.17   312.81   330.39
   
       mode:     31       32       33       34       35       36
  temp. (K):   345.95   358.40   360.85   363.10   370.25   377.68
   
       mode:     37       38       39       40       41       42
  temp. (K):   388.91   394.25   401.32   411.59   416.04   428.46
   
       mode:     43       44       45       46       47       48
  temp. (K):   431.77   438.04   453.07   459.95   464.59   469.17
   
       mode:     49       50       51       52       53       54
  temp. (K):   474.87   476.65   479.37   507.85   511.19   537.80
   
       mode:     55       56       57       58       59       60
  temp. (K):   538.93   542.04   544.18   560.04   563.40   585.68
   
       mode:     61       62       63       64       65       66
  temp. (K):   587.04   593.56   600.91   603.18   604.04   607.17
   
       mode:     67       68       69       70       71       72
  temp. (K):   611.00   627.37   631.22   691.68   693.09   717.28
   
       mode:     73       74       75       76       77       78
  temp. (K):   738.20   743.06   760.13   778.14   778.72   818.37
   
       mode:     79       80       81       82       83       84
  temp. (K):   820.38   828.91   834.02   861.04   863.59   901.84
   
       mode:     85       86       87       88       89       90
  temp. (K):   902.12   910.52   911.02   987.01   988.53  1037.09
   
       mode:     91       92       93       94       95       96
  temp. (K):  1038.09  1097.63  1097.82  1107.75  1107.98  1119.44
   
       mode:     97       98       99      100      101      102
  temp. (K):  1119.97  1153.98  1154.52  1191.62  1193.83  1208.69
   
       mode:    103      104      105      106      107      108
  temp. (K):  1209.59  1239.25  1240.70  1301.76  1302.85  1350.19
   
       mode:    109      110      111      112      113      114
  temp. (K):  1350.76  1370.49  1372.81  1376.47  1377.51  1384.44
   
       mode:    115      116      117      118      119      120
  temp. (K):  1384.87  1396.78  1397.64  1402.57  1404.90  1416.16
   
       mode:    121      122      123      124      125      126
  temp. (K):  1417.61  1424.63  1425.09  1429.60  1430.78  1454.18
   
       mode:    127      128      129      130      131      132
  temp. (K):  1454.63  1460.84  1461.77  1465.27  1465.95  1479.91
   
       mode:    133      134      135      136      137      138
  temp. (K):  1481.05  1503.25  1505.02  1513.56  1514.87  1518.16
   
       mode:    139      140      141      142      143      144
  temp. (K):  1519.49  1525.84  1526.61  1531.24  1532.49  1545.76
   
       mode:    145      146      147      148      149      150
  temp. (K):  1546.29  1605.46  1606.35  1611.99  1613.14  1675.54
   
       mode:    151      152      153      154      155      156
  temp. (K):  1677.23  1730.52  1731.39  1737.07  1740.84  1743.82
   
       mode:    157      158      159      160      161      162
  temp. (K):  1744.72  1752.32  1753.47  1764.42  1765.34  1771.16
   
       mode:    163      164      165      166      167      168
  temp. (K):  1771.28  1773.88  1774.67  1794.55  1794.82  1809.76
   
       mode:    169      170      171      172      173      174
  temp. (K):  1810.74  1847.01  1848.98  1874.23  1875.37  1936.64
   
       mode:    175      176      177      178      179      180
  temp. (K):  1937.84  1949.91  1951.10  1983.41  1985.75  2036.69
   
       mode:    181      182      183      184      185      186
  temp. (K):  2037.35  2037.81  2039.89  2046.93  2050.81  2051.88
   
       mode:    187      188      189      190      191      192
  temp. (K):  2053.15  2084.44  2087.57  2098.85  2101.13  2109.24
   
       mode:    193      194      195      196      197      198
  temp. (K):  2111.01  2144.76  2145.77  2148.42  2153.27  2163.34
   
       mode:    199      200      201      202      203      204
  temp. (K):  2164.97  2168.28  2169.31  2171.84  2180.19  2180.77
   
       mode:    205      206      207      208      209      210
  temp. (K):  2183.41  2185.40  2185.89  2186.57  2190.08  2197.63
   
       mode:    211      212      213      214      215      216
  temp. (K):  2200.07  2201.41  2207.48  2211.01  2213.07  2219.27
   
       mode:    217      218      219      220      221      222
  temp. (K):  2222.60  2225.71  2227.22  2227.82  2231.63  2238.10
   
       mode:    223      224      225      226      227      228
  temp. (K):  2238.26  2334.03  2335.76  2364.22  2366.54  2380.68
   
       mode:    229      230      231      232      233      234
  temp. (K):  2383.54  2402.60  2404.37  4350.80  4352.01  4363.00
   
       mode:    235      236      237      238      239      240
  temp. (K):  4364.18  4371.04  4372.89  4375.08  4375.71  4378.76
   
       mode:    241      242      243      244      245      246
  temp. (K):  4380.45  4381.96  4383.56  4456.30  4458.26  4465.70
   
       mode:    247      248      249      250      251      252
  temp. (K):  4467.39  4485.35  4487.58  4488.19  4490.03  4492.13
   
       mode:    253      254      255      256      257      258
  temp. (K):  4493.70  4496.05  4499.20  4508.00  4510.81  4535.61
   
       mode:    259      260      261      262      263      264
  temp. (K):  4539.07  4544.23  4547.21  4548.34  4552.24  4554.11
   
       mode:    265      266      267      268      269      270
  temp. (K):  4556.17  4565.37  4565.91  4572.70  4574.32  4582.63
   
       mode:    271      272      273      274      275      276
  temp. (K):  4583.13  4584.46  4588.37  4599.61  4599.84  4602.63
   
       mode:    277      278      279      280      281      282
  temp. (K):  4603.05  4616.07  4617.60  4620.30  4621.45  4721.78
   
       mode:    283      284      285
  temp. (K):  4722.05  4731.37  4736.14
   
   
  Thermodynamic properties calculated assuming an ideal gas

  In the table below, the units for temperature
  are kelvins, the units for U, H, and G are
  kcal/mol and the units for Cv and S are cal/(mol K)

  The zero point energy (ZPE):    532.368 kcal/mol
  is not included in U, H, or G in the table below
  
 
  =============================================================================
  Thermodynamic properties for P = 1.00E+00 atm, calculated at   1 temperatures


  T =   298.15 K, P = 1.00E+00 atm
   
                  U         Cv          S          H          G        ln(Q)
              =========  =========  =========  =========  =========  =========
  trans.          0.889      2.981     45.528      1.481    -12.093   20.41061
  rot.            0.889      2.981     38.004      0.889    -10.442   17.62425
  vib.           26.483    176.881    158.533     26.483    -20.783   35.07806
  elec.           0.000      0.000      0.000      0.000      0.000    0.00000
  ----------------------------------------------------------------------------
  total          28.261    182.842    242.065     28.853    -43.318   73.11292
   
   Total internal energy, Utot(SCFE + ZPE + U):   -2364.920539 hartrees
   Total enthalpy, Htot (Utot + nRT), with n=1:   -2364.919595 hartrees
    Total Gibbs free energy, Gtot (Htot - T*S):   -2365.034608 hartrees
   
  end of program freq
   
 Time(freq)  user:       0.937  user+sys:       0.937  wallclock:       0.477
  
  start of program post
  
  Writing input files for PBF
  end of program post
   
 Time(post)  user:       0.246  user+sys:       0.246  wallclock:       0.089

 Total cpu seconds     user:  154416.775   user+sys:  154416.775
  
 Total elapsed time:    18928 seconds

Job L2_PL139 completed on bp1-compute058 at Mon Dec  1 22:26:40 2025
