Job L_Ar_Br_N_N_trans_PL139 started on bp1-compute088 at Tue Dec  2 18:14:18 2025
jobid: bp1-compute088-0-692f2c75

  +--------------------------------------------------------------------+
  |  Jaguar version 12.5, release 138                                  |
  |                                                                    |
  |  Copyright Schrodinger, Inc.                                       |
  |  All Rights Reserved.                                              |
  |                                                                    |
  |  The following have contributed to Jaguar (listed alphabetically): |
  |  Ty Balduf, Mike Beachy, Chandler Bennett, Art Bochevarov,         |
  |  Dale Braden, Yixiang Cao, Alan Chien, Chris Cortis,               |
  |  Rich Friesner, Jim Furness, Bill Goddard, Hod Greeley,            |
  |  Tom Hughes, Leif Jacobson, Jean-Marc Langlois, Daniel Levine,     |
  |  Rob Murphy, Dean Philipp, Tom Pollard, Murco Ringnalda,           |
  |  Daniel Mainz, Pablo Videla, Mark Watson, Haoyu Yu.                |
  |                                                                    |
  |  Use of this program should be acknowledged in publications as:    |
  |                                                                    |
  |  Jaguar, version 12.5, Schrodinger, Inc., New York, NY, 2024.      |
  |                                                                    |
  |  A. D. Bochevarov, E. Harder, T. F. Hughes, J. R. Greenwood,       |
  |  D. A. Braden, D. M. Philipp, D. Rinaldo, M. D. Halls,             |
  |  J. Zhang, R. A. Friesner, "Jaguar: A High-Performance Quantum     |
  |  Chemistry Software Program with Strengths in Life and Materials   |
  |  Sciences", Int. J. Quantum Chem., 2013, 113(18), 2110-2142.       |
  +--------------------------------------------------------------------+
  
  start of program pre
  
  Job name: L_Ar_Br_N_N_trans_PL139
  Executables used: /software/local/apps/schrodinger2024-3/jaguar-v12.5/bin/Linux-x86_64
  Temporary files : /tmp/ar21627/L_Ar_Br_N_N_trans_PL139#bp1-compute088-0-692f2c75
  Basis file : using default basis file from /software/local/apps/schrodinger2024-3
  Maestro file (input):  L_Ar_Br_N_N_trans_PL139.mae
  Maestro file (output): L_Ar_Br_N_N_trans_PL139.01.mae
  
 Contents of input file: &gen and (if present) &atomic sections only
 ----------------Contents start----------------
&gen
dftname=b3pw91-d3
basis=6-31G*
numd=5
ip11=2
iaccg=3
isolv=2
igeopt=1
solvent=benzene
ifreq=1
&
&atomic
atom basis
Pd2 lacv3p*
Br3 lacv3p*
&
 -----------------Contents end-----------------
 
  PS calculation requested. Using PS version of 6-31g*
  basis set:               non_standard                    
  net molecular charge:    0
  multiplicity:            1
  
  Using up to  18 threads per process
  
  This run will use ECP on            2  atoms
  number of basis functions....          610
  
 Input geometry:
                                   angstroms
  atom               x                 y                 z
  P1            0.0000000000      0.0000000000      0.0000000000 
  Pd2           0.0000000000      0.0000000000      2.3386825024 
  C73           4.7387034881      0.0000000000      2.9453781994 
  C74           4.0002946215      1.1744242444      2.9870490286 
  C75           2.6162281629      1.1039689982      2.8147113071 
  C76           1.9831149880     -0.1230496537      2.5782551767 
  C77           2.7448697589     -1.2933067421      2.6061344721 
  C78           4.1302658323     -1.2360059406      2.7760387030 
  F79           6.0795263988      0.0593248338      3.0986136396 
  H80           4.5017228712      2.1225086212      3.1634686466 
  H82           2.2734898481     -2.2643851863      2.5216825321 
  H83           4.7336225436     -2.1401149434      2.7949564274 
  H14           2.0375121698      2.0208132584      2.8891383490 
  C3            0.0187849505     -1.7668244722     -0.5354163407 
  C4            1.7037948337      0.6292287317     -0.5986536207 
  C5           -1.4574179555      0.8085397685     -0.9148561034 
  C6           -0.1284423443     -2.5911125869      1.9067779769 
  C7            0.8702880459     -3.0329406610      2.7984985103 
  C8            0.5861053115     -3.2188459119      4.1479562060 
  C9           -0.6996963151     -2.9780676760      4.6331572549 
  C10          -1.6949348898     -2.5133222683      3.7750665189 
  C11          -1.4133227603     -2.3060079494      2.4241309022 
  C12           0.0596218599     -2.7848339586      0.4380568743 
  C13           0.2526424718     -4.1160441302      0.0304780932 
  C14           0.3923902916     -4.4561102965     -1.3100776077 
  C15           0.3387379339     -3.4529364445     -2.2762451587 
  C16           0.1608327625     -2.1297207454     -1.8867194359 
  C17           2.7256112406     -0.4570860530     -0.2139047841 
  C18           1.8067130828      0.9262073439     -2.0989606763 
  C19           2.0535878356      1.9018386746      0.1844641955 
  C20          -1.3769667360      2.3340193690     -0.7461658152 
  C21          -2.7115207481      0.2628942595     -0.2101737453 
  C22          -1.5969708536      0.4858135537     -2.4108094621 
  H23           1.8626787740     -3.2507209872      2.4106286536 
  H24           1.3716043886     -3.5422166711      4.8259635936 
  H25          -0.9181295684     -3.1258714315      5.6877215091 
  H26          -2.6900383638     -2.2977254739      4.1561487511 
  H27          -2.2057623626     -2.0157931958      1.7386449919 
  H28           0.2759837152     -4.8921031196      0.7921842234 
  H29           0.5379734255     -5.4950083883     -1.5968038923 
  H30           0.4476890163     -3.6937419593     -3.3312773959 
  H31           0.1582315244     -1.3688355608     -2.6558758938 
  H32           2.6310703633     -1.3568852743     -0.8289370633 
  H33           3.7382527298     -0.0558368271     -0.3515204283 
  H34           2.6244113655     -0.7478867826      0.8398055432 
  H35           1.5946702246      0.0536791756     -2.7223953693 
  H36           1.1511321909      1.7477596048     -2.4040425235 
  H37           2.8373225034      1.2346984342     -2.3222171610 
  H38           2.1581328410      1.6777948309      1.2498399469 
  H39           3.0147076762      2.2935556404     -0.1745921895 
  H40           1.3056131688      2.6915191261      0.0729299026 
  H41          -1.2505451894      2.6355616082      0.2949295306 
  H42          -0.5612916571      2.7649743638     -1.3370607890 
  H43          -2.3129318155      2.7792746266     -1.1089724678 
  H44          -2.7283826477      0.5231093081      0.8490779111 
  H45          -3.6068670357      0.6938913557     -0.6777882020 
  H46          -2.7784124724     -0.8278287032     -0.3076569153 
  H47          -0.7175736887      0.7580932149     -3.0000382966 
  H48          -1.8283221983     -0.5691938874     -2.5832644396 
  H49          -2.4416699619      1.0685086314     -2.8029713378 
  N118          0.0353474214     -0.4351966094      4.4872874979 
  H119          0.2436832279     -1.4315213237      4.5221066469 
  H120         -0.9521070388     -0.3007102565      4.7065040580 
  C121          0.8751299869      0.3455125117      5.3346142487 
  C122          2.5468213511      1.9584622811      6.8830164847 
  C123          2.1255380915     -0.1273657571      5.7322370151 
  C124          0.4575339656      1.6260176960      5.7068514619 
  C125          1.2932416191      2.4246905267      6.4815618075 
  C126          2.9575186699      0.6818832216      6.5029660926 
  H127          2.4651411662     -1.1060068601      5.4054457261 
  H128         -0.5067481338      1.9910798663      5.3594244377 
  H129          0.9634823385      3.4214693362      6.7675113874 
  H130          3.9359270266      0.3106854677      6.7996254844 
  H131          3.1990758011      2.5884646613      7.4836607829 
  Br3          -2.3699806788      1.2367417650      3.0190376008 
   
  principal moments of inertia:
        amu*angstrom^2:              4359.36804              5916.99699              6803.81629
                g*cm^2:          7.23890004E-37          9.82540344E-37          1.12980013E-36
   
  rotational constants:
               cm^(-1):      0.00386699      0.00284902      0.00247767
                   GHz:      0.11592942      0.08541140      0.07427876
   
  Molecular weight:     671.09 amu
   
  Stoichiometry: PdC32PNH38BrF
  Molecular Point Group: C1      
  Point Group used: C1
  
 
Number of optimization coordinates:   253
Number of independent coordinates:    253
Number of non-redundant coordinates:  219
Number of frozen coordinates:           0
Number of harmonic constraints:         0
 
Number of geometric degrees of freedom:   219
Maximum geometric degrees of freedom:     219
 " " " " " excluding dummy atoms:         219
 
 
  bond lengths (angstroms):
 
 P1      -Pd2     :   2.338683      P1      -C3      :   1.846264
 P1      -C4      :   1.912389      P1      -C5      :   1.901254
 Pd2     -C76     :   2.001320      Pd2     -N118    :   2.192521
 Pd2     -Br3     :   2.758482      C73     -C74     :   1.387896
 C73     -C78     :   1.388014      C73     -F79     :   1.350854
 C74     -C75     :   1.396533      C74     -H80     :   1.086931
 C75     -C76     :   1.400828      C75     -H14     :   1.086764
 C76     -C77     :   1.396621      C77     -C78     :   1.396951
 C77     -H82     :   1.082739      C78     -H83     :   1.087111
 C3      -C12     :   1.409135      C3      -C16     :   1.406375
 C4      -C17     :   1.540201      C4      -C18     :   1.532876
 C4      -C19     :   1.534655      C5      -C20     :   1.536885
 C5      -C21     :   1.538532      C5      -C22     :   1.536718
 C6      -C7      :   1.409908      C6      -C11     :   1.414163
 C6      -C12     :   1.493331      C7      -C8      :   1.391530
 C7      -H23     :   1.087525      C8      -C9      :   1.395235
 C8      -H24     :   1.086863      C9      -C10     :   1.393846
 C9      -H25     :   1.087044      C10     -C11     :   1.395461
 C10     -H26     :   1.087169      C11     -H27     :   1.087233
 C12     -C13     :   1.405524      C13     -C14     :   1.390059
 C13     -H28     :   1.087662      C14     -C15     :   1.393814
 C14     -H29     :   1.087527      C15     -C16     :   1.390784
 C15     -H30     :   1.087635      C16     -H31     :   1.081922
 C17     -H32     :   1.094002      C17     -H33     :   1.097899
 C17     -H34     :   1.097776      C18     -H35     :   1.093132
 C18     -H36     :   1.094445      C18     -H37     :   1.098711
 C19     -H38     :   1.093687      C19     -H39     :   1.098233
 C19     -H40     :   1.093390      C20     -H41     :   1.091233
 C20     -H42     :   1.095539      C20     -H43     :   1.098140
 C21     -H44     :   1.090876      C21     -H45     :   1.098211
 C21     -H46     :   1.097112      C22     -H47     :   1.093008
 C22     -H48     :   1.093757      C22     -H49     :   1.098563
 N118    -H119    :   1.018469      N118    -H120    :   1.020396
 N118    -C121    :   1.425729      C121    -C123    :   1.394718
 C121    -C124    :   1.397369      C122    -C125    :   1.396423
 C122    -C126    :   1.393831      C122    -H131    :   1.087710
 C123    -C126    :   1.393233      C123    -H127    :   1.086214
 C124    -C125    :   1.391568      C124    -H128    :   1.088033
 C125    -H129    :   1.088153      C126    -H130    :   1.087694
 
  bond angles:
 
 C3      -P1      -Pd2     : 106.857945  C4      -P1      -Pd2     : 108.242511
 C4      -P1      -C3      : 102.416945  C5      -P1      -Pd2     : 118.762872
 C5      -P1      -C3      : 105.975373  C5      -P1      -C4      : 113.103254
 C76     -Pd2     -P1      :  96.875212  N118    -Pd2     -P1      : 168.513031
 N118    -Pd2     -C76     :  81.634411  Br3     -Pd2     -P1      : 104.278841
 Br3     -Pd2     -C76     : 148.145072  Br3     -Pd2     -N118    :  82.018245
 C78     -C73     -C74     : 121.598580  F79     -C73     -C74     : 119.177460
 F79     -C73     -C78     : 119.212002  C75     -C74     -C73     : 118.743527
 H80     -C74     -C73     : 119.836647  H80     -C74     -C75     : 121.415606
 C76     -C75     -C74     : 120.860041  H14     -C75     -C74     : 118.473111
 H14     -C75     -C76     : 120.654337  C75     -C76     -Pd2     : 114.468696
 C77     -C76     -Pd2     : 126.468031  C77     -C76     -C75     : 118.951940
 C78     -C77     -C76     : 120.595454  H82     -C77     -C76     : 120.830092
 H82     -C77     -C78     : 118.556967  C77     -C78     -C73     : 119.083913
 H83     -C78     -C73     : 119.681009  H83     -C78     -C77     : 121.226420
 C12     -C3      -P1      : 119.426421  C16     -C3      -P1      : 121.776377
 C16     -C3      -C12     : 118.322653  C17     -C4      -P1      : 106.308107
 C18     -C4      -P1      : 115.464471  C18     -C4      -C17     : 109.669819
 C19     -C4      -P1      : 108.431631  C19     -C4      -C17     : 107.829588
 C19     -C4      -C18     : 108.873854  C20     -C5      -P1      : 109.218298
 C21     -C5      -P1      : 104.692216  C21     -C5      -C20     : 110.146261
 C22     -C5      -P1      : 116.661821  C22     -C5      -C20     : 108.666228
 C22     -C5      -C21     : 107.299585  C11     -C6      -C7      : 118.385757
 C12     -C6      -C7      : 119.484184  C12     -C6      -C11     : 120.025423
 C8      -C7      -C6      : 120.700210  H23     -C7      -C6      : 118.919594
 H23     -C7      -C8      : 120.362902  C9      -C8      -C7      : 120.158350
 H24     -C8      -C7      : 119.809099  H24     -C8      -C9      : 120.029328
 C10     -C9      -C8      : 120.097410  H25     -C9      -C8      : 119.939331
 H25     -C9      -C10     : 119.939914  C11     -C10     -C9      : 120.094374
 H26     -C10     -C9      : 120.257337  H26     -C10     -C11     : 119.643193
 C10     -C11     -C6      : 120.502065  H27     -C11     -C6      : 119.037789
 H27     -C11     -C10     : 120.194527  C6      -C12     -C3      : 125.596861
 C13     -C12     -C3      : 119.201931  C13     -C12     -C6      : 115.173758
 C14     -C13     -C12     : 121.679651  H28     -C13     -C12     : 118.401886
 H28     -C13     -C14     : 119.911604  C15     -C14     -C13     : 119.245349
 H29     -C14     -C13     : 120.094050  H29     -C14     -C15     : 120.660201
 C16     -C15     -C14     : 119.705779  H30     -C15     -C14     : 120.610354
 H30     -C15     -C16     : 119.679043  C15     -C16     -C3      : 121.838669
 H31     -C16     -C3      : 120.090377  H31     -C16     -C15     : 118.053866
 H32     -C17     -C4      : 112.478410  H33     -C17     -C4      : 108.834247
 H33     -C17     -H32     : 108.049169  H34     -C17     -C4      : 111.435493
 H34     -C17     -H32     : 108.286971  H34     -C17     -H33     : 107.587005
 H35     -C18     -C4      : 112.987919  H36     -C18     -C4      : 112.212714
 H36     -C18     -H35     : 108.904636  H37     -C18     -C4      : 108.436742
 H37     -C18     -H35     : 106.868627  H37     -C18     -H36     : 107.125805
 H38     -C19     -C4      : 110.425829  H39     -C19     -C4      : 109.172573
 H39     -C19     -H38     : 107.932009  H40     -C19     -C4      : 113.012504
 H40     -C19     -H38     : 108.222586  H40     -C19     -H39     : 107.922176
 H41     -C20     -C5      : 112.647678  H42     -C20     -C5      : 111.729590
 H42     -C20     -H41     : 108.640254  H43     -C20     -C5      : 108.758174
 H43     -C20     -H41     : 107.571976  H43     -C20     -H42     : 107.271046
 H44     -C21     -C5      : 111.885074  H45     -C21     -C5      : 109.289842
 H45     -C21     -H44     : 107.892734  H46     -C21     -C5      : 111.197870
 H46     -C21     -H44     : 108.813257  H46     -C21     -H45     : 107.615432
 H47     -C22     -C5      : 113.541206  H48     -C22     -C5      : 112.040863
 H48     -C22     -H47     : 108.993888  H49     -C22     -C5      : 107.814818
 H49     -C22     -H47     : 107.101570  H49     -C22     -H48     : 107.019574
 H119    -N118    -Pd2     : 103.354567  H120    -N118    -Pd2     :  99.716279
 H120    -N118    -H119    : 108.635216  C121    -N118    -Pd2     : 118.895397
 C121    -N118    -H119    : 113.258057  C121    -N118    -H120    : 111.725152
 C123    -C121    -N118    : 120.787076  C124    -C121    -N118    : 118.952235
 C124    -C121    -C123    : 120.177041  C126    -C122    -C125    : 119.466318
 H131    -C122    -C125    : 120.244579  H131    -C122    -C126    : 120.288524
 C126    -C123    -C121    : 119.745472  H127    -C123    -C121    : 119.999987
 H127    -C123    -C126    : 120.201911  C125    -C124    -C121    : 119.654426
 H128    -C124    -C121    : 119.160514  H128    -C124    -C125    : 121.160978
 C124    -C125    -C122    : 120.500549  H129    -C125    -C122    : 120.154666
 H129    -C125    -C124    : 119.343576  C123    -C126    -C122    : 120.455125
 H130    -C126    -C122    : 120.214803  H130    -C126    -C123    : 119.328351
 
  torsional angles:
 
 P1      -Pd2     -C76     -C75     :  97.580976
 P1      -Pd2     -C76     -C77     : -86.324018
 P1      -Pd2     -N118    -H119    :   7.363100
 P1      -Pd2     -N118    -H120    :-104.590176
 P1      -Pd2     -N118    -C121    : 133.846055
 P1      -C3      -C12     -C6      :  10.386629
 P1      -C3      -C12     -C13     :-171.616056
 P1      -C3      -C16     -C15     : 172.018638
 P1      -C3      -C16     -H31     :  -6.448054
 P1      -C4      -C17     -H32     :  71.664432
 P1      -C4      -C17     -H33     :-168.638553
 P1      -C4      -C17     -H34     : -50.156192
 P1      -C4      -C18     -H35     : -59.261075
 P1      -C4      -C18     -H36     :  64.338717
 P1      -C4      -C18     -H37     :-177.534992
 P1      -C4      -C19     -H38     :  63.440585
 P1      -C4      -C19     -H39     :-178.048516
 P1      -C4      -C19     -H40     : -57.939706
 P1      -C5      -C20     -H41     : -50.260633
 P1      -C5      -C20     -H42     :  72.362513
 P1      -C5      -C20     -H43     :-169.415896
 P1      -C5      -C21     -H44     :  60.023026
 P1      -C5      -C21     -H45     : 179.454490
 P1      -C5      -C21     -H46     : -61.883931
 P1      -C5      -C22     -H47     : -58.290665
 P1      -C5      -C22     -H48     :  65.722831
 P1      -C5      -C22     -H49     :-176.775076
 Pd2     -P1      -C3      -C12     :  -1.401174
 Pd2     -P1      -C3      -C16     :-173.363051
 Pd2     -P1      -C4      -C17     :  68.254523
 Pd2     -P1      -C4      -C18     :-169.890252
 Pd2     -P1      -C4      -C19     : -47.453088
 Pd2     -P1      -C5      -C20     :  71.098214
 Pd2     -P1      -C5      -C21     : -46.837175
 Pd2     -P1      -C5      -C22     :-165.238911
 Pd2     -C76     -C75     -C74     :-179.312520
 Pd2     -C76     -C75     -H14     :   1.993802
 Pd2     -C76     -C77     -C78     : 179.733580
 Pd2     -C76     -C77     -H82     :  -1.809565
 Pd2     -N118    -C121    -C123    : -98.702709
 Pd2     -N118    -C121    -C124    :  77.977385
 C73     -C74     -C75     -C76     :  -1.218627
 C73     -C74     -C75     -H14     : 177.502968
 C73     -C78     -C77     -C76     :   1.343332
 C73     -C78     -C77     -H82     :-177.148056
 C74     -C73     -C78     -C77     :   1.822062
 C74     -C73     -C78     -H83     :-177.120861
 C74     -C75     -C76     -C77     :   4.275915
 C75     -C74     -C73     -C78     :  -1.878765
 C75     -C74     -C73     -F79     : 179.389393
 C75     -C76     -Pd2     -N118    : -93.911066
 C75     -C76     -Pd2     -Br3     : -34.083120
 C75     -C76     -C77     -C78     :  -4.328589
 C75     -C76     -C77     -H82     : 174.128266
 C76     -Pd2     -P1      -C3      :  85.840277
 C76     -Pd2     -P1      -C4      : -23.820275
 C76     -Pd2     -P1      -C5      :-154.530135
 C76     -Pd2     -N118    -H119    : -75.971976
 C76     -Pd2     -N118    -H120    : 172.074748
 C76     -Pd2     -N118    -C121    :  50.510979
 C76     -C75     -C74     -H80     : 179.530105
 C76     -C77     -C78     -H83     :-179.730645
 C77     -C76     -Pd2     -N118    :  82.183939
 C77     -C76     -Pd2     -Br3     : 142.011885
 C77     -C76     -C75     -H14     :-174.417764
 C77     -C78     -C73     -F79     :-179.446523
 C78     -C73     -C74     -H80     : 177.384622
 F79     -C73     -C74     -H80     :  -1.347220
 F79     -C73     -C78     -H83     :   1.610554
 H80     -C74     -C75     -H14     :  -1.748301
 H82     -C77     -C78     -H83     :   1.777967
 C3      -P1      -Pd2     -N118    :   4.034321
 C3      -P1      -Pd2     -Br3     :-118.166332
 C3      -P1      -C4      -C17     : -44.403542
 C3      -P1      -C4      -C18     :  77.451684
 C3      -P1      -C4      -C19     :-160.111153
 C3      -P1      -C5      -C20     :-168.819176
 C3      -P1      -C5      -C21     :  73.245435
 C3      -P1      -C5      -C22     : -45.156301
 C3      -C12     -C6      -C7      :-124.151329
 C3      -C12     -C6      -C11     :  72.601567
 C3      -C12     -C13     -C14     :  -0.588756
 C3      -C12     -C13     -H28     :-179.634845
 C3      -C16     -C15     -C14     :  -0.624150
 C3      -C16     -C15     -H30     :-179.830160
 C4      -P1      -Pd2     -N118    :-105.626231
 C4      -P1      -Pd2     -Br3     : 132.173116
 C4      -P1      -C3      -C12     : 112.280076
 C4      -P1      -C3      -C16     : -59.681802
 C4      -P1      -C5      -C20     : -57.393621
 C4      -P1      -C5      -C21     :-175.329011
 C4      -P1      -C5      -C22     :  66.269253
 C5      -P1      -Pd2     -N118    : 123.663909
 C5      -P1      -Pd2     -Br3     :   1.463256
 C5      -P1      -C3      -C12     :-128.971831
 C5      -P1      -C3      -C16     :  59.066291
 C5      -P1      -C4      -C17     :-158.001470
 C5      -P1      -C4      -C18     : -36.146245
 C5      -P1      -C4      -C19     :  86.290919
 C6      -C7      -C8      -C9      :   0.477058
 C6      -C7      -C8      -H24     :-178.870189
 C6      -C11     -C10     -C9      :   1.356608
 C6      -C11     -C10     -H26     :-179.462394
 C6      -C12     -C3      -C16     :-177.374186
 C6      -C12     -C13     -C14     : 177.611967
 C6      -C12     -C13     -H28     :  -1.434122
 C7      -C6      -C11     -C10     :  -2.673195
 C7      -C6      -C11     -H27     :-176.764978
 C7      -C6      -C12     -C13     :  57.780259
 C7      -C8      -C9      -C10     :  -1.849589
 C7      -C8      -C9      -H25     : 179.908801
 C8      -C7      -C6      -C11     :   1.759216
 C8      -C7      -C6      -C12     :-161.761434
 C8      -C9      -C10     -C11     :   0.931332
 C8      -C9      -C10     -H26     :-178.244592
 C9      -C8      -C7      -H23     :-177.993916
 C9      -C10     -C11     -H27     : 175.379946
 C10     -C9      -C8      -H24     : 177.496213
 C10     -C11     -C6      -C12     : 160.755656
 C11     -C6      -C7      -H23     :-179.748043
 C11     -C6      -C12     -C13     :-105.466844
 C11     -C10     -C9      -H25     : 179.172932
 C12     -C3      -C16     -C15     :  -0.028735
 C12     -C3      -C16     -H31     :-178.495427
 C12     -C6      -C7      -H23     :  16.731307
 C12     -C6      -C11     -H27     : -13.336127
 C12     -C13     -C14     -C15     :  -0.062144
 C12     -C13     -C14     -H29     :-179.833633
 C13     -C12     -C3      -C16     :   0.623129
 C13     -C14     -C15     -C16     :   0.663013
 C13     -C14     -C15     -H30     : 179.861492
 C14     -C15     -C16     -H31     : 177.872555
 C15     -C14     -C13     -H28     : 178.969817
 C16     -C15     -C14     -H29     :-179.566825
 C17     -C4      -C18     -H35     :  60.773125
 C17     -C4      -C18     -H36     :-175.627082
 C17     -C4      -C18     -H37     : -57.500791
 C17     -C4      -C19     -H38     : -51.274735
 C17     -C4      -C19     -H39     :  67.236164
 C17     -C4      -C19     -H40     :-172.655026
 C18     -C4      -C17     -H32     : -53.808503
 C18     -C4      -C17     -H33     :  65.888512
 C18     -C4      -C17     -H34     :-175.629127
 C18     -C4      -C19     -H38     :-170.197403
 C18     -C4      -C19     -H39     : -51.686504
 C18     -C4      -C19     -H40     :  68.422306
 C19     -C4      -C17     -H32     :-172.222162
 C19     -C4      -C17     -H33     : -52.525147
 C19     -C4      -C17     -H34     :  65.957214
 C19     -C4      -C18     -H35     : 178.537721
 C19     -C4      -C18     -H36     : -57.862487
 C19     -C4      -C18     -H37     :  60.263804
 C20     -C5      -C21     -H44     : -57.277913
 C20     -C5      -C21     -H45     :  62.153551
 C20     -C5      -C21     -H46     :-179.184870
 C20     -C5      -C22     -H47     :  65.655193
 C20     -C5      -C22     -H48     :-170.331311
 C20     -C5      -C22     -H49     : -52.829218
 C21     -C5      -C20     -H41     :  64.194872
 C21     -C5      -C20     -H42     :-173.181983
 C21     -C5      -C20     -H43     : -54.960392
 C21     -C5      -C22     -H47     :-175.267913
 C21     -C5      -C22     -H48     : -51.254417
 C21     -C5      -C22     -H49     :  66.247676
 C22     -C5      -C20     -H41     :-178.529627
 C22     -C5      -C20     -H42     : -55.906482
 C22     -C5      -C20     -H43     :  62.315109
 C22     -C5      -C21     -H44     :-175.398441
 C22     -C5      -C21     -H45     : -55.966977
 C22     -C5      -C21     -H46     :  62.694602
 H23     -C7      -C8      -H24     :   2.658837
 H24     -C8      -C9      -H25     :  -0.745397
 H25     -C9      -C10     -H26     :  -0.002992
 H26     -C10     -C11     -H27     :  -5.439056
 H28     -C13     -C14     -H29     :  -0.801673
 H29     -C14     -C15     -H30     :  -0.368346
 H30     -C15     -C16     -H31     :  -1.333455
 N118    -C121    -C123    -C126    : 176.661059
 N118    -C121    -C123    -H127    :  -0.706190
 N118    -C121    -C124    -C125    :-176.995538
 N118    -C121    -C124    -H128    :   1.240509
 H119    -N118    -Pd2     -Br3     : 131.462340
 H119    -N118    -C121    -C123    :  22.923436
 H119    -N118    -C121    -C124    :-160.396469
 H120    -N118    -Pd2     -Br3     :  19.509064
 H120    -N118    -C121    -C123    : 145.992975
 H120    -N118    -C121    -C124    : -37.326931
 C121    -N118    -Pd2     -Br3     :-102.054705
 C121    -C123    -C126    -C122    :   0.225139
 C121    -C123    -C126    -H130    :-179.298625
 C121    -C124    -C125    -C122    :   0.324738
 C121    -C124    -C125    -H129    : 179.925363
 C122    -C125    -C124    -H128    :-177.875139
 C122    -C126    -C123    -H127    : 177.587000
 C123    -C121    -C124    -C125    :  -0.294680
 C123    -C121    -C124    -H128    : 177.941368
 C123    -C126    -C122    -C125    :  -0.195826
 C123    -C126    -C122    -H131    :-179.919724
 C124    -C121    -C123    -C126    :   0.021516
 C124    -C121    -C123    -H127    :-177.345733
 C124    -C125    -C122    -C126    :  -0.080786
 C124    -C125    -C122    -H131    : 179.643235
 C125    -C122    -C126    -H130    : 179.323704
 C126    -C122    -C125    -H129    :-179.678167
 H127    -C123    -C126    -H130    :  -1.936764
 H128    -C124    -C125    -H129    :   1.725486
 H129    -C125    -C122    -H131    :   0.045855
 H130    -C126    -C122    -H131    :  -0.400194
 
  nuclear repulsion energy.......          5063.473888180 hartrees
  
  Detected an organometallic with only one TM atom. 
  
  Oxidation state on metal       2 is     2
  Formal multiplet on metal      2 is     1
  Formal charge on ligand        3 is    -1
  Formal multiplet on ligand     3 is     1
  Formal charge on ligand        5 is    -1
  Formal multiplet on ligand     5 is     1
  
 
  Will use High-Quality Initial guess for organometallics
       including d-d repulsion (iguess=30)
 
 Non-default options chosen:
   SCF calculation type: DFT(b3pw91-d3)              
   DFT=Becke_3_Parameter/HF+Slater+Becke88+PW91+PW-GGAIIC (B3PW91-D3)
   Geometry will be optimized in redundant internal coordinates
   Solvation energy will be computed using PBF
     -solute cavity energy will not be included
     -surface area terms will not be included
   Vibrational frequencies and related properties will be computed
      from analytic second derivatives
   IR intensities will be computed
   Thermochemical properties will be computed
   Maximum number of geometry steps: 100
   Scaling standard convergence criteria by a factor of   5.00
   Solvent: benzene                                                         
   Internal dielectric constant:    1.000
   Continuum dielectric constant:   2.283
   Solvent probe molecule radius:   2.600
  
 Non-default print settings:
     11=  2
  
 Temporary integer options set:
     21= -1  73=  2
  
  atom       vdw   vdw2    cov     mass  grid  daf  charge   basis
  P1        2.147  2.074  1.060   30.974    Y    Y      Y    ps_6-31g*
  Pd2       1.450  1.450  1.280  105.903    Y    Y      Y    lacv3p*
  C73       1.949  1.900  0.770   12.000    Y    Y      Y    ps_6-31g*
  C74       1.949  1.900  0.770   12.000    Y    Y      Y    ps_6-31g*
  C75       1.949  1.900  0.770   12.000    Y    Y      Y    ps_6-31g*
  C76       1.949  1.900  0.770   12.000    Y    Y      Y    ps_6-31g*
  C77       1.949  1.900  0.770   12.000    Y    Y      Y    ps_6-31g*
  C78       1.949  1.900  0.770   12.000    Y    Y      Y    ps_6-31g*
  F79       1.736  1.682  0.720   18.998    Y    Y      Y    ps_6-31g*
  H80       1.597  1.150  0.320    1.008    Y    Y      Y    ps_6-31g*
  H82       1.597  1.150  0.320    1.008    Y    Y      Y    ps_6-31g*
  H83       1.597  1.150  0.320    1.008    Y    Y      Y    ps_6-31g*
  H14       1.597  1.150  0.320    1.008    Y    Y      Y    ps_6-31g*
  C3        1.949  1.900  0.770   12.000    Y    Y      Y    ps_6-31g*
  C4        1.949  1.900  0.770   12.000    Y    Y      Y    ps_6-31g*
  C5        1.949  1.900  0.770   12.000    Y    Y      Y    ps_6-31g*
  C6        1.949  1.900  0.770   12.000    Y    Y      Y    ps_6-31g*
  C7        1.949  1.900  0.770   12.000    Y    Y      Y    ps_6-31g*
  C8        1.949  1.900  0.770   12.000    Y    Y      Y    ps_6-31g*
  C9        1.949  1.900  0.770   12.000    Y    Y      Y    ps_6-31g*
  C10       1.949  1.900  0.770   12.000    Y    Y      Y    ps_6-31g*
  C11       1.949  1.900  0.770   12.000    Y    Y      Y    ps_6-31g*
  C12       1.949  1.900  0.770   12.000    Y    Y      Y    ps_6-31g*
  C13       1.949  1.900  0.770   12.000    Y    Y      Y    ps_6-31g*
  C14       1.949  1.900  0.770   12.000    Y    Y      Y    ps_6-31g*
  C15       1.949  1.900  0.770   12.000    Y    Y      Y    ps_6-31g*
  C16       1.949  1.900  0.770   12.000    Y    Y      Y    ps_6-31g*
  C17       1.949  1.900  0.770   12.000    Y    Y      Y    ps_6-31g*
  C18       1.949  1.900  0.770   12.000    Y    Y      Y    ps_6-31g*
  C19       1.949  1.900  0.770   12.000    Y    Y      Y    ps_6-31g*
  C20       1.949  1.900  0.770   12.000    Y    Y      Y    ps_6-31g*
  C21       1.949  1.900  0.770   12.000    Y    Y      Y    ps_6-31g*
  C22       1.949  1.900  0.770   12.000    Y    Y      Y    ps_6-31g*
  H23       1.597  1.150  0.320    1.008    Y    Y      Y    ps_6-31g*
  H24       1.597  1.150  0.320    1.008    Y    Y      Y    ps_6-31g*
  H25       1.597  1.150  0.320    1.008    Y    Y      Y    ps_6-31g*
  H26       1.597  1.150  0.320    1.008    Y    Y      Y    ps_6-31g*
  H27       1.597  1.150  0.320    1.008    Y    Y      Y    ps_6-31g*
  H28       1.597  1.150  0.320    1.008    Y    Y      Y    ps_6-31g*
  H29       1.597  1.150  0.320    1.008    Y    Y      Y    ps_6-31g*
  H30       1.597  1.150  0.320    1.008    Y    Y      Y    ps_6-31g*
  H31       1.597  1.150  0.320    1.008    Y    Y      Y    ps_6-31g*
  H32       1.597  1.150  0.320    1.008    Y    Y      Y    ps_6-31g*
  H33       1.597  1.150  0.320    1.008    Y    Y      Y    ps_6-31g*
  H34       1.597  1.150  0.320    1.008    Y    Y      Y    ps_6-31g*
  H35       1.597  1.150  0.320    1.008    Y    Y      Y    ps_6-31g*
  H36       1.597  1.150  0.320    1.008    Y    Y      Y    ps_6-31g*
  H37       1.597  1.150  0.320    1.008    Y    Y      Y    ps_6-31g*
  H38       1.597  1.150  0.320    1.008    Y    Y      Y    ps_6-31g*
  H39       1.597  1.150  0.320    1.008    Y    Y      Y    ps_6-31g*
  H40       1.597  1.150  0.320    1.008    Y    Y      Y    ps_6-31g*
  H41       1.597  1.150  0.320    1.008    Y    Y      Y    ps_6-31g*
  H42       1.597  1.150  0.320    1.008    Y    Y      Y    ps_6-31g*
  H43       1.597  1.150  0.320    1.008    Y    Y      Y    ps_6-31g*
  H44       1.597  1.150  0.320    1.008    Y    Y      Y    ps_6-31g*
  H45       1.597  1.150  0.320    1.008    Y    Y      Y    ps_6-31g*
  H46       1.597  1.150  0.320    1.008    Y    Y      Y    ps_6-31g*
  H47       1.597  1.150  0.320    1.008    Y    Y      Y    ps_6-31g*
  H48       1.597  1.150  0.320    1.008    Y    Y      Y    ps_6-31g*
  H49       1.597  1.150  0.320    1.008    Y    Y      Y    ps_6-31g*
  N118      1.831  1.600  0.750   14.003    Y    Y      Y    ps_6-31g*
  H119      1.597  1.150  0.320    1.008    Y    Y      Y    ps_6-31g*
  H120      1.597  1.150  0.320    1.008    Y    Y      Y    ps_6-31g*
  C121      1.949  1.900  0.770   12.000    Y    Y      Y    ps_6-31g*
  C122      1.949  1.900  0.770   12.000    Y    Y      Y    ps_6-31g*
  C123      1.949  1.900  0.770   12.000    Y    Y      Y    ps_6-31g*
  C124      1.949  1.900  0.770   12.000    Y    Y      Y    ps_6-31g*
  C125      1.949  1.900  0.770   12.000    Y    Y      Y    ps_6-31g*
  C126      1.949  1.900  0.770   12.000    Y    Y      Y    ps_6-31g*
  H127      1.597  1.150  0.320    1.008    Y    Y      Y    ps_6-31g*
  H128      1.597  1.150  0.320    1.008    Y    Y      Y    ps_6-31g*
  H129      1.597  1.150  0.320    1.008    Y    Y      Y    ps_6-31g*
  H130      1.597  1.150  0.320    1.008    Y    Y      Y    ps_6-31g*
  H131      1.597  1.150  0.320    1.008    Y    Y      Y    ps_6-31g*
  Br3       2.095  2.095  1.140   78.918    Y    Y      Y    lav3p*
 
  atom      formal  2spin      esp    mulk    frag
  P1           0       0        Y    0.000       0
  Pd2          2       0        Y    0.000       0
  C73         -1       0        Y    0.000       0
  N118         0       0        Y    0.000       0
  Br3         -1       0        Y    0.000       0
  
  end of program pre
   
 Time(pre)  user:       4.750  user+sys:       4.750  wallclock:       1.122
  
  start of program onee
  
  smallest eigenvalue of S:    4.292E-04
  number of canonical orbitals.....          606
  end of program onee
   
 Time(onee)  user:      11.079  user+sys:      11.079  wallclock:       1.855
  
  start of program hfig
  
  initial wavefunction generated automatically from atomic wavefunctions
  Only one state below 0.010000
  Skip d-d repulsion considerations 
 
  Irreducible     Total no   No of occupied orbitals 
  representation  orbitals   Shell_1  Shell_2    ...
  No Symm          606        143
  ------------------------
  Orbital occupation/shell    1.000
 
  end of program hfig
   
 Time(hfig)  user:       2.358  user+sys:       2.358  wallclock:       1.038
  
  start of program probe
  
  end of program probe
   
 Time(probe)  user:       1.269  user+sys:       1.269  wallclock:       0.378
  
  start of program grid
  
   grid     grid set  grid #  grid sym
  ------    --------  ------  --------
  coarse        0        0        1
  medium        2        1        1
  fine          0        0        1
  ultrafine     4        2        1
  charge       -1        3        1
  gradient      4        2        1
  density       0        0        1
  DFT-fine    -11        4        1
  DFT-med.    -10        5        1
  DFT-grad    -12        6        1
  DFT-der2     -8        7        1
  DFT-cphf     -9        8        1
  LMP2-enrg     4        2        1
  LMP2-grad     2        1        1
  DFT-cphf2   -15        9        1
  PBF-dens      0        0        1
  plotting      0        0        1
  Rel-grad    -17        0        1
  
  number of gridpoints: 
     atom           P1         Pd2         C73         C74         C75         C76         C77
  grid # 1         612         349          78          92          92          98          92
  grid # 2         430         298         331         319         304         376         303
  grid # 3           6         203          20          12           6           6           6
  grid # 4        8714        8714        8714        8714        8714        8714        8714
  grid # 5        1192        1192        1192        1192        1192        1192        1192
  grid # 6        9132        9132        5922        5922        5922        5922        5922
  grid # 7       23034       32968       13950       13950       13950       13950       13950
  grid # 8         722        1150         748         748         748         748         748
  grid # 9         366        2198         394         394         394         394         394
   
  number of gridpoints: 
     atom          C78         F79         H80         H82         H83         H14          C3
  grid # 1          92         583         113          93         113         108          90
  grid # 2         319         565         462         381         460         438         383
  grid # 3           9         339         355          41         377         180          11
  grid # 4        8714        8714        8714        8714        8714        8714        8714
  grid # 5        1192        1192        1192        1192        1192        1192        1192
  grid # 6        5922        5922        5922        5922        5922        5922        5922
  grid # 7       13950       23190       15206       15206       15206       15206       13950
  grid # 8         748         770         786         786         786         786         748
  grid # 9         394         420         420         420         420         420         394
   
  number of gridpoints: 
     atom           C4          C5          C6          C7          C8          C9         C10
  grid # 1          88          88          99          92          94          94          95
  grid # 2         367         368         358         312         307         304         320
  grid # 3           6           6          10          11          22          31          29
  grid # 4        8714        8714        8714        8714        8714        8714        8714
  grid # 5        1192        1192        1192        1192        1192        1192        1192
  grid # 6        5922        5922        5922        5922        5922        5922        5922
  grid # 7       13950       13950       13950       13950       13950       13950       13950
  grid # 8         748         748         748         748         748         748         748
  grid # 9         394         394         394         394         394         394         394
   
  number of gridpoints: 
     atom          C11         C12         C13         C14         C15         C16         C17
  grid # 1          94          98          96          96          96          94          79
  grid # 2         321         361         326         324         323         324         239
  grid # 3          18          16          34          42          36          16           6
  grid # 4        8714        8714        8714        8714        8714        8714        8714
  grid # 5        1192        1192        1192        1192        1192        1192        1192
  grid # 6        5922        5922        5922        5922        5922        5922        5922
  grid # 7       13950       13950       13950       13950       13950       13950       13950
  grid # 8         748         748         748         748         748         748         748
  grid # 9         394         394         394         394         394         394         394
   
  number of gridpoints: 
     atom          C18         C19         C20         C21         C22         H23         H24
  grid # 1          81          81          78          78          81          94         115
  grid # 2         233         233         240         244         233         386         455
  grid # 3           6           6           6           6           6         149         309
  grid # 4        8714        8714        8714        8714        8714        8714        8714
  grid # 5        1192        1192        1192        1192        1192        1192        1192
  grid # 6        5922        5922        5922        5922        5922        5922        5922
  grid # 7       13950       13950       13950       13950       13950       15206       15206
  grid # 8         748         748         748         748         748         786         786
  grid # 9         394         394         394         394         394         420         420
   
  number of gridpoints: 
     atom          H25         H26         H27         H28         H29         H30         H31
  grid # 1         117         115         110         115         118         118         103
  grid # 2         462         461         443         457         467         466         424
  grid # 3         370         328         166         325         426         415          94
  grid # 4        8714        8714        8714        8714        8714        8714        8714
  grid # 5        1192        1192        1192        1192        1192        1192        1192
  grid # 6        5922        5922        5922        5922        5922        5922        5922
  grid # 7       15206       15206       15206       15206       15206       15206       15206
  grid # 8         786         786         786         786         786         786         786
  grid # 9         420         420         420         420         420         420         420
   
  number of gridpoints: 
     atom          H32         H33         H34         H35         H36         H37         H38
  grid # 1         105         107          94         101         102         109          97
  grid # 2         439         443         407         426         429         447         397
  grid # 3         196         224          38         154         164         275          33
  grid # 4        8714        8714        8714        8714        8714        8714        8714
  grid # 5        1192        1192        1192        1192        1192        1192        1192
  grid # 6        5922        5922        5922        5922        5922        5922        5922
  grid # 7       15206       15206       15206       15206       15206       15206       15206
  grid # 8         786         786         786         786         786         786         786
  grid # 9         420         420         420         420         420         420         420
   
  number of gridpoints: 
     atom          H39         H40         H41         H42         H43         H44         H45
  grid # 1         109         105         103         103         109          95         109
  grid # 2         444         438         440         431         446         427         447
  grid # 3         244         167         162         168         266          87         271
  grid # 4        8714        8714        8714        8714        8714        8714        8714
  grid # 5        1192        1192        1192        1192        1192        1192        1192
  grid # 6        5922        5922        5922        5922        5922        5922        5922
  grid # 7       15206       15206       15206       15206       15206       15206       15206
  grid # 8         786         786         786         786         786         786         786
  grid # 9         420         420         420         420         420         420         420
   
  number of gridpoints: 
     atom          H46         H47         H48         H49        N118        H119        H120
  grid # 1         104         103         104         109         100          93         100
  grid # 2         437         427         431         446         310         391         416
  grid # 3         177         153         198         262           6          27         114
  grid # 4        8714        8714        8714        8714        8714        8714        8714
  grid # 5        1192        1192        1192        1192        1192        1192        1192
  grid # 6        5922        5922        5922        5922        5922        5922        5922
  grid # 7       15206       15206       15206       15206       13958       15206       15206
  grid # 8         786         786         786         786         756         786         786
  grid # 9         420         420         420         420         406         420         420
   
  number of gridpoints: 
     atom         C121        C122        C123        C124        C125        C126        H127
  grid # 1          97          96          96          96          96          96         109
  grid # 2         351         324         321         323         324         325         439
  grid # 3          28          40          32          32          40          35         167
  grid # 4        8714        8714        8714        8714        8714        8714        8714
  grid # 5        1192        1192        1192        1192        1192        1192        1192
  grid # 6        5922        5922        5922        5922        5922        5922        5922
  grid # 7       13950       13950       13950       13950       13950       13950       15206
  grid # 8         748         748         748         748         748         748         786
  grid # 9         394         394         394         394         394         394         420
   
  number of gridpoints: 
     atom         H128        H129        H130        H131         Br3       total
  grid # 1         111         118         117         117         494        9116
  grid # 2         451         466         465         466         475       28776
  grid # 3         236         412         375         412         268        9929
  grid # 4        8714        8714        8714        8714        8714      653550
  grid # 5        1192        1192        1192        1192        1192       89400
  grid # 6        5922        5922        5922        5922        9132      453780
  grid # 7       15206       15206       15206       15206       11582     1128960
  grid # 8         786         786         786         786         694       57896
  grid # 9         420         420         420         420         358       32316
   
  end of program grid
   
 Time(grid)  user:     333.664  user+sys:     333.664  wallclock:      23.431
  
  start of program rwr
  
  end of program rwr
   
 Time(rwr)  user:      48.357  user+sys:      48.357  wallclock:      13.673
  
  start of program scf
  
 number of electrons..........        286
 number of alpha electrons....        143
 number of beta electrons.....        143
 number of orbitals, total....        606
 number of doubly-occ'd orbs..        143
 number of open shell orbs....          0
 number of occupied orbitals..        143
 number of virtual orbitals...        463
 number of hamiltonians.......          1
 number of shells.............          1
 SCF type: DFT=Becke_3_Parameter/HF+Slater+Becke88+PW91+PW-GGAIIC (B3PW91-D3)
 Energy computed using pseudospectral method.
 Convergence Criterion:
    Energy (econv):       1.00E-05
    RMS density (dconv):  5.00E-06
  
       i  u  d  i  g                   
       t  p  i  c  r                                 RMS    maximum
       e  d  i  u  i                       energy  density   DIIS  
       r  t  s  t  d       total energy    change  change    error 
  
etot    1  N  N  5  M   -1873.04046108286           2.1E-03  1.6E-01
etot    2  Y  Y  6  M   -1876.10854330444  3.1E+00  3.5E-03  9.7E-02
etot    3  Y  Y  6  M   -1877.08751792005  9.8E-01  1.5E-03  6.4E-02
etot    4  N  Y  2  U   -1877.36035732810  2.7E-01  9.1E-04  4.4E-02
etot    5  Y  Y  6  M   -1877.53340511214  1.7E-01  4.9E-04  2.7E-02
etot    6  N  Y  2  U   -1877.55141117703  1.8E-02  8.4E-04  1.8E-02
etot    7  Y  Y  6  M   -1877.55001113537 -1.4E-03  1.8E-04  6.3E-03
etot    8  Y  Y  6  M   -1877.55922554740  9.2E-03  7.0E-05  1.7E-03
etot    9  N  Y  2  U   -1877.56141481720  2.2E-03  1.7E-05  3.1E-04
etot   10  N  Y  2  U   -1877.56143668474  2.2E-05  5.7E-06  1.1E-04
etot   11  N  Y  2  U   -1877.56144026120  3.6E-06  2.1E-06  3.3E-05
etot   12  N  N  2  U   -1877.56144066231  4.0E-07  0.0E+00  0.0E+00
 
  Computing the dispersion energy correction and its gradients...
  
  
 Energy components, in hartrees:
   (A)  Nuclear repulsion............    5063.47388817985
   (E)  Total one-electron terms.....  -12698.80079287134
   (F)    Electron-nuclear...........  -14477.81463429257
   (H)    Kinetic....................    1779.01384142122
   (I)  Total two-electron terms.....    5757.76546402918
   (J)    Coulomb....................    6001.45648321170
   (K)    Exchange+Correlation.......    -243.69101918252
   (L)  Electronic energy............   -6941.03532884216  (E+I)
   (N0) D3 correction................      -0.15974176253
   (N)  Total energy.................   -1877.72118242484  (A+L+N0)
   (O)  Gas phase energy.............   -1877.72118242484
  
 SCFE: SCF energy: DFT(b3pw91-d3)     -1877.72118242484 hartrees   iterations:  12
  
 
 HOMO energy:    -0.19266
 LUMO energy:    -0.06100
 
  Orbital energies (hartrees): 
   -77.08466   -24.67942   -14.34999   -10.24567   -10.21419   -10.21039
   -10.20816   -10.20540   -10.20383   -10.19916   -10.19772   -10.19748
   -10.19643   -10.19578   -10.19526   -10.19440   -10.19358   -10.19330
   -10.18879   -10.17440   -10.17106   -10.17047   -10.16945   -10.16859
   -10.16735   -10.16704   -10.16480   -10.16409   -10.16203   -10.16172
   -10.15616   -10.15613   -10.14093   -10.14071   -10.13717    -6.58462
    -4.74272    -4.74181    -4.73982    -3.34521    -2.07707    -2.07615
    -2.04377    -1.21180    -0.94039    -0.89898    -0.87636    -0.86016
    -0.84117    -0.83118    -0.81137    -0.80633    -0.78546    -0.77291
    -0.75659    -0.75003    -0.74500    -0.73914    -0.72944    -0.69796
    -0.69105    -0.68695    -0.68109    -0.66591    -0.65845    -0.65530
    -0.64039    -0.62228    -0.61517    -0.61015    -0.60086    -0.59895
    -0.59441    -0.56522    -0.55480    -0.54254    -0.53254    -0.52660
    -0.51912    -0.50992    -0.49436    -0.48565    -0.48201    -0.47959
    -0.47651    -0.47389    -0.46769    -0.46328    -0.45780    -0.45452
    -0.45258    -0.44523    -0.44441    -0.44183    -0.43728    -0.43499
    -0.43335    -0.43166    -0.42483    -0.41756    -0.41574    -0.41227
    -0.40378    -0.39644    -0.39402    -0.38925    -0.38812    -0.38475
    -0.38000    -0.37920    -0.37462    -0.37124    -0.36809    -0.36643
    -0.36303    -0.35839    -0.35246    -0.34996    -0.34562    -0.33967
    -0.33687    -0.33306    -0.33058    -0.32265    -0.31848    -0.31546
    -0.30375    -0.30070    -0.29657    -0.29232    -0.28705    -0.27056
    -0.26986    -0.26612    -0.25702    -0.24983    -0.24211    -0.23134
    -0.22621    -0.21895    -0.21391    -0.21021    -0.19266    -0.06100
    -0.05024    -0.03766    -0.02828    -0.01692    -0.00797    -0.00068
     0.00881     0.01309     0.03591
 
  end of program scf
   
 Time(scf)  user:     576.204  user+sys:     576.204  wallclock:      55.526
  
  start of program der1a
  
  end of program der1a
   
 Time(der1a)  user:      32.586  user+sys:      32.586  wallclock:       2.787
  
  start of program rwr
  
  end of program rwr
   
 Time(rwr)  user:      37.324  user+sys:      37.324  wallclock:      15.552
  
  start of program der1b
  
   
  forces (hartrees/bohr) : total     
   
 atom  label           x              y              z
 ---- --------   -------------  -------------  -------------
    1 P1          1.549923E-02   4.119193E-03   1.366681E-03
    2 Pd2        -1.461471E-02   7.935047E-03   9.241766E-03
    3 C73         8.194107E-04   4.926393E-05   2.691934E-04
    4 C74         9.440474E-04  -3.369627E-04   2.770798E-03
    5 C75         6.997785E-03  -6.932307E-03   1.854586E-02
    6 C76         1.293294E-03  -2.502819E-03   9.928902E-03
    7 C77         2.388552E-02   2.646754E-02   1.536226E-02
    8 C78         5.270614E-04  -4.167472E-04   6.274216E-03
    9 F79        -2.373399E-03   8.749224E-05  -3.035990E-04
   10 H80        -1.781118E-04  -8.074340E-04   2.447487E-05
   11 H82         3.383104E-02   5.371638E-02  -3.906626E-03
   12 H83         9.296880E-04   2.510643E-04  -7.790789E-04
   13 H14         3.640668E-04  -1.131767E-03   6.666860E-03
   14 C3         -2.369045E-04  -4.523253E-04   2.296961E-03
   15 C4          1.385338E-03  -2.262418E-04  -5.078365E-03
   16 C5         -3.941273E-03  -5.663608E-04   2.877940E-03
   17 C6         -1.910412E-03  -8.052182E-03   1.289728E-03
   18 C7         -3.606108E-02  -3.939961E-02  -2.737081E-03
   19 C8          3.162715E-03  -1.267857E-02  -7.329166E-04
   20 C9         -8.745514E-03  -1.658720E-02   5.592670E-04
   21 C10        -5.322457E-03  -6.941525E-03  -2.668691E-03
   22 C11         4.414964E-04  -5.737063E-03  -2.358510E-04
   23 C12         1.409314E-03   5.370968E-05  -1.676312E-03
   24 C13         5.141124E-04   5.283457E-04   1.726212E-04
   25 C14        -3.182955E-04   1.831184E-03   7.593488E-05
   26 C15        -5.135423E-06  -3.479424E-04   1.317737E-03
   27 C16        -2.667946E-04  -6.821834E-05   9.399815E-04
   28 C17        -5.503889E-04  -4.177987E-04  -8.655385E-03
   29 C18        -4.320279E-04   6.244624E-04  -1.694255E-04
   30 C19        -6.926722E-03   3.823844E-03  -7.853984E-03
   31 C20         1.261528E-03  -6.446917E-04   6.724924E-05
   32 C21        -4.723948E-04  -6.364822E-04  -3.876549E-03
   33 C22         2.489771E-03  -5.248659E-04  -4.854710E-04
   34 H23        -3.141428E-02  -4.733812E-02  -1.928300E-03
   35 H24         8.508294E-05  -1.436042E-03   7.902321E-05
   36 H25         3.465054E-04  -3.500658E-04   1.318346E-04
   37 H26         7.524449E-04   8.685467E-05  -9.198301E-04
   38 H27         7.761773E-04   1.150270E-03   1.257128E-03
   39 H28        -1.035773E-04   2.435906E-04  -2.164533E-04
   40 H29        -9.030828E-05   4.166818E-04   1.352472E-04
   41 H30         3.131268E-05   5.741207E-05   4.241702E-04
   42 H31         1.249600E-04   1.483276E-04   5.701313E-04
   43 H32         6.220689E-06  -4.359259E-05  -2.197634E-03
   44 H33        -5.620240E-05   3.591552E-04   3.503974E-06
   45 H34         2.879591E-03   3.096674E-03  -2.483355E-02
   46 H35         1.406868E-04  -3.003222E-04  -3.319993E-04
   47 H36        -2.171928E-04   1.739922E-04  -3.697900E-04
   48 H37        -2.711552E-04  -2.624964E-04   1.405914E-04
   49 H38        -2.095483E-03   7.649206E-03  -2.404535E-02
   50 H39         5.559101E-04  -4.606172E-04   3.241408E-04
   51 H40        -1.142090E-03   1.291847E-03  -1.744768E-03
   52 H41        -4.245906E-04  -1.041706E-03   3.491412E-03
   53 H42         1.878947E-04  -1.537056E-04  -4.282979E-05
   54 H43         1.357425E-04  -4.245016E-04   5.665392E-04
   55 H44        -1.756167E-03  -8.031033E-04  -3.460318E-03
   56 H45         2.421976E-04  -2.213906E-04  -6.561769E-04
   57 H46        -4.040745E-05  -7.723800E-04  -1.382905E-03
   58 H47         1.867064E-04   4.788837E-05  -4.791878E-04
   59 H48        -2.920807E-04   2.498503E-04   1.646125E-04
   60 H49         2.094027E-04  -2.135276E-04   7.144135E-04
   61 N118        7.503202E-03   2.962671E-02   1.227387E-03
   62 H119        4.653354E-03   1.314787E-02   3.526426E-03
   63 H120        6.562958E-04   2.449548E-03  -5.148838E-04
   64 C121       -2.385510E-03   1.940682E-03  -2.526289E-04
   65 C122       -3.210672E-04  -9.518112E-05  -2.814012E-04
   66 C123        1.362355E-04  -4.500741E-04   1.805186E-03
   67 C124        6.074711E-04   4.279282E-04   9.274298E-04
   68 C125        1.303343E-04  -2.775097E-04   3.156601E-05
   69 C126       -7.503933E-04  -5.555224E-04   3.614572E-04
   70 H127       -2.432525E-04  -1.693338E-05  -2.998242E-04
   71 H128        8.017886E-05  -2.000056E-04  -3.799279E-04
   72 H129        2.103448E-04  -5.034231E-04  -1.141468E-04
   73 H130       -3.034649E-04   1.553926E-04  -2.840808E-04
   74 H131       -1.920294E-04  -3.083252E-04  -3.189684E-04
   75 Br3         7.139122E-03  -2.457562E-03   5.030920E-03
 -------------   -------------  -------------  -------------
     total       -9.220835E-04  -1.887808E-03  -3.252736E-03
   
  end of program der1b
   
 Time(der1b)  user:     190.956  user+sys:     190.956  wallclock:      16.775
  
  start of program geopt
  
 ----------------------------------------------------------------------------
  Geometry optimization step  1
  Total energy:     -1877.72118242484 hartrees
 ----------------------------------------------------------------------------
  
  gradient maximum:        7.2659E-01 .  (  2.2500E-03 )
  gradient rms:            9.0723E-02 .  (  1.5000E-03 )
  displacement maximum:    1.4583E-01 .  (  9.0000E-03 )
  displacement rms:        1.8524E-02 .  (  6.0000E-03 )
  
  predicted energy change:  -1.2388E-01
  step size:     0.29465
  trust radius:  0.30000
  
  molecular structure not yet converged...
  
  center of mass moved by:
     x:     8.7050E-02     y:     6.6679E-02     z:     9.3578E-02
  
  new geometry: 
                                   angstroms
  atom               x                 y                 z
  P1            0.0744182963     -0.0011203022      0.0232919067 
  Pd2           0.0759244136      0.0569641326      2.3824763348 
  C73           4.7941120945     -0.0120267621      3.1079155009 
  C74           4.0877369343      1.1825961995      3.1071714898 
  C75           2.7079021580      1.1465791589      2.8914238128 
  C76           2.0561547860     -0.0719179677      2.6583600547 
  C77           2.7776569066     -1.2508794454      2.7261403492 
  C78           4.1585934800     -1.2346939333      2.9418249286 
  F79           6.1287633331      0.0149388885      3.3020383877 
  H80           4.6098844240      2.1184029886      3.2848080733 
  H82           2.2222621305     -2.1960502381      2.6470533981 
  H83           4.7386955122     -2.1529600267      2.9932213910 
  H14           2.1502460972      2.0760680208      2.9599689142 
  C3            0.0298952973     -1.7749780994     -0.5216376580 
  C4            1.6601419179      0.6349843609     -0.8534398927 
  C5           -1.4510318186      0.6840946505     -0.8797494180 
  C6           -0.3015945497     -2.7765683258      1.8519561011 
  C7            0.6020952571     -3.3793687008      2.7440950911 
  C8            0.2423049260     -3.6152084411      4.0674418580 
  C9           -1.0341936407     -3.2794238872      4.5135203270 
  C10          -1.9445870970     -2.6710826199      3.6512818813 
  C11          -1.5754706530     -2.4017067440      2.3338122430 
  C12          -0.0415883922     -2.8567083127      0.3873014572 
  C13           0.0823594135     -4.1680714337     -0.0990930645 
  C14           0.2652360116     -4.4348996562     -1.4483438208 
  C15           0.3213270870     -3.3757537824     -2.3479413238 
  C16           0.2086235084     -2.0712362338     -1.8834613493 
  C17           2.7725876314     -0.3981158737     -0.6099242634 
  C18           1.5154143316      0.8676161026     -2.3623415253 
  C19           2.0892036770      1.9561375395     -0.2059438433 
  C20          -1.5516144826      2.1853907664     -0.5765600723 
  C21          -2.6639631942     -0.0847214375     -0.3318185223 
  C22          -1.4754437370      0.4827583309     -2.4028834025 
  H23           1.5713116226     -3.6755773607      2.3807165452 
  H24           0.9582064573     -4.0653737040      4.7510167994 
  H25          -1.3120285544     -3.4691751845      5.5473612595 
  H26          -2.9308669753     -2.3839389181      4.0045656709 
  H27          -2.2987196899     -1.9783911177      1.6427407199 
  H28           0.0174543102     -4.9896617873      0.6103270256 
  H29           0.3562580596     -5.4618524209     -1.7931254215 
  H30           0.4647996409     -3.5589362489     -3.4099159117 
  H31           0.2746392108     -1.2687954052     -2.6056057552 
  H32           2.6125448827     -1.3216905968     -1.1763327844 
  H33           3.7307654251      0.0348570372     -0.9260986862 
  H34           2.8620681062     -0.6494346813      0.4558206701 
  H35           1.2306897862     -0.0359149593     -2.9085395319 
  H36           0.7974873653      1.6612330214     -2.5930693641 
  H37           2.4889208599      1.1858246897     -2.7591184597 
  H38           2.3847526367      1.7874271309      0.8376089186 
  H39           2.9614252555      2.3531499714     -0.7427925381 
  H40           1.3022065089      2.7173223128     -0.2301785136 
  H41          -1.4896543122      2.3942999380      0.4955534250 
  H42          -0.7734765639      2.7571980697     -1.0942157704 
  H43          -2.5226028716      2.5532231840     -0.9326060853 
  H44          -2.7872391440      0.0498123781      0.7423091057 
  H45          -3.5745372019      0.2812860089     -0.8246761921 
  H46          -2.5807459692     -1.1576033827     -0.5496787075 
  H47          -0.6183428100      0.9248696755     -2.9179258098 
  H48          -1.5496625007     -0.5737155833     -2.6753440070 
  H49          -2.3761152523      0.9776098041     -2.7896625549 
  N118          0.0506977358     -0.3039793302      4.5473919945 
  H119          0.1908880083     -1.3279890088      4.6261605382 
  H120         -0.9296195135     -0.0937235235      4.7351778460 
  C121          0.8916443826      0.4689427611      5.4005227073 
  C122          2.5806284349      2.0503636206      6.9629125273 
  C123          2.1033879249     -0.0475501714      5.8580017803 
  C124          0.5223959526      1.7785716545      5.7193942997 
  C125          1.3663015012      2.5610809694      6.5013952794 
  C126          2.9435486960      0.7457994159      6.6344060921 
  H127          2.4073850182     -1.0504354651      5.5723740906 
  H128         -0.4101391097      2.1764545946      5.3246428969 
  H129          1.0742646764      3.5799164921      6.7459356441 
  H130          3.8921744108      0.3394759721      6.9768855470 
  H131          3.2399430440      2.6674255694      7.5686162302 
  Br3          -2.2415969338      1.3580101534      3.0761480032 
   
 
  bond lengths (angstroms):
 
 P1      -Pd2     :   2.359900      P1      -C3      :   1.856206
 P1      -C4      :   1.920366      P1      -C5      :   1.900527
 Pd2     -C76     :   2.003506      Pd2     -N118    :   2.194943
 Pd2     -Br3     :   2.746781      C73     -C74     :   1.387837
 C73     -C78     :   1.387943      C73     -F79     :   1.348964
 C74     -C75     :   1.397064      C74     -H80     :   1.086244
 C75     -C76     :   1.401367      C75     -H14     :   1.086107
 C76     -C77     :   1.383875      C77     -C78     :   1.397772
 C77     -H82     :   1.099121      C78     -H83     :   1.087370
 C3      -C12     :   1.414716      C3      -C16     :   1.405089
 C4      -C17     :   1.537573      C4      -C18     :   1.533574
 C4      -C19     :   1.532577      C5      -C20     :   1.534904
 C5      -C21     :   1.537046      C5      -C22     :   1.536577
 C6      -C7      :   1.405680      C6      -C11     :   1.412610
 C6      -C12     :   1.489711      C7      -C8      :   1.391516
 C7      -H23     :   1.076645      C8      -C9      :   1.393264
 C8      -H24     :   1.087400      C9      -C10     :   1.393682
 C9      -H25     :   1.087210      C10     -C11     :   1.394466
 C10     -H26     :   1.086282      C11     -H27     :   1.086216
 C12     -C13     :   1.404142      C13     -C14     :   1.387486
 C13     -H28     :   1.087428      C14     -C15     :   1.390759
 C14     -H29     :   1.087102      C15     -C16     :   1.389320
 C15     -H30     :   1.087166      C16     -H31     :   1.081555
 C17     -H32     :   1.095182      C17     -H33     :   1.097969
 C17     -H34     :   1.098626      C18     -H35     :   1.093512
 C18     -H36     :   1.094752      C18     -H37     :   1.098364
 C19     -H38     :   1.097641      C19     -H39     :   1.098452
 C19     -H40     :   1.095150      C20     -H41     :   1.094034
 C20     -H42     :   1.095641      C20     -H43     :   1.097674
 C21     -H44     :   1.089517      C21     -H45     :   1.098187
 C21     -H46     :   1.097936      C22     -H47     :   1.093322
 C22     -H48     :   1.093563      C22     -H49     :   1.098037
 N118    -H119    :   1.036559      N118    -H120    :   1.020046
 N118    -C121    :   1.425634      C121    -C123    :   1.394408
 C121    -C124    :   1.397552      C122    -C125    :   1.395858
 C122    -C126    :   1.393383      C122    -H131    :   1.087354
 C123    -C126    :   1.392148      C123    -H127    :   1.086175
 C124    -C125    :   1.391410      C124    -H128    :   1.088008
 C125    -H129    :   1.087709      C126    -H130    :   1.087328
 
  bond angles:
 
 C3      -P1      -Pd2     : 108.482750  C4      -P1      -Pd2     : 116.597863
 C4      -P1      -C3      : 101.672892  C5      -P1      -Pd2     : 117.816894
 C5      -P1      -C3      : 100.707824  C5      -P1      -C4      : 109.051815
 C76     -Pd2     -P1      :  97.857295  N118    -Pd2     -P1      : 169.102149
 N118    -Pd2     -C76     :  82.239329  Br3     -Pd2     -P1      : 105.282777
 Br3     -Pd2     -C76     : 146.059301  Br3     -Pd2     -N118    :  79.578310
 C78     -C73     -C74     : 121.679195  F79     -C73     -C74     : 119.107222
 F79     -C73     -C78     : 119.199834  C75     -C74     -C73     : 118.723954
 H80     -C74     -C73     : 119.789883  H80     -C74     -C75     : 121.481738
 C76     -C75     -C74     : 120.493721  H14     -C75     -C74     : 118.379126
 H14     -C75     -C76     : 121.052650  C75     -C76     -Pd2     : 115.254782
 C77     -C76     -Pd2     : 125.229596  C77     -C76     -C75     : 119.349462
 C78     -C77     -C76     : 120.848969  H82     -C77     -C76     : 117.750857
 H82     -C77     -C78     : 121.351216  C77     -C78     -C73     : 118.753095
 H83     -C78     -C73     : 119.603115  H83     -C78     -C77     : 121.639988
 C12     -C3      -P1      : 122.908629  C16     -C3      -P1      : 118.879779
 C16     -C3      -C12     : 117.898947  C17     -C4      -P1      : 107.611500
 C18     -C4      -P1      : 114.930505  C18     -C4      -C17     : 109.028037
 C19     -C4      -P1      : 108.895073  C19     -C4      -C17     : 108.043919
 C19     -C4      -C18     : 108.140376  C20     -C5      -P1      : 108.142770
 C21     -C5      -P1      : 106.479409  C21     -C5      -C20     : 111.537535
 C22     -C5      -P1      : 115.881216  C22     -C5      -C20     : 108.839648
 C22     -C5      -C21     : 105.979163  C11     -C6      -C7      : 118.493093
 C12     -C6      -C7      : 119.256324  C12     -C6      -C11     : 120.467016
 C8      -C7      -C6      : 120.665929  H23     -C7      -C6      : 118.849562
 H23     -C7      -C8      : 120.471372  C9      -C8      -C7      : 120.034891
 H24     -C8      -C7      : 119.852851  H24     -C8      -C9      : 120.111853
 C10     -C9      -C8      : 120.371313  H25     -C9      -C8      : 119.770057
 H25     -C9      -C10     : 119.838551  C11     -C10     -C9      : 119.730838
 H26     -C10     -C9      : 120.482017  H26     -C10     -C11     : 119.771018
 C10     -C11     -C6      : 120.645026  H27     -C11     -C6      : 119.133536
 H27     -C11     -C10     : 120.008204  C6      -C12     -C3      : 126.824637
 C13     -C12     -C3      : 119.149228  C13     -C12     -C6      : 113.967675
 C14     -C13     -C12     : 121.876632  H28     -C13     -C12     : 118.317609
 H28     -C13     -C14     : 119.800060  C15     -C14     -C13     : 119.200922
 H29     -C14     -C13     : 120.074277  H29     -C14     -C15     : 120.723534
 C16     -C15     -C14     : 119.706063  H30     -C15     -C14     : 120.587518
 H30     -C15     -C16     : 119.702144  C15     -C16     -C3      : 122.162523
 H31     -C16     -C3      : 119.898250  H31     -C16     -C15     : 117.935069
 H32     -C17     -C4      : 112.270677  H33     -C17     -C4      : 108.712953
 H33     -C17     -H32     : 108.128451  H34     -C17     -C4      : 111.485584
 H34     -C17     -H32     : 108.704823  H34     -C17     -H33     : 107.366003
 H35     -C18     -C4      : 112.997320  H36     -C18     -C4      : 112.285522
 H36     -C18     -H35     : 108.842009  H37     -C18     -C4      : 108.405138
 H37     -C18     -H35     : 106.841119  H37     -C18     -H36     : 107.162756
 H38     -C19     -C4      : 110.154492  H39     -C19     -C4      : 109.110270
 H39     -C19     -H38     : 107.842305  H40     -C19     -C4      : 112.869363
 H40     -C19     -H38     : 108.745458  H40     -C19     -H39     : 107.974346
 H41     -C20     -C5      : 112.125273  H42     -C20     -C5      : 111.752539
 H42     -C20     -H41     : 108.851847  H43     -C20     -C5      : 108.763348
 H43     -C20     -H41     : 107.696489  H43     -C20     -H42     : 107.463964
 H44     -C21     -C5      : 112.270051  H45     -C21     -C5      : 109.124697
 H45     -C21     -H44     : 107.907532  H46     -C21     -C5      : 110.991489
 H46     -C21     -H44     : 108.957260  H46     -C21     -H45     : 107.425841
 H47     -C22     -C5      : 113.673198  H48     -C22     -C5      : 112.001633
 H48     -C22     -H47     : 109.056196  H49     -C22     -C5      : 107.646602
 H49     -C22     -H47     : 107.149016  H49     -C22     -H48     : 106.974898
 H119    -N118    -Pd2     : 103.641665  H120    -N118    -Pd2     :  99.133005
 H120    -N118    -H119    : 108.639790  C121    -N118    -Pd2     : 119.623690
 C121    -N118    -H119    : 114.226457  C121    -N118    -H120    : 110.180718
 C123    -C121    -N118    : 120.538438  C124    -C121    -N118    : 119.257726
 C124    -C121    -C123    : 120.122036  C126    -C122    -C125    : 119.419124
 H131    -C122    -C125    : 120.267393  H131    -C122    -C126    : 120.312532
 C126    -C123    -C121    : 119.757534  H127    -C123    -C121    : 119.929925
 H127    -C123    -C126    : 120.260071  C125    -C124    -C121    : 119.669161
 H128    -C124    -C121    : 119.101943  H128    -C124    -C125    : 121.204300
 C124    -C125    -C122    : 120.510140  H129    -C125    -C122    : 120.129137
 H129    -C125    -C124    : 119.359568  C123    -C126    -C122    : 120.520476
 H130    -C126    -C122    : 120.188473  H130    -C126    -C123    : 119.289379
 
  torsional angles:
 
 P1      -Pd2     -C76     -C75     :  98.319495
 P1      -Pd2     -C76     -C77     : -86.419658
 P1      -Pd2     -N118    -H119    :  11.778211
 P1      -Pd2     -N118    -H120    :-100.069177
 P1      -Pd2     -N118    -C121    : 140.368772
 P1      -C3      -C12     -C6      :  10.158264
 P1      -C3      -C12     -C13     :-172.800808
 P1      -C3      -C16     -C15     : 173.440681
 P1      -C3      -C16     -H31     :  -5.801962
 P1      -C4      -C17     -H32     :  71.590171
 P1      -C4      -C17     -H33     :-168.824586
 P1      -C4      -C17     -H34     : -50.660426
 P1      -C4      -C18     -H35     : -59.366662
 P1      -C4      -C18     -H36     :  64.213771
 P1      -C4      -C18     -H37     :-177.591179
 P1      -C4      -C19     -H38     :  65.082542
 P1      -C4      -C19     -H39     :-176.715049
 P1      -C4      -C19     -H40     : -56.675807
 P1      -C5      -C20     -H41     : -50.535552
 P1      -C5      -C20     -H42     :  71.996800
 P1      -C5      -C20     -H43     :-169.526647
 P1      -C5      -C21     -H44     :  60.229992
 P1      -C5      -C21     -H45     : 179.812897
 P1      -C5      -C21     -H46     : -61.987326
 P1      -C5      -C22     -H47     : -58.146113
 P1      -C5      -C22     -H48     :  66.023182
 P1      -C5      -C22     -H49     :-176.656123
 Pd2     -P1      -C3      -C12     :   2.139698
 Pd2     -P1      -C3      -C16     :-171.298650
 Pd2     -P1      -C4      -C17     :  70.982359
 Pd2     -P1      -C4      -C18     :-167.365009
 Pd2     -P1      -C4      -C19     : -45.898735
 Pd2     -P1      -C5      -C20     :  64.123488
 Pd2     -P1      -C5      -C21     : -55.863296
 Pd2     -P1      -C5      -C22     :-173.418839
 Pd2     -C76     -C75     -C74     : 179.564075
 Pd2     -C76     -C75     -H14     :   2.753810
 Pd2     -C76     -C77     -C78     :-179.044107
 Pd2     -C76     -C77     -H82     :  -1.555135
 Pd2     -N118    -C121    -C123    : -99.482949
 Pd2     -N118    -C121    -C124    :  77.232458
 C73     -C74     -C75     -C76     :  -1.051109
 C73     -C74     -C75     -H14     : 175.843089
 C73     -C78     -C77     -C76     :   0.970375
 C73     -C78     -C77     -H82     :-176.427424
 C74     -C73     -C78     -C77     :   2.079223
 C74     -C73     -C78     -H83     :-177.223212
 C74     -C75     -C76     -C77     :   4.004665
 C75     -C74     -C73     -C78     :  -2.022736
 C75     -C74     -C73     -F79     : 179.337270
 C75     -C76     -Pd2     -N118    : -92.680245
 C75     -C76     -Pd2     -Br3     : -34.650548
 C75     -C76     -C77     -C78     :  -3.961878
 C75     -C76     -C77     -H82     : 173.527094
 C76     -Pd2     -P1      -C3      :  87.518341
 C76     -Pd2     -P1      -C4      : -26.432049
 C76     -Pd2     -P1      -C5      :-159.036985
 C76     -Pd2     -N118    -H119    : -79.477753
 C76     -Pd2     -N118    -H120    : 168.674859
 C76     -Pd2     -N118    -C121    :  49.112808
 C76     -C75     -C74     -H80     : 179.715959
 C76     -C77     -C78     -H83     :-179.742026
 C77     -C76     -Pd2     -N118    :  82.580602
 C77     -C76     -Pd2     -Br3     : 140.610300
 C77     -C76     -C75     -H14     :-172.805600
 C77     -C78     -C73     -F79     :-179.282010
 C78     -C73     -C74     -H80     : 177.223496
 F79     -C73     -C74     -H80     :  -1.416498
 F79     -C73     -C78     -H83     :   1.415554
 H80     -C74     -C75     -H14     :  -3.389843
 H82     -C77     -C78     -H83     :   2.860175
 C3      -P1      -Pd2     -N118    :  -2.238556
 C3      -P1      -Pd2     -Br3     :-117.538426
 C3      -P1      -C4      -C17     : -46.758493
 C3      -P1      -C4      -C18     :  74.894139
 C3      -P1      -C4      -C19     :-163.639587
 C3      -P1      -C5      -C20     :-178.194764
 C3      -P1      -C5      -C21     :  61.818452
 C3      -P1      -C5      -C22     : -55.737091
 C3      -C12     -C6      -C7      :-125.976459
 C3      -C12     -C6      -C11     :  69.458977
 C3      -C12     -C13     -C14     :  -0.391556
 C3      -C12     -C13     -H28     :-179.520844
 C3      -C16     -C15     -C14     :  -0.377277
 C3      -C16     -C15     -H30     :-179.629679
 C4      -P1      -Pd2     -N118    :-116.188946
 C4      -P1      -Pd2     -Br3     : 128.511184
 C4      -P1      -C3      -C12     : 125.582366
 C4      -P1      -C3      -C16     : -47.855983
 C4      -P1      -C5      -C20     : -71.746863
 C4      -P1      -C5      -C21     : 168.266353
 C4      -P1      -C5      -C22     :  50.710809
 C5      -P1      -Pd2     -N118    : 111.206118
 C5      -P1      -Pd2     -Br3     :  -4.093753
 C5      -P1      -C3      -C12     :-122.189873
 C5      -P1      -C3      -C16     :  64.371779
 C5      -P1      -C4      -C17     :-152.545687
 C5      -P1      -C4      -C18     : -30.893056
 C5      -P1      -C4      -C19     :  90.573218
 C6      -C7      -C8      -C9      :   1.370616
 C6      -C7      -C8      -H24     :-178.860545
 C6      -C11     -C10     -C9      :   1.961278
 C6      -C11     -C10     -H26     :-179.492291
 C6      -C12     -C3      -C16     :-176.342696
 C6      -C12     -C13     -C14     : 177.016542
 C6      -C12     -C13     -H28     :  -2.112746
 C7      -C6      -C11     -C10     :  -2.428741
 C7      -C6      -C11     -H27     :-177.123442
 C7      -C6      -C12     -C13     :  56.851610
 C7      -C8      -C9      -C10     :  -1.872433
 C7      -C8      -C9      -H25     : 179.760043
 C8      -C7      -C6      -C11     :   0.758682
 C8      -C7      -C6      -C12     :-164.110827
 C8      -C9      -C10     -C11     :   0.209378
 C8      -C9      -C10     -H26     :-178.326545
 C9      -C8      -C7      -H23     :-177.295800
 C9      -C10     -C11     -H27     : 176.609690
 C10     -C9      -C8      -H24     : 178.359332
 C10     -C11     -C6      -C12     : 162.251579
 C11     -C6      -C7      -H23     : 179.446428
 C11     -C6      -C12     -C13     :-107.712954
 C11     -C10     -C9      -H25     : 178.575784
 C12     -C3      -C16     -C15     :  -0.327439
 C12     -C3      -C16     -H31     :-179.570082
 C12     -C6      -C7      -H23     :  14.576919
 C12     -C6      -C11     -H27     : -12.443122
 C12     -C13     -C14     -C15     :  -0.316790
 C12     -C13     -C14     -H29     :-179.910140
 C13     -C12     -C3      -C16     :   0.698232
 C13     -C14     -C15     -C16     :   0.696018
 C13     -C14     -C15     -H30     : 179.941680
 C14     -C15     -C16     -H31     : 178.879569
 C15     -C14     -C13     -H28     : 178.799888
 C16     -C15     -C14     -H29     :-179.713345
 C17     -C4      -C18     -H35     :  61.513525
 C17     -C4      -C18     -H36     :-174.906043
 C17     -C4      -C18     -H37     : -56.710993
 C17     -C4      -C19     -H38     : -51.522568
 C17     -C4      -C19     -H39     :  66.679840
 C17     -C4      -C19     -H40     :-173.280918
 C18     -C4      -C17     -H32     : -53.669656
 C18     -C4      -C17     -H33     :  65.915587
 C18     -C4      -C17     -H34     :-175.920253
 C18     -C4      -C19     -H38     :-169.398618
 C18     -C4      -C19     -H39     : -51.196209
 C18     -C4      -C19     -H40     :  68.843033
 C19     -C4      -C17     -H32     :-170.974568
 C19     -C4      -C17     -H33     : -51.389325
 C19     -C4      -C17     -H34     :  66.774835
 C19     -C4      -C18     -H35     : 178.757316
 C19     -C4      -C18     -H36     : -57.662251
 C19     -C4      -C18     -H37     :  60.532799
 C20     -C5      -C21     -H44     : -57.535364
 C20     -C5      -C21     -H45     :  62.047541
 C20     -C5      -C21     -H46     :-179.752682
 C20     -C5      -C22     -H47     :  63.942520
 C20     -C5      -C22     -H48     :-171.888186
 C20     -C5      -C22     -H49     : -54.567490
 C21     -C5      -C20     -H41     :  66.223691
 C21     -C5      -C20     -H42     :-171.243957
 C21     -C5      -C20     -H43     : -52.767405
 C21     -C5      -C22     -H47     :-175.979076
 C21     -C5      -C22     -H48     : -51.809782
 C21     -C5      -C22     -H49     :  65.510914
 C22     -C5      -C20     -H41     :-177.201537
 C22     -C5      -C20     -H42     : -54.669185
 C22     -C5      -C20     -H43     :  63.807367
 C22     -C5      -C21     -H44     :-175.837879
 C22     -C5      -C21     -H45     : -56.254974
 C22     -C5      -C21     -H46     :  61.944803
 H23     -C7      -C8      -H24     :   2.473039
 H24     -C8      -C9      -H25     :  -0.008192
 H25     -C9      -C10     -H26     :   0.039860
 H26     -C10     -C11     -H27     :  -4.843878
 H28     -C13     -C14     -H29     :  -0.793462
 H29     -C14     -C15     -H30     :  -0.467683
 H30     -C15     -C16     -H31     :  -0.372833
 N118    -C121    -C123    -C126    : 176.735921
 N118    -C121    -C123    -H127    :  -0.636863
 N118    -C121    -C124    -C125    :-177.086790
 N118    -C121    -C124    -H128    :   1.131287
 H119    -N118    -Pd2     -Br3     : 129.311720
 H119    -N118    -C121    -C123    :  24.116259
 H119    -N118    -C121    -C124    :-159.168334
 H120    -N118    -Pd2     -Br3     :  17.464331
 H120    -N118    -C121    -C123    : 146.717841
[...]
    C125     Y     0.00036   0.00066   0.00982   0.00009  -0.00001   0.00000
    C125     Z     0.00014   0.00029   0.00356   0.00003  -0.00001  -0.00000
    C126     X     0.00023   0.00112   0.02310   0.00017  -0.00001   0.00001
    C126     Y    -0.00030  -0.00127  -0.02614  -0.00017   0.00002  -0.00002
    C126     Z     0.00006   0.00035   0.00688   0.00006  -0.00000   0.00000
    H127     X     0.00012   0.00630   0.16153   0.00177  -0.00006   0.00050
    H127     Y     0.00093   0.02910   0.74463   0.00834  -0.00018   0.00220
    H127     Z     0.00016   0.01350   0.34287   0.00387  -0.00009   0.00103
    H128     X     0.00099   0.00093   0.02398   0.00029   0.00000   0.00023
    H128     Y    -0.00124  -0.00119  -0.03041  -0.00038  -0.00001  -0.00031
    H128     Z     0.00030   0.00034   0.00767   0.00009  -0.00001   0.00005
    H129     X    -0.00085  -0.00162  -0.02225  -0.00021   0.00004   0.00000
    H129     Y    -0.00386  -0.00749  -0.10268  -0.00096   0.00016  -0.00000
    H129     Z    -0.00155  -0.00307  -0.04107  -0.00038   0.00006  -0.00000
    H130     X    -0.00258  -0.01156  -0.23732  -0.00161   0.00013  -0.00009
    H130     Y     0.00327   0.01433   0.29253   0.00195  -0.00016   0.00016
    H130     Z    -0.00066  -0.00302  -0.06265  -0.00041   0.00003  -0.00002
    H131     X    -0.00545  -0.01359  -0.17613  -0.00101   0.00015  -0.00007
    H131     Y    -0.00090  -0.00233  -0.03072  -0.00018   0.00003  -0.00002
    H131     Z    -0.00358  -0.00910  -0.11600  -0.00066   0.00010  -0.00004
    Br3      X    -0.00000   0.00001  -0.00000   0.00000  -0.00000  -0.00001
    Br3      Y    -0.00001  -0.00001   0.00000  -0.00000  -0.00000   0.00000
    Br3      Z     0.00001  -0.00000   0.00000   0.00000  -0.00000   0.00000
  
  vibration #          217       218       219
                 --------- --------- ---------
  frequencies      3318.64   3462.09   3542.23
  intensities         5.55     75.90     85.75
  reduc. mass         0.92      0.49      0.53
  force const         5.98      3.44      3.88
    P1       X    -0.00003  -0.00003   0.00002
    P1       Y     0.00001   0.00005  -0.00005
    P1       Z    -0.00006   0.00005  -0.00005
    Pd2      X     0.00001   0.00001   0.00001
    Pd2      Y     0.00002  -0.00002   0.00001
    Pd2      Z     0.00000   0.00011  -0.00002
    C73      X     0.00001  -0.00004   0.00001
    C73      Y     0.00000   0.00000  -0.00000
    C73      Z     0.00000  -0.00000   0.00000
    C74      X     0.00001  -0.00001   0.00001
    C74      Y     0.00001  -0.00001   0.00000
    C74      Z     0.00000  -0.00004   0.00000
    C75      X    -0.00002   0.00002  -0.00004
    C75      Y    -0.00000   0.00009   0.00003
    C75      Z    -0.00001   0.00000   0.00001
    C76      X     0.00003  -0.00002   0.00004
    C76      Y    -0.00005   0.00004   0.00002
    C76      Z     0.00000   0.00005   0.00000
    C77      X    -0.00006   0.00004  -0.00007
    C77      Y    -0.00010   0.00014  -0.00012
    C77      Z    -0.00005   0.00007  -0.00007
    C78      X     0.00001   0.00000   0.00001
    C78      Y    -0.00001   0.00002   0.00001
    C78      Z    -0.00000  -0.00001   0.00000
    F79      X    -0.00001   0.00002  -0.00001
    F79      Y     0.00000  -0.00001   0.00000
    F79      Z    -0.00000   0.00000  -0.00000
    H80      X    -0.00011  -0.00002  -0.00007
    H80      Y    -0.00012  -0.00005  -0.00005
    H80      Z    -0.00007   0.00008  -0.00006
    H82      X     0.00070  -0.00059   0.00041
    H82      Y     0.00119  -0.00126   0.00094
    H82      Z     0.00060  -0.00064   0.00064
    H83      X    -0.00008   0.00022  -0.00022
    H83      Y     0.00013  -0.00026   0.00017
    H83      Z     0.00000  -0.00003   0.00000
    H14      X    -0.00006   0.00043   0.00006
    H14      Y     0.00020  -0.00131  -0.00011
    H14      Z     0.00004   0.00013  -0.00002
    C3       X     0.00005  -0.00001   0.00000
    C3       Y     0.00001   0.00001  -0.00001
    C3       Z    -0.00007  -0.00006   0.00001
    C4       X     0.00004  -0.00001  -0.00001
    C4       Y    -0.00000  -0.00002   0.00001
    C4       Z     0.00004  -0.00005   0.00001
    C5       X    -0.00019   0.00009  -0.00000
    C5       Y     0.00000  -0.00006   0.00003
    C5       Z    -0.00012  -0.00007   0.00002
    C6       X    -0.00260  -0.00014   0.00015
    C6       Y     0.00126   0.00009  -0.00010
    C6       Z     0.00092  -0.00005   0.00005
    C7       X    -0.00034   0.00012  -0.00009
    C7       Y     0.00023  -0.00009   0.00008
    C7       Z    -0.00037   0.00015  -0.00018
    C8       X    -0.00030   0.00042  -0.00041
    C8       Y     0.00026  -0.00032   0.00027
    C8       Z    -0.00035  -0.00002   0.00007
    C9       X    -0.00034   0.00002  -0.00004
    C9       Y     0.00033  -0.00004   0.00000
    C9       Z    -0.00066   0.00054  -0.00046
    C10      X     0.00489  -0.00051   0.00044
    C10      Y    -0.00200   0.00020  -0.00016
    C10      Z    -0.00388  -0.00027   0.00025
    C11      X     0.04680  -0.00004  -0.00001
    C11      Y    -0.03711  -0.00003   0.00007
    C11      Z     0.05637  -0.00028   0.00023
    C12      X     0.00023   0.00005  -0.00005
    C12      Y    -0.00010   0.00000   0.00000
    C12      Z    -0.00000  -0.00012   0.00012
    C13      X     0.00004  -0.00002   0.00002
    C13      Y    -0.00001   0.00006  -0.00005
    C13      Z    -0.00014   0.00004  -0.00005
    C14      X    -0.00003   0.00000  -0.00000
    C14      Y     0.00001  -0.00003   0.00002
    C14      Z     0.00004  -0.00003   0.00003
    C15      X     0.00001  -0.00000   0.00000
    C15      Y     0.00001  -0.00002   0.00002
    C15      Z    -0.00001   0.00001  -0.00001
    C16      X     0.00001  -0.00002   0.00001
    C16      Y     0.00007  -0.00003   0.00001
    C16      Z    -0.00005   0.00002  -0.00002
    C17      X     0.00000  -0.00000   0.00000
    C17      Y     0.00002   0.00002  -0.00002
    C17      Z     0.00001   0.00001  -0.00001
    C18      X    -0.00005   0.00003   0.00001
    C18      Y    -0.00001   0.00002  -0.00002
    C18      Z    -0.00001   0.00003  -0.00001
    C19      X    -0.00001  -0.00000   0.00002
    C19      Y     0.00001  -0.00002  -0.00000
    C19      Z    -0.00004   0.00003  -0.00002
    C20      X    -0.00001   0.00002  -0.00001
    C20      Y    -0.00005  -0.00000  -0.00000
    C20      Z     0.00004   0.00001   0.00001
    C21      X    -0.00002  -0.00000   0.00000
    C21      Y     0.00074   0.00006  -0.00000
    C21      Z     0.00228  -0.00002   0.00008
    C22      X    -0.00005  -0.00004   0.00002
    C22      Y     0.00002   0.00004  -0.00002
    C22      Z     0.00005   0.00000  -0.00001
    H23      X    -0.00070  -0.00149   0.00109
    H23      Y     0.00031   0.00090  -0.00066
    H23      Z     0.00010   0.00057  -0.00046
    H24      X     0.00255  -0.00170   0.00120
    H24      Y    -0.00215   0.00167  -0.00113
    H24      Z     0.00322  -0.00179   0.00119
    H25      X    -0.00006   0.00022   0.00018
    H25      Y    -0.00015  -0.00020   0.00039
    H25      Z     0.00153  -0.00158   0.00066
    H26      X    -0.04654   0.00223  -0.00129
    H26      Y     0.02314  -0.00099   0.00043
    H26      Z     0.01570  -0.00029   0.00019
    H27      X    -0.53786   0.00107  -0.00048
    H27      Y     0.43316  -0.00062  -0.00001
    H27      Z    -0.65634   0.00146  -0.00084
    H28      X    -0.00008  -0.00006   0.00004
    H28      Y    -0.00051  -0.00069   0.00061
    H28      Z     0.00048   0.00028  -0.00019
    H29      X     0.00011  -0.00005   0.00006
    H29      Y    -0.00032   0.00025  -0.00025
    H29      Z    -0.00011   0.00012  -0.00012
    H30      X    -0.00004   0.00004   0.00000
    H30      Y     0.00003  -0.00007   0.00004
    H30      Z     0.00010   0.00003  -0.00008
    H31      X    -0.00020  -0.00007   0.00009
    H31      Y    -0.00063  -0.00001   0.00006
    H31      Z     0.00052   0.00020  -0.00023
    H32      X    -0.00000   0.00006  -0.00008
    H32      Y    -0.00011  -0.00020   0.00020
    H32      Z    -0.00005  -0.00009   0.00011
    H33      X     0.00005   0.00008   0.00004
    H33      Y    -0.00002   0.00003   0.00007
    H33      Z     0.00001  -0.00010  -0.00001
    H34      X     0.00000  -0.00005   0.00002
    H34      Y     0.00001  -0.00003  -0.00000
    H34      Z    -0.00012   0.00003  -0.00005
    H35      X    -0.00006   0.00002  -0.00002
    H35      Y     0.00014  -0.00027   0.00018
    H35      Z     0.00008  -0.00022   0.00017
    H36      X     0.00026  -0.00018  -0.00007
    H36      Y    -0.00026   0.00011   0.00005
    H36      Z     0.00011  -0.00008  -0.00004
    H37      X     0.00021  -0.00001   0.00003
    H37      Y     0.00010  -0.00000   0.00004
    H37      Z     0.00002  -0.00009  -0.00001
    H38      X     0.00013  -0.00006   0.00010
    H38      Y    -0.00000  -0.00003  -0.00001
    H38      Z     0.00039  -0.00023   0.00016
    H39      X    -0.00003   0.00012  -0.00007
    H39      Y    -0.00002   0.00007   0.00001
    H39      Z     0.00006  -0.00013   0.00007
    H40      X     0.00003  -0.00005  -0.00017
    H40      Y    -0.00006   0.00002   0.00011
    H40      Z    -0.00004  -0.00003  -0.00009
    H41      X    -0.00005   0.00019   0.00015
    H41      Y    -0.00006   0.00002   0.00003
    H41      Z    -0.00030  -0.00034  -0.00059
    H42      X     0.00080  -0.00022  -0.00008
    H42      Y     0.00107  -0.00018   0.00002
    H42      Z    -0.00074   0.00032   0.00019
    H43      X     0.00012  -0.00030  -0.00001
    H43      Y    -0.00024   0.00008   0.00007
    H43      Z     0.00015  -0.00017  -0.00001
    H44      X     0.00518  -0.00004   0.00012
    H44      Y    -0.01408  -0.00011  -0.00100
    H44      Z    -0.01220  -0.00005  -0.00143
    H45      X    -0.00088  -0.00008  -0.00013
    H45      Y     0.00070  -0.00010   0.00012
    H45      Z    -0.00213   0.00013  -0.00007
    H46      X     0.00169   0.00005  -0.00013
    H46      Y    -0.00859  -0.00042   0.00087
    H46      Z     0.00752  -0.00000   0.00035
    H47      X     0.00150  -0.00002  -0.00006
    H47      Y     0.00070  -0.00001  -0.00006
    H47      Z    -0.00163   0.00011   0.00007
    H48      X    -0.00007   0.00004   0.00003
    H48      Y    -0.00023  -0.00028   0.00031
    H48      Z    -0.00003  -0.00001   0.00006
    H49      X     0.00048  -0.00016  -0.00010
    H49      Y    -0.00010  -0.00008   0.00005
    H49      Z     0.00050  -0.00034  -0.00001
    N118     X    -0.00012  -0.05440  -0.01629
    N118     Y    -0.00012  -0.01162   0.07685
    N118     Z     0.00004   0.00988   0.00422
    H119     X     0.00095   0.25184  -0.26399
    H119     Y     0.00197   0.63661  -0.61803
    H119     Z    -0.00032  -0.05200   0.06595
    H120     X     0.00063   0.48897   0.48532
    H120     Y    -0.00049  -0.47336  -0.44652
    H120     Z    -0.00003  -0.11504  -0.12364
    C121     X    -0.00000   0.00035   0.00023
    C121     Y     0.00000  -0.00012  -0.00001
    C121     Z     0.00000   0.00081   0.00013
    C122     X     0.00001   0.00012   0.00001
    C122     Y     0.00000   0.00004  -0.00010
    C122     Z     0.00000   0.00007  -0.00003
    C123     X    -0.00001   0.00064   0.00011
    C123     Y    -0.00003   0.00002  -0.00020
    C123     Z    -0.00001   0.00046   0.00012
    C124     X     0.00000   0.00065   0.00010
    C124     Y    -0.00000  -0.00002  -0.00039
    C124     Z     0.00000   0.00046  -0.00017
    C125     X     0.00000  -0.00008  -0.00007
    C125     Y     0.00001  -0.00011   0.00006
    C125     Z     0.00000  -0.00020  -0.00009
    C126     X     0.00001  -0.00016   0.00008
    C126     Y    -0.00001   0.00008   0.00004
    C126     Z     0.00000  -0.00020   0.00011
    H127     X     0.00011  -0.00106   0.00096
    H127     Y     0.00037  -0.00019  -0.00039
    H127     Z     0.00014  -0.00001   0.00005
    H128     X    -0.00000  -0.00249  -0.00182
    H128     Y     0.00001   0.00111   0.00069
    H128     Z     0.00000  -0.00041  -0.00039
    H129     X    -0.00002   0.00043  -0.00002
    H129     Y    -0.00007   0.00157  -0.00019
    H129     Z    -0.00003   0.00086  -0.00004
    H130     X    -0.00005   0.00131  -0.00010
    H130     Y     0.00006  -0.00149   0.00003
    H130     Z    -0.00001   0.00054  -0.00006
    H131     X    -0.00007  -0.00032  -0.00003
    H131     Y    -0.00002  -0.00010  -0.00002
    H131     Z    -0.00005   0.00029  -0.00001
    Br3      X     0.00001  -0.00001  -0.00002
    Br3      Y    -0.00001   0.00002   0.00003
    Br3      Z     0.00001   0.00002   0.00002
  
  Number of imaginary frequencies:   0
   
  Writing vibrational animation data to L_Ar_Br_N_N_trans_PL139.vib
  Writing IR vibrational spectrum data to L_Ar_Br_N_N_trans_PL139_vib.spm
  rotational symmetry number:  1

  rotational temperatures (K):      0.005294      0.003933      0.003492
   
  The Quasi-Harmonic approximation will be applied to compute
  vibrational constributions to thermodynamic properties.
  Frequencies will be adjusted to a minimum value of  100.00 cm^-1.

  vibrational temperatures:
       mode:      1        2        3        4        5        6
  temp. (K):   143.88   143.88   143.88   143.88   143.88   143.88
   
       mode:      7        8        9       10       11       12
  temp. (K):   143.88   143.88   143.88   143.88   143.88   157.48
   
       mode:     13       14       15       16       17       18
  temp. (K):   161.53   172.33   175.79   183.84   190.53   202.64
   
       mode:     19       20       21       22       23       24
  temp. (K):   209.39   217.07   227.45   235.88   258.45   272.52
   
       mode:     25       26       27       28       29       30
  temp. (K):   293.77   298.70   311.17   320.50   335.44   348.12
   
       mode:     31       32       33       34       35       36
  temp. (K):   359.48   373.16   390.10   410.16   414.56   422.89
   
       mode:     37       38       39       40       41       42
  temp. (K):   450.13   465.74   476.32   519.49   531.26   533.12
   
       mode:     43       44       45       46       47       48
  temp. (K):   547.82   559.63   573.40   577.22   584.41   593.44
   
       mode:     49       50       51       52       53       54
  temp. (K):   599.09   608.66   620.01   627.60   642.86   648.78
   
       mode:     55       56       57       58       59       60
  temp. (K):   713.22   739.03   757.22   762.12   783.38   785.60
   
       mode:     61       62       63       64       65       66
  temp. (K):   807.49   822.61   837.62   843.87   860.06   899.79
   
       mode:     67       68       69       70       71       72
  temp. (K):   901.62   912.82   919.07   929.55   988.36  1022.78
   
       mode:     73       74       75       76       77       78
  temp. (K):  1024.79  1049.63  1098.07  1109.78  1117.15  1122.93
   
       mode:     79       80       81       82       83       84
  temp. (K):  1157.02  1184.46  1191.08  1193.48  1197.46  1203.82
   
       mode:     85       86       87       88       89       90
  temp. (K):  1205.63  1221.53  1257.27  1310.49  1320.52  1353.58
   
       mode:     91       92       93       94       95       96
  temp. (K):  1368.20  1370.15  1374.64  1378.27  1390.96  1393.78
   
       mode:     97       98       99      100      101      102
  temp. (K):  1408.91  1417.67  1426.89  1430.80  1443.67  1447.00
   
       mode:    103      104      105      106      107      108
  temp. (K):  1464.29  1467.41  1467.94  1469.46  1479.17  1480.07
   
       mode:    109      110      111      112      113      114
  temp. (K):  1506.20  1510.95  1520.05  1525.91  1533.71  1534.50
   
       mode:    115      116      117      118      119      120
  temp. (K):  1536.93  1544.63  1546.52  1598.70  1609.55  1614.81
   
       mode:    121      122      123      124      125      126
  temp. (K):  1626.70  1677.38  1695.30  1725.49  1729.32  1731.65
   
       mode:    127      128      129      130      131      132
  temp. (K):  1732.42  1740.44  1748.70  1758.61  1766.13  1770.62
   
       mode:    133      134      135      136      137      138
  temp. (K):  1775.15  1789.71  1802.95  1840.69  1848.31  1853.70
   
       mode:    139      140      141      142      143      144
  temp. (K):  1881.82  1902.19  1926.25  1933.15  1947.43  1985.53
   
       mode:    145      146      147      148      149      150
  temp. (K):  1987.84  2012.42  2046.90  2053.87  2055.32  2057.61
   
       mode:    151      152      153      154      155      156
  temp. (K):  2062.38  2097.98  2112.08  2113.97  2141.61  2160.04
   
       mode:    157      158      159      160      161      162
  temp. (K):  2164.83  2166.76  2178.52  2180.79  2186.61  2190.52
   
       mode:    163      164      165      166      167      168
  temp. (K):  2191.25  2200.84  2204.76  2205.77  2214.42  2221.32
   
       mode:    169      170      171      172      173      174
  temp. (K):  2223.80  2233.59  2235.31  2249.70  2335.68  2360.16
   
       mode:    175      176      177      178      179      180
  temp. (K):  2363.53  2377.89  2386.36  2401.52  2403.74  2415.78
   
       mode:    181      182      183      184      185      186
  temp. (K):  2431.58  4378.74  4389.75  4391.07  4393.05  4398.12
   
       mode:    187      188      189      190      191      192
  temp. (K):  4402.54  4474.02  4495.32  4498.77  4503.66  4513.58
   
       mode:    193      194      195      196      197      198
  temp. (K):  4519.22  4548.18  4565.70  4570.80  4581.85  4583.37
   
       mode:    199      200      201      202      203      204
  temp. (K):  4586.62  4589.93  4590.95  4594.81  4601.02  4608.18
   
       mode:    205      206      207      208      209      210
  temp. (K):  4608.39  4614.04  4616.10  4623.00  4625.03  4625.48
   
       mode:    211      212      213      214      215      216
  temp. (K):  4629.17  4635.90  4640.34  4647.34  4689.85  4716.39
   
       mode:    217      218      219
  temp. (K):  4774.77  4981.17  5096.47
   
   
  Thermodynamic properties calculated assuming an ideal gas

  In the table below, the units for temperature
  are kelvins, the units for U, H, and G are
  kcal/mol and the units for Cv and S are cal/(mol K)

  The zero point energy (ZPE):    396.120 kcal/mol
  is not included in U, H, or G in the table below
  
 
  =============================================================================
  Thermodynamic properties for P = 1.00E+00 atm, calculated at   1 temperatures


  T =   298.15 K, P = 1.00E+00 atm
   
                  U         Cv          S          H          G        ln(Q)
              =========  =========  =========  =========  =========  =========
  trans.          0.889      2.981     45.393      1.481    -12.053   20.34249
  rot.            0.889      2.981     37.433      0.889    -10.272   17.33724
  vib.           21.426    141.701    129.538     21.426    -17.196   29.02273
  elec.           0.000      0.000      0.000      0.000      0.000    0.00000
  ----------------------------------------------------------------------------
  total          23.204    147.662    212.364     23.796    -39.520   66.70246
   
   Total internal energy, Utot(SCFE + ZPE + U):   -1877.190965 hartrees
   Total enthalpy, Htot (Utot + nRT), with n=1:   -1877.190021 hartrees
    Total Gibbs free energy, Gtot (Htot - T*S):   -1877.290922 hartrees
   
  end of program freq
   
 Time(freq)  user:       0.963  user+sys:       0.963  wallclock:       0.440
  
  start of program post
  
  Writing input files for PBF
  end of program post
   
 Time(post)  user:       0.247  user+sys:       0.247  wallclock:       0.109

 Total cpu seconds     user:  107065.578   user+sys:  107065.578
  
 Total elapsed time:    12733 seconds

Job L_Ar_Br_N_N_trans_PL139 completed on bp1-compute088 at Tue Dec  2 21:46:31 2025
