Job L_Ar_NaOtBu_Br_O_trans_PL139 started on bp1-compute093 at Mon Nov 24 12:33:57 2025
jobid: bp1-compute093-0-692450af

  +--------------------------------------------------------------------+
  |  Jaguar version 12.5, release 138                                  |
  |                                                                    |
  |  Copyright Schrodinger, Inc.                                       |
  |  All Rights Reserved.                                              |
  |                                                                    |
  |  The following have contributed to Jaguar (listed alphabetically): |
  |  Ty Balduf, Mike Beachy, Chandler Bennett, Art Bochevarov,         |
  |  Dale Braden, Yixiang Cao, Alan Chien, Chris Cortis,               |
  |  Rich Friesner, Jim Furness, Bill Goddard, Hod Greeley,            |
  |  Tom Hughes, Leif Jacobson, Jean-Marc Langlois, Daniel Levine,     |
  |  Rob Murphy, Dean Philipp, Tom Pollard, Murco Ringnalda,           |
  |  Daniel Mainz, Pablo Videla, Mark Watson, Haoyu Yu.                |
  |                                                                    |
  |  Use of this program should be acknowledged in publications as:    |
  |                                                                    |
  |  Jaguar, version 12.5, Schrodinger, Inc., New York, NY, 2024.      |
  |                                                                    |
  |  A. D. Bochevarov, E. Harder, T. F. Hughes, J. R. Greenwood,       |
  |  D. A. Braden, D. M. Philipp, D. Rinaldo, M. D. Halls,             |
  |  J. Zhang, R. A. Friesner, "Jaguar: A High-Performance Quantum     |
  |  Chemistry Software Program with Strengths in Life and Materials   |
  |  Sciences", Int. J. Quantum Chem., 2013, 113(18), 2110-2142.       |
  +--------------------------------------------------------------------+
  
  start of program pre
  
  Job name: L_Ar_NaOtBu_Br_O_trans_PL139
  Executables used: /software/local/apps/schrodinger2024-3/jaguar-v12.5/bin/Linux-x86_64
  Temporary files : /tmp/ar21627/L_Ar_NaOtBu_Br_O_trans_PL139#bp1-compute093-0-692450af
  Basis file : using default basis file from /software/local/apps/schrodinger2024-3
  Maestro file (input):  L_Ar_NaOtBu_Br_O_trans_PL139.mae
  Maestro file (output): L_Ar_NaOtBu_Br_O_trans_PL139.01.mae
  
 Contents of input file: &gen and (if present) &atomic sections only
 ----------------Contents start----------------
&gen
dftname=b3pw91-d3
basis=6-31G*
numd=5
ip11=2
iaccg=3
isolv=2
igeopt=1
solvent=benzene
ifreq=1
&
&atomic
atom basis
Pd2 lacv3p*
Br117 lacv3p*
&
 -----------------Contents end-----------------
 
  PS calculation requested. Using PS version of 6-31g*
  basis set:               non_standard                    
  net molecular charge:    0
  multiplicity:            1
  
  Using up to  18 threads per process
  
  This run will use ECP on            2  atoms
  number of basis functions....          604
  
 Input geometry:
                                   angstroms
  atom               x                 y                 z
  P1            0.0000000000      0.0000000000      0.0000000000 
  Pd2           0.0000000000      0.0000000000      2.2637889133 
  C73           4.5787692046      0.6629355515      3.0724950138 
  C74           3.6809177137      1.6760725275      2.7659457622 
  C75           2.3745410338      1.3241879134      2.4168512108 
  C76           1.9715774225     -0.0186490433      2.4088933252 
  C77           2.9054797245     -1.0147016115      2.6945072780 
  C78           4.2163734877     -0.6766076387      3.0346154796 
  F79           5.8452789387      0.9878838705      3.4014618175 
  H80           4.0049352455      2.7129556705      2.7882143033 
  H81           1.6724424048      2.1197408814      2.1628410492 
  H82           2.6322716338     -2.0621626206      2.6457375196 
  H83           4.9543206995     -1.4390465202      3.2689797636 
  C3            0.6184162624     -1.5795151182     -0.7415223956 
  C4            1.0026478227      1.4936066607     -0.7102616146 
  C5           -1.8177269511      0.0906292279     -0.6276265491 
  C6            0.6500030810     -3.0658726206      1.4083120239 
  C7            1.7547091471     -3.6229611333      2.0723154407 
  C8            1.7323197456     -3.8513843997      3.4444791599 
  C9            0.5931596662     -3.5419215768      4.1865760864 
  C10          -0.5261998318     -3.0254577145      3.5394671604 
  C11          -0.4986999391     -2.7915029155      2.1619543631 
  C12           0.7791475434     -2.8183615536     -0.0573470454 
  C13           1.1994013105     -3.9337633531     -0.8082843786 
  C14           1.4742077764     -3.8680557430     -2.1680032895 
  C15           1.3385070883     -2.6506831588     -2.8292194619 
  C16           0.9136517230     -1.5364531560     -2.1167049410 
  C17           2.4925553970      1.1360091035     -0.8305899638 
  C18           0.5350000729      2.0354905109     -2.0730790512 
  C19           0.8575652596      2.6317516013      0.3206274443 
  C20          -2.4355103868      1.4282906352     -0.1954125697 
  C21          -2.6161863778     -1.0521898304      0.0170820558 
  C22          -1.9501799961     -0.0995603517     -2.1494723262 
  H23           2.6595392083     -3.8408194796      1.5091738419 
  H24           2.6132376525     -4.2584004260      3.9355482448 
  H25           0.5765698911     -3.7072946530      5.2613788548 
  H26          -1.4257621931     -2.7786636449      4.0962058728 
  H27          -1.3989622541     -2.4440950311      1.6757963758 
  H28           1.3021438099     -4.8839977730     -0.2895799849 
  H29           1.7913393826     -4.7600525898     -2.7031601767 
  H30           1.5525861201     -2.5642309094     -3.8918669941 
  H31           0.8021221614     -0.6027649476     -2.6544141902 
  H32           2.6782813654      0.3162694793     -1.5317007749 
  H33           3.0277126870      2.0201331339     -1.2023553999 
  H34           2.9286959744      0.8726631263      0.1334920832 
  H35           0.6459966474      1.3167116823     -2.8904371521 
  H36          -0.4956579651      2.3967825768     -2.0609339571 
  H37           1.1714567463      2.8943145231     -2.3238329621 
  H38           1.3221177716      2.3689716840      1.2752719085 
  H39           1.3653442018      3.5239116776     -0.0693351739 
  H40          -0.1866360198      2.8969539432      0.5139149550 
  H41          -2.3453899243      1.5852036943      0.8839120177 
  H42          -1.9994950717      2.2843097007     -0.7177217327 
  H43          -3.5066016970      1.4120523531     -0.4356326949 
  H44          -2.6786826373     -0.9521458114      1.1030790334 
  H45          -3.6421374813     -1.0165751166     -0.3718317362 
  H46          -2.2028187776     -2.0316017195     -0.2481064383 
  H47          -1.4210808726      0.6448538212     -2.7430739987 
  H48          -1.6235793517     -1.0952761734     -2.4639173292 
  H49          -3.0158427894     -0.0125976429     -2.3999404832 
  C104          0.9113302847      0.2084264440      5.5992584422 
  C105          0.1460327742      0.2142543160      6.9468817839 
  C106          1.8447473505     -1.0141048875      5.6185465229 
  C107          1.7531681632      1.4914771723      5.5403733731 
  H108          0.8287383333      0.1390091022      7.8017830574 
  H109         -0.4129727125      1.1545830757      7.0903562966 
  H110         -0.5434524983     -0.6392318110      7.0027107705 
  H111          2.3574451238      1.6226094471      6.4480640846 
  H112          2.4281539927      1.4641835517      4.6839368664 
  H113          1.0932521080      2.3613357540      5.4293845915 
  H114          2.5209477434     -0.9793790144      6.4833757626 
  H115          1.2698102149     -1.9445912073      5.6717539596 
  H116          2.4527108199     -1.0463148878      4.7150975306 
  Br117        -2.8184944330      0.5229487152      2.8290315090 
  O118         -0.0504589666      0.1669074788      4.5706869245 
  Na119        -2.0473783534      0.8693040437      5.3894623747 
   
  principal moments of inertia:
        amu*angstrom^2:              4771.48595              5595.02260              6752.43108
                g*cm^2:          7.92323785E-37          9.29075245E-37          1.12126742E-36
   
  rotational constants:
               cm^(-1):      0.00353299      0.00301297      0.00249653
                   GHz:      0.10591648      0.09032654      0.07484401
   
  Molecular weight:     674.09 amu
   
  Stoichiometry: NaPdC30PH40BrOF
  Molecular Point Group: C1      
  Point Group used: C1
  
  detected            2  molecular fragments
 
Number of optimization coordinates:   246
Number of independent coordinates:    246
Number of non-redundant coordinates:  222
Number of frozen coordinates:           0
Number of harmonic constraints:         0
 
Number of geometric degrees of freedom:   222
Maximum geometric degrees of freedom:     222
 " " " " " excluding dummy atoms:         222
 
 
  bond lengths (angstroms):
 
 P1      -Pd2     :   2.263789      P1      -C3      :   1.851260
 P1      -C4      :   1.934072      P1      -C5      :   1.925165
 Pd2     -C76     :   1.976998      C73     -C74     :   1.388004
 C73     -C78     :   1.388215      C73     -F79     :   1.348279
 C74     -C75     :   1.397251      C74     -H80     :   1.086559
 C75     -C76     :   1.402018      C75     -H81     :   1.091040
 C76     -C77     :   1.394944      C77     -C78     :   1.395859
 C77     -H82     :   1.083603      C78     -H83     :   1.086649
 C3      -C12     :   1.424314      C3      -C16     :   1.407176
 C4      -C17     :   1.536938      C4      -C18     :   1.539352
 C4      -C19     :   1.542451      C5      -C20     :   1.535514
 C5      -C21     :   1.535976      C5      -C22     :   1.539393
 C6      -C7      :   1.404145      C6      -C11     :   1.400990
 C6      -C12     :   1.492011      C7      -C8      :   1.391227
 C7      -H23     :   1.087800      C8      -C9      :   1.394332
 C8      -H24     :   1.087579      C9      -C10     :   1.392283
 C9      -H25     :   1.087577      C10     -C11     :   1.397509
 C10     -H26     :   1.086314      C11     -H27     :   1.080516
 C12     -C13     :   1.408773      C13     -C14     :   1.388766
 C13     -H28     :   1.087454      C14     -C15     :   1.391983
 C14     -H29     :   1.087485      C15     -C16     :   1.389132
 C15     -H30     :   1.087439      C16     -H31     :   1.083210
 C17     -H32     :   1.094543      C17     -H33     :   1.098307
 C17     -H34     :   1.090424      C18     -H35     :   1.094092
 C18     -H36     :   1.092216      C18     -H37     :   1.097968
 C19     -H38     :   1.093713      C19     -H39     :   1.098117
 C19     -H40     :   1.094554      C20     -H41     :   1.094388
 C20     -H42     :   1.093474      C20     -H43     :   1.097819
 C21     -H44     :   1.092385      C21     -H45     :   1.097770
 C21     -H46     :   1.095648      C22     -H47     :   1.089248
 C22     -H48     :   1.094072      C22     -H49     :   1.098150
 C104    -C105    :   1.549775      C104    -C106    :   1.538253
 C104    -C107    :   1.535701      C104    -O118    :   1.408802
 C105    -H108    :   1.096633      C105    -H109    :   1.103309
 C105    -H110    :   1.098611      C106    -H114    :   1.098354
 C106    -H115    :   1.095075      C106    -H116    :   1.089439
 C107    -H111    :   1.098294      C107    -H112    :   1.090795
 C107    -H113    :   1.097480      Br117   -Na119   :   2.696366
 O118    -Na119   :   2.269679
 
  bond angles:
 
 C3      -P1      -Pd2     : 113.612578  C4      -P1      -Pd2     : 111.545277
 C4      -P1      -C3      : 109.793279  C5      -P1      -Pd2     : 109.026888
 C5      -P1      -C3      : 103.002342  C5      -P1      -C4      : 109.475473
 C76     -Pd2     -P1      :  94.209085  C78     -C73     -C74     : 121.967640
 F79     -C73     -C74     : 119.051949  F79     -C73     -C78     : 118.975572
 C75     -C74     -C73     : 118.434217  H80     -C74     -C73     : 119.942306
 H80     -C74     -C75     : 121.618309  C76     -C75     -C74     : 120.753943
 H81     -C75     -C74     : 118.437076  H81     -C75     -C76     : 120.804628
 C75     -C76     -Pd2     : 106.141509  C77     -C76     -Pd2     : 133.584105
 C77     -C76     -C75     : 119.361542  C78     -C77     -C76     : 120.376302
 H82     -C77     -C76     : 120.811504  H82     -C77     -C78     : 118.808379
 C77     -C78     -C73     : 119.047187  H83     -C78     -C73     : 119.595665
 H83     -C78     -C77     : 121.357148  C12     -C3      -P1      : 125.972783
 C16     -C3      -P1      : 115.812015  C16     -C3      -C12     : 118.188465
 C17     -C4      -P1      : 110.586417  C18     -C4      -P1      : 116.070809
 C18     -C4      -C17     : 107.883996  C19     -C4      -P1      : 105.999774
 C19     -C4      -C17     : 108.372203  C19     -C4      -C18     : 107.660370
 C20     -C5      -P1      : 109.215503  C21     -C5      -P1      : 108.600149
 C21     -C5      -C20     : 108.715597  C22     -C5      -P1      : 113.435731
 C22     -C5      -C20     : 110.565719  C22     -C5      -C21     : 106.158878
 C11     -C6      -C7      : 117.929587  C12     -C6      -C7      : 117.532633
 C12     -C6      -C11     : 124.535491  C8      -C7      -C6      : 121.257695
 H23     -C7      -C6      : 119.279050  H23     -C7      -C8      : 119.412830
 C9      -C8      -C7      : 120.108494  H24     -C8      -C7      : 119.587286
 H24     -C8      -C9      : 120.297963  C10     -C9      -C8      : 119.459141
 H25     -C9      -C8      : 120.310581  H25     -C9      -C10     : 120.229489
 C11     -C10     -C9      : 120.292302  H26     -C10     -C9      : 120.785938
 H26     -C10     -C11     : 118.909768  C10     -C11     -C6      : 120.903071
 H27     -C11     -C6      : 120.269892  H27     -C11     -C10     : 118.745742
 C6      -C12     -C3      : 127.329058  C13     -C12     -C3      : 117.792427
 C13     -C12     -C6      : 114.715019  C14     -C13     -C12     : 122.919698
 H28     -C13     -C12     : 117.760421  H28     -C13     -C14     : 119.318308
 C15     -C14     -C13     : 119.154737  H29     -C14     -C13     : 120.046907
 H29     -C14     -C15     : 120.798350  C16     -C15     -C14     : 119.186797
 H30     -C15     -C14     : 120.965655  H30     -C15     -C16     : 119.845893
 C15     -C16     -C3      : 122.743628  H31     -C16     -C3      : 119.333523
 H31     -C16     -C15     : 117.921443  H32     -C17     -C4      : 112.885703
 H33     -C17     -C4      : 108.152753  H33     -C17     -H32     : 107.660915
 H34     -C17     -C4      : 112.006127  H34     -C17     -H32     : 108.517346
 H34     -C17     -H33     : 107.385053  H35     -C18     -C4      : 113.534790
 H36     -C18     -C4      : 113.158312  H36     -C18     -H35     : 108.744949
 H37     -C18     -C4      : 107.543960  H37     -C18     -H35     : 106.526014
 H37     -C18     -H36     : 106.905646  H38     -C19     -C4      : 111.476832
 H39     -C19     -C4      : 108.581407  H39     -C19     -H38     : 107.984474
 H40     -C19     -C4      : 112.739310  H40     -C19     -H38     : 108.016224
 H40     -C19     -H39     : 107.878397  H41     -C20     -C5      : 111.677271
 H42     -C20     -C5      : 112.773923  H42     -C20     -H41     : 109.026551
 H43     -C20     -C5      : 108.545492  H43     -C20     -H41     : 107.353592
 H43     -C20     -H42     : 107.223221  H44     -C21     -C5      : 112.264557
 H45     -C21     -C5      : 108.239362  H45     -C21     -H44     : 107.203449
 H46     -C21     -C5      : 111.554274  H46     -C21     -H44     : 110.125305
 H46     -C21     -H45     : 107.208595  H47     -C22     -C5      : 114.363387
 H48     -C22     -C5      : 111.770403  H48     -C22     -H47     : 108.684073
 H49     -C22     -C5      : 107.409267  H49     -C22     -H47     : 107.035261
 H49     -C22     -H48     : 107.229844  C106    -C104    -C105    : 106.961678
 C107    -C104    -C105    : 107.511529  C107    -C104    -C106    : 109.380883
 O118    -C104    -C105    : 107.328804  O118    -C104    -C106    : 113.578010
 O118    -C104    -C107    : 111.769213  H108    -C105    -C104    : 111.728155
 H109    -C105    -C104    : 111.498629  H109    -C105    -H108    : 105.814572
 H110    -C105    -C104    : 110.559683  H110    -C105    -H108    : 107.324764
 H110    -C105    -H109    : 109.726413  H114    -C106    -C104    : 110.997273
 H115    -C106    -C104    : 110.936158  H115    -C106    -H114    : 108.169870
 H116    -C106    -C104    : 110.592976  H116    -C106    -H114    : 108.079355
 H116    -C106    -H115    : 107.948374  H111    -C107    -C104    : 111.695232
 H112    -C107    -C104    : 110.390348  H112    -C107    -H111    : 108.144566
 H113    -C107    -C104    : 109.661201  H113    -C107    -H111    : 108.649653
 H113    -C107    -H112    : 108.210913  Na119   -O118    -C104    : 109.156817
 O118    -Na119   -Br117   :  82.490227
 
  torsional angles:
 
 P1      -Pd2     -C76     -C75     :  89.119049
 P1      -Pd2     -C76     -C77     :-102.320570
 P1      -C3      -C12     -C6      :  -8.137436
 P1      -C3      -C12     -C13     : 176.781218
 P1      -C3      -C16     -C15     :-177.521632
 P1      -C3      -C16     -H31     :   2.037844
 P1      -C4      -C17     -H32     :  62.972465
 P1      -C4      -C17     -H33     :-178.018035
 P1      -C4      -C17     -H34     : -59.875938
 P1      -C4      -C18     -H35     : -64.395787
 P1      -C4      -C18     -H36     :  60.182148
 P1      -C4      -C18     -H37     : 178.017854
 P1      -C4      -C19     -H38     :  64.378656
 P1      -C4      -C19     -H39     :-176.784912
 P1      -C4      -C19     -H40     : -57.307950
 P1      -C5      -C20     -H41     : -54.136107
 P1      -C5      -C20     -H42     :  69.049618
 P1      -C5      -C20     -H43     :-172.293550
 P1      -C5      -C21     -H44     :  63.845273
 P1      -C5      -C21     -H45     :-178.028361
 P1      -C5      -C21     -H46     : -60.311984
 P1      -C5      -C22     -H47     : -60.397404
 P1      -C5      -C22     -H48     :  63.625909
 P1      -C5      -C22     -H49     :-179.019699
 Pd2     -P1      -C3      -C12     :  15.187706
 Pd2     -P1      -C3      -C16     :-166.737517
 Pd2     -P1      -C4      -C17     :  86.652955
 Pd2     -P1      -C4      -C18     :-150.050927
 Pd2     -P1      -C4      -C19     : -30.602457
 Pd2     -P1      -C5      -C20     :  64.182416
 Pd2     -P1      -C5      -C21     : -54.230774
 Pd2     -P1      -C5      -C22     :-172.000787
 Pd2     -C76     -C75     -C74     : 167.588108
 Pd2     -C76     -C75     -H81     : -11.641067
 Pd2     -C76     -C77     -C78     :-164.964592
 Pd2     -C76     -C77     -H82     :  15.754459
 C73     -C74     -C75     -C76     :   1.563624
 C73     -C74     -C75     -H81     :-179.189298
 C73     -C78     -C77     -C76     :  -0.569962
 C73     -C78     -C77     -H82     : 178.725249
 C74     -C73     -C78     -C77     :  -0.822178
 C74     -C73     -C78     -H83     : 179.176538
 C74     -C75     -C76     -C77     :  -2.923851
 C75     -C74     -C73     -C78     :   0.325901
 C75     -C74     -C73     -F79     : 179.517055
 C75     -C76     -C77     -C78     :   2.408789
 C75     -C76     -C77     -H82     :-176.872160
 C76     -Pd2     -P1      -C3      :  68.076580
 C76     -Pd2     -P1      -C4      : -56.668753
 C76     -Pd2     -P1      -C5      :-177.687621
 C76     -C75     -C74     -H80     :-179.264184
 C76     -C77     -C78     -H83     : 179.431346
 C77     -C76     -C75     -H81     : 177.846973
 C77     -C78     -C73     -F79     : 179.986070
 C78     -C73     -C74     -H80     :-178.860592
 F79     -C73     -C74     -H80     :   0.330562
 F79     -C73     -C78     -H83     :  -0.015214
 H80     -C74     -C75     -H81     :  -0.017106
 H82     -C77     -C78     -H83     :  -1.273443
 C3      -P1      -C4      -C17     : -40.200646
 C3      -P1      -C4      -C18     :  83.095472
 C3      -P1      -C4      -C19     :-157.456058
 C3      -P1      -C5      -C20     :-174.855005
 C3      -P1      -C5      -C21     :  66.731806
 C3      -P1      -C5      -C22     : -51.038207
 C3      -C12     -C6      -C7      :-122.679077
 C3      -C12     -C6      -C11     :  57.884212
 C3      -C12     -C13     -C14     :   0.776624
 C3      -C12     -C13     -H28     :-178.763369
 C3      -C16     -C15     -C14     :   0.386096
 C3      -C16     -C15     -H30     : 179.922753
 C4      -P1      -C3      -C12     : 140.869577
 C4      -P1      -C3      -C16     : -41.055646
 C4      -P1      -C5      -C20     : -58.092825
 C4      -P1      -C5      -C21     :-176.506014
 C4      -P1      -C5      -C22     :  65.723973
 C5      -P1      -C3      -C12     :-102.594174
 C5      -P1      -C3      -C16     :  75.480603
 C5      -P1      -C4      -C17     :-152.590068
 C5      -P1      -C4      -C18     : -29.293951
 C5      -P1      -C4      -C19     :  90.154520
 C6      -C7      -C8      -C9      :   0.790764
 C6      -C7      -C8      -H24     :-178.302058
 C6      -C11     -C10     -C9      :  -0.207439
 C6      -C11     -C10     -H26     : 178.542823
 C6      -C12     -C3      -C16     : 173.828931
 C6      -C12     -C13     -C14     :-174.919075
 C6      -C12     -C13     -H28     :   5.540932
 C7      -C6      -C11     -C10     :   2.040474
 C7      -C6      -C11     -H27     :-174.639804
 C7      -C6      -C12     -C13     :  52.531204
 C7      -C8      -C9      -C10     :   1.104693
 C7      -C8      -C9      -H25     :-179.217549
 C8      -C7      -C6      -C11     :  -2.337504
 C8      -C7      -C6      -C12     : 178.187690
 C8      -C9      -C10     -C11     :  -1.392881
 C8      -C9      -C10     -H26     : 179.880568
 C9      -C8      -C7      -H23     : 178.189248
 C9      -C10     -C11     -H27     : 176.522502
 C10     -C9      -C8      -H24     :-179.808991
 C10     -C11     -C6      -C12     :-178.524870
 C11     -C6      -C7      -H23     :-179.739404
 C11     -C6      -C12     -C13     :-126.905508
 C11     -C10     -C9      -H25     : 178.929094
 C12     -C3      -C16     -C15     :   0.710689
 C12     -C3      -C16     -H31     :-179.729834
 C12     -C6      -C7      -H23     :   0.785791
 C12     -C6      -C11     -H27     :   4.794852
 C12     -C13     -C14     -C15     :   0.315150
 C12     -C13     -C14     -H29     :-179.709809
 C13     -C12     -C3      -C16     :  -1.252415
 C13     -C14     -C15     -C16     :  -0.896212
 C13     -C14     -C15     -H30     : 179.572476
 C14     -C15     -C16     -H31     :-179.179268
 C15     -C14     -C13     -H28     : 179.848290
 C16     -C15     -C14     -H29     : 179.128940
 C17     -C4      -C18     -H35     :  60.298740
 C17     -C4      -C18     -H36     :-175.123325
 C17     -C4      -C18     -H37     : -57.287619
 C17     -C4      -C19     -H38     : -54.350318
 C17     -C4      -C19     -H39     :  64.486114
 C17     -C4      -C19     -H40     :-176.036924
 C18     -C4      -C17     -H32     : -64.942920
 C18     -C4      -C17     -H33     :  54.066580
 C18     -C4      -C17     -H34     : 172.208677
 C18     -C4      -C19     -H38     :-170.794610
 C18     -C4      -C19     -H39     : -51.958178
 C18     -C4      -C19     -H40     :  67.518784
 C19     -C4      -C17     -H32     : 178.757361
 C19     -C4      -C17     -H33     : -62.233139
 C19     -C4      -C17     -H34     :  55.908958
 C19     -C4      -C18     -H35     : 177.062164
 C19     -C4      -C18     -H36     : -58.359901
 C19     -C4      -C18     -H37     :  59.475805
 C20     -C5      -C21     -H44     : -54.883393
 C20     -C5      -C21     -H45     :  63.242973
 C20     -C5      -C21     -H46     :-179.040650
 C20     -C5      -C22     -H47     :  62.679810
 C20     -C5      -C22     -H48     :-173.296878
 C20     -C5      -C22     -H49     : -55.942486
 C21     -C5      -C20     -H41     :  64.204917
 C21     -C5      -C20     -H42     :-172.609358
 C21     -C5      -C20     -H43     : -53.952526
 C21     -C5      -C22     -H47     :-179.576333
 C21     -C5      -C22     -H48     : -55.553021
 C21     -C5      -C22     -H49     :  61.801372
 C22     -C5      -C20     -H41     :-179.630588
 C22     -C5      -C20     -H42     : -56.444862
 C22     -C5      -C20     -H43     :  62.211969
 C22     -C5      -C21     -H44     :-173.850735
 C22     -C5      -C21     -H45     : -55.724369
 C22     -C5      -C21     -H46     :  61.992008
 H23     -C7      -C8      -H24     :  -0.903574
 H24     -C8      -C9      -H25     :  -0.131232
 H25     -C9      -C10     -H26     :   0.202544
 H26     -C10     -C11     -H27     :  -4.727236
 H28     -C13     -C14     -H29     :  -0.176669
 H29     -C14     -C15     -H30     :  -0.402372
 H30     -C15     -C16     -H31     :   0.357389
 C104    -O118    -Na119   -Br117   : 176.968913
 C105    -C104    -C106    -H114    : -57.079247
 C105    -C104    -C106    -H115    :  63.216639
 C105    -C104    -C106    -H116    :-177.033412
 C105    -C104    -C107    -H111    :  50.916845
 C105    -C104    -C107    -H112    : 171.277752
 C105    -C104    -C107    -H113    : -69.588227
 C105    -C104    -O118    -Na119   :  20.056135
 C106    -C104    -C105    -H108    :  51.751669
 C106    -C104    -C105    -H109    : 169.933730
 C106    -C104    -C105    -H110    : -67.710112
 C106    -C104    -C107    -H111    : -64.886196
 C106    -C104    -C107    -H112    :  55.474712
 C106    -C104    -C107    -H113    : 174.608733
 C106    -C104    -O118    -Na119   : 138.065379
 C107    -C104    -C105    -H108    : -65.637459
 C107    -C104    -C105    -H109    :  52.544602
 C107    -C104    -C105    -H110    : 174.900761
 C107    -C104    -C106    -H114    :  59.073900
 C107    -C104    -C106    -H115    : 179.369786
 C107    -C104    -C106    -H116    : -60.880265
 C107    -C104    -O118    -Na119   : -97.590213
 H108    -C105    -C104    -O118    : 173.976099
 H109    -C105    -C104    -O118    : -67.841841
 H110    -C105    -C104    -O118    :  54.514318
 H111    -C107    -C104    -O118    : 168.453485
 H112    -C107    -C104    -O118    : -71.185607
 H113    -C107    -C104    -O118    :  47.948414
 H114    -C106    -C104    -O118    :-175.300473
 H115    -C106    -C104    -O118    : -55.004587
 H116    -C106    -C104    -O118    :  64.745363
 
  nuclear repulsion energy.......          5064.015671231 hartrees
  
  Detected an organometallic with only one TM atom. 
  
  Oxidation state on metal       2 is     2
  Formal multiplet on metal      2 is     1
  Formal charge on ligand        3 is    -1
  Formal multiplet on ligand     3 is     1
  Formal charge on ligand        4 is    -1
  Formal multiplet on ligand     4 is     1
  
 
  Will use High-Quality Initial guess for organometallics
       including d-d repulsion (iguess=30)
 
 Non-default options chosen:
   SCF calculation type: DFT(b3pw91-d3)              
   DFT=Becke_3_Parameter/HF+Slater+Becke88+PW91+PW-GGAIIC (B3PW91-D3)
   Geometry will be optimized in redundant internal coordinates
   Solvation energy will be computed using PBF
     -solute cavity energy will not be included
     -surface area terms will not be included
   Vibrational frequencies and related properties will be computed
      from analytic second derivatives
   IR intensities will be computed
   Thermochemical properties will be computed
   Maximum number of geometry steps: 100
   Scaling standard convergence criteria by a factor of   5.00
   Solvent: benzene                                                         
   Internal dielectric constant:    1.000
   Continuum dielectric constant:   2.283
   Solvent probe molecule radius:   2.600
  
 Non-default print settings:
     11=  2
  
 Temporary integer options set:
     21= -1  73=  2
  
  atom       vdw   vdw2    cov     mass  grid  daf  charge   basis
  P1        2.147  2.074  1.060   30.974    Y    Y      Y    ps_6-31g*
  Pd2       1.450  1.450  1.280  105.903    Y    Y      Y    lacv3p*
  C73       1.949  1.900  0.770   12.000    Y    Y      Y    ps_6-31g*
  C74       1.949  1.900  0.770   12.000    Y    Y      Y    ps_6-31g*
  C75       1.949  1.900  0.770   12.000    Y    Y      Y    ps_6-31g*
  C76       1.949  1.900  0.770   12.000    Y    Y      Y    ps_6-31g*
  C77       1.949  1.900  0.770   12.000    Y    Y      Y    ps_6-31g*
  C78       1.949  1.900  0.770   12.000    Y    Y      Y    ps_6-31g*
  F79       1.736  1.682  0.720   18.998    Y    Y      Y    ps_6-31g*
  H80       1.597  1.150  0.320    1.008    Y    Y      Y    ps_6-31g*
  H81       1.597  1.150  0.320    1.008    Y    Y      Y    ps_6-31g*
  H82       1.597  1.150  0.320    1.008    Y    Y      Y    ps_6-31g*
  H83       1.597  1.150  0.320    1.008    Y    Y      Y    ps_6-31g*
  C3        1.949  1.900  0.770   12.000    Y    Y      Y    ps_6-31g*
  C4        1.949  1.900  0.770   12.000    Y    Y      Y    ps_6-31g*
  C5        1.949  1.900  0.770   12.000    Y    Y      Y    ps_6-31g*
  C6        1.949  1.900  0.770   12.000    Y    Y      Y    ps_6-31g*
  C7        1.949  1.900  0.770   12.000    Y    Y      Y    ps_6-31g*
  C8        1.949  1.900  0.770   12.000    Y    Y      Y    ps_6-31g*
  C9        1.949  1.900  0.770   12.000    Y    Y      Y    ps_6-31g*
  C10       1.949  1.900  0.770   12.000    Y    Y      Y    ps_6-31g*
  C11       1.949  1.900  0.770   12.000    Y    Y      Y    ps_6-31g*
  C12       1.949  1.900  0.770   12.000    Y    Y      Y    ps_6-31g*
  C13       1.949  1.900  0.770   12.000    Y    Y      Y    ps_6-31g*
  C14       1.949  1.900  0.770   12.000    Y    Y      Y    ps_6-31g*
  C15       1.949  1.900  0.770   12.000    Y    Y      Y    ps_6-31g*
  C16       1.949  1.900  0.770   12.000    Y    Y      Y    ps_6-31g*
  C17       1.949  1.900  0.770   12.000    Y    Y      Y    ps_6-31g*
  C18       1.949  1.900  0.770   12.000    Y    Y      Y    ps_6-31g*
  C19       1.949  1.900  0.770   12.000    Y    Y      Y    ps_6-31g*
  C20       1.949  1.900  0.770   12.000    Y    Y      Y    ps_6-31g*
  C21       1.949  1.900  0.770   12.000    Y    Y      Y    ps_6-31g*
  C22       1.949  1.900  0.770   12.000    Y    Y      Y    ps_6-31g*
  H23       1.597  1.150  0.320    1.008    Y    Y      Y    ps_6-31g*
  H24       1.597  1.150  0.320    1.008    Y    Y      Y    ps_6-31g*
  H25       1.597  1.150  0.320    1.008    Y    Y      Y    ps_6-31g*
  H26       1.597  1.150  0.320    1.008    Y    Y      Y    ps_6-31g*
  H27       1.597  1.150  0.320    1.008    Y    Y      Y    ps_6-31g*
  H28       1.597  1.150  0.320    1.008    Y    Y      Y    ps_6-31g*
  H29       1.597  1.150  0.320    1.008    Y    Y      Y    ps_6-31g*
  H30       1.597  1.150  0.320    1.008    Y    Y      Y    ps_6-31g*
  H31       1.597  1.150  0.320    1.008    Y    Y      Y    ps_6-31g*
  H32       1.597  1.150  0.320    1.008    Y    Y      Y    ps_6-31g*
  H33       1.597  1.150  0.320    1.008    Y    Y      Y    ps_6-31g*
  H34       1.597  1.150  0.320    1.008    Y    Y      Y    ps_6-31g*
  H35       1.597  1.150  0.320    1.008    Y    Y      Y    ps_6-31g*
  H36       1.597  1.150  0.320    1.008    Y    Y      Y    ps_6-31g*
  H37       1.597  1.150  0.320    1.008    Y    Y      Y    ps_6-31g*
  H38       1.597  1.150  0.320    1.008    Y    Y      Y    ps_6-31g*
  H39       1.597  1.150  0.320    1.008    Y    Y      Y    ps_6-31g*
  H40       1.597  1.150  0.320    1.008    Y    Y      Y    ps_6-31g*
  H41       1.597  1.150  0.320    1.008    Y    Y      Y    ps_6-31g*
  H42       1.597  1.150  0.320    1.008    Y    Y      Y    ps_6-31g*
  H43       1.597  1.150  0.320    1.008    Y    Y      Y    ps_6-31g*
  H44       1.597  1.150  0.320    1.008    Y    Y      Y    ps_6-31g*
  H45       1.597  1.150  0.320    1.008    Y    Y      Y    ps_6-31g*
  H46       1.597  1.150  0.320    1.008    Y    Y      Y    ps_6-31g*
  H47       1.597  1.150  0.320    1.008    Y    Y      Y    ps_6-31g*
  H48       1.597  1.150  0.320    1.008    Y    Y      Y    ps_6-31g*
  H49       1.597  1.150  0.320    1.008    Y    Y      Y    ps_6-31g*
  C104      1.949  1.900  0.770   12.000    Y    Y      Y    ps_6-31g*
  C105      1.949  1.900  0.770   12.000    Y    Y      Y    ps_6-31g*
  C106      1.949  1.900  0.770   12.000    Y    Y      Y    ps_6-31g*
  C107      1.949  1.900  0.770   12.000    Y    Y      Y    ps_6-31g*
  H108      1.597  1.150  0.320    1.008    Y    Y      Y    ps_6-31g*
  H109      1.597  1.150  0.320    1.008    Y    Y      Y    ps_6-31g*
  H110      1.597  1.150  0.320    1.008    Y    Y      Y    ps_6-31g*
  H111      1.597  1.150  0.320    1.008    Y    Y      Y    ps_6-31g*
  H112      1.597  1.150  0.320    1.008    Y    Y      Y    ps_6-31g*
  H113      1.597  1.150  0.320    1.008    Y    Y      Y    ps_6-31g*
  H114      1.597  1.150  0.320    1.008    Y    Y      Y    ps_6-31g*
  H115      1.597  1.150  0.320    1.008    Y    Y      Y    ps_6-31g*
  H116      1.597  1.150  0.320    1.008    Y    Y      Y    ps_6-31g*
  Br117     2.095  2.095  1.140   78.918    Y    Y      Y    lav3p*
  O118      1.702  1.600  0.730   15.995    Y    Y      Y    ps_6-31g*
  Na119     2.308  1.492  1.540   22.990    Y    Y      Y    ps_6-31g*
 
  atom      formal  2spin      esp    mulk    frag
  P1           0       0        Y    0.000       0
  Pd2          2       0        Y    0.000       0
  C73         -1       0        Y    0.000       0
  C104        -1       0        Y    0.000       0
  
  end of program pre
   
 Time(pre)  user:       4.221  user+sys:       4.221  wallclock:       1.389
  
  start of program onee
  
  smallest eigenvalue of S:    4.186E-04
  number of canonical orbitals.....          601
  end of program onee
   
 Time(onee)  user:      10.453  user+sys:      10.453  wallclock:       1.879
  
  start of program hfig
  
  initial wavefunction generated automatically from atomic wavefunctions
  Only one state below 0.010000
  Skip d-d repulsion considerations 
 
  Irreducible     Total no   No of occupied orbitals 
  representation  orbitals   Shell_1  Shell_2    ...
  No Symm          601        144
  ------------------------
  Orbital occupation/shell    1.000
 
  end of program hfig
   
 Time(hfig)  user:       2.265  user+sys:       2.265  wallclock:       1.058
  
  start of program probe
  
  end of program probe
   
 Time(probe)  user:       1.317  user+sys:       1.317  wallclock:       0.402
  
  start of program grid
  
   grid     grid set  grid #  grid sym
  ------    --------  ------  --------
  coarse        0        0        1
  medium        2        1        1
  fine          0        0        1
  ultrafine     4        2        1
  charge       -1        3        1
  gradient      4        2        1
  density       0        0        1
  DFT-fine    -11        4        1
  DFT-med.    -10        5        1
  DFT-grad    -12        6        1
  DFT-der2     -8        7        1
  DFT-cphf     -9        8        1
  LMP2-enrg     4        2        1
  LMP2-grad     2        1        1
  DFT-cphf2   -15        9        1
  PBF-dens      0        0        1
  plotting      0        0        1
  Rel-grad    -17        0        1
  
  number of gridpoints: 
     atom           P1         Pd2         C73         C74         C75         C76         C77
  grid # 1         610         351          78          92          93         100          94
  grid # 2         429         309         331         315         313         388         315
  grid # 3           8         218          22           8           6           7          11
  grid # 4        8582        8582        8582        8582        8582        8582        8582
  grid # 5        1192        1192        1192        1192        1192        1192        1192
  grid # 6        9488        9488        6164        6164        6164        6164        6164
  grid # 7       23054       32756       14018       14018       14018       14018       14018
  grid # 8         724        1144         750         750         750         750         750
  grid # 9         380        2168         406         406         406         406         406
   
  number of gridpoints: 
     atom          C78         F79         H80         H81         H82         H83          C3
  grid # 1          92         584         114          84         101         115          95
  grid # 2         318         566         462         376         414         460         382
  grid # 3          19         356         359          89          53         361          14
  grid # 4        8582        8582        8582        8582        8582        8582        8582
  grid # 5        1192        1192        1192        1192        1192        1192        1192
  grid # 6        6164        6164        6164        6164        6164        6164        6164
  grid # 7       14018       23160       15170       15170       15170       15170       14018
  grid # 8         750         778         792         792         792         792         750
  grid # 9         406         424         420         420         420         420         406
   
  number of gridpoints: 
     atom           C4          C5          C6          C7          C8          C9         C10
  grid # 1          88          91          97          92          95          96          96
  grid # 2         372         363         356         309         318         321         325
  grid # 3           6           6          17          19          30          29          30
  grid # 4        8582        8582        8582        8582        8582        8582        8582
  grid # 5        1192        1192        1192        1192        1192        1192        1192
  grid # 6        6164        6164        6164        6164        6164        6164        6164
  grid # 7       14018       14018       14018       14018       14018       14018       14018
  grid # 8         750         750         750         750         750         750         750
  grid # 9         406         406         406         406         406         406         406
   
  number of gridpoints: 
     atom          C11         C12         C13         C14         C15         C16         C17
  grid # 1          96         100          94          97          95          93          81
  grid # 2         326         362         327         324         324         324         235
  grid # 3          27          20          31          48          32          12           6
  grid # 4        8582        8582        8582        8582        8582        8582        8582
  grid # 5        1192        1192        1192        1192        1192        1192        1192
  grid # 6        6164        6164        6164        6164        6164        6164        6164
  grid # 7       14018       14018       14018       14018       14018       14018       14018
  grid # 8         750         750         750         750         750         750         750
  grid # 9         406         406         406         406         406         406         406
   
  number of gridpoints: 
     atom          C18         C19         C20         C21         C22         H23         H24
  grid # 1          81          80          82          81          81         110         116
  grid # 2         236         238         234         236         236         447         461
  grid # 3           6           6           6           6           6         239         350
  grid # 4        8582        8582        8582        8582        8582        8582        8582
  grid # 5        1192        1192        1192        1192        1192        1192        1192
  grid # 6        6164        6164        6164        6164        6164        6164        6164
  grid # 7       14018       14018       14018       14018       14018       15170       15170
  grid # 8         750         750         750         750         750         792         792
  grid # 9         406         406         406         406         406         420         420
   
  number of gridpoints: 
     atom          H25         H26         H27         H28         H29         H30         H31
  grid # 1         108         114         105         115         118         118         101
  grid # 2         445         457         429         453         468         466         421
  grid # 3         282         252         117         312         425         412          83
  grid # 4        8582        8582        8582        8582        8582        8582        8582
  grid # 5        1192        1192        1192        1192        1192        1192        1192
  grid # 6        6164        6164        6164        6164        6164        6164        6164
  grid # 7       15170       15170       15170       15170       15170       15170       15170
  grid # 8         792         792         792         792         792         792         792
  grid # 9         420         420         420         420         420         420         420
   
  number of gridpoints: 
     atom          H32         H33         H34         H35         H36         H37         H38
  grid # 1         106         108         103         100         100         109          90
  grid # 2         440         447         426         427         421         444         370
  grid # 3         204         262         126         168         147         257          40
  grid # 4        8582        8582        8582        8582        8582        8582        8582
  grid # 5        1192        1192        1192        1192        1192        1192        1192
  grid # 6        6164        6164        6164        6164        6164        6164        6164
  grid # 7       15170       15170       15170       15170       15170       15170       15170
  grid # 8         792         792         792         792         792         792         792
  grid # 9         420         420         420         420         420         420         420
   
  number of gridpoints: 
     atom          H39         H40         H41         H42         H43         H44         H45
  grid # 1         108         105          96         101         109          95         109
  grid # 2         445         437         425         425         446         419         445
  grid # 3         255         152          95         156         254          77         261
  grid # 4        8582        8582        8582        8582        8582        8582        8582
  grid # 5        1192        1192        1192        1192        1192        1192        1192
  grid # 6        6164        6164        6164        6164        6164        6164        6164
  grid # 7       15170       15170       15170       15170       15170       15170       15170
  grid # 8         792         792         792         792         792         792         792
  grid # 9         420         420         420         420         420         420         420
   
  number of gridpoints: 
     atom          H46         H47         H48         H49        C104        C105        C106
  grid # 1         102         101         104         108          90          78          81
  grid # 2         430         422         434         445         327         241         239
  grid # 3         177         141         192         266           6           6           6
  grid # 4        8582        8582        8582        8582        8582        8582        8582
  grid # 5        1192        1192        1192        1192        1192        1192        1192
  grid # 6        6164        6164        6164        6164        6164        6164        6164
  grid # 7       15170       15170       15170       15170       14018       14018       14018
  grid # 8         792         792         792         792         750         750         750
  grid # 9         420         420         420         420         406         406         406
   
  number of gridpoints: 
     atom         C107        H108        H109        H110        H111        H112        H113
  grid # 1          81         107         101         103         108         101         108
  grid # 2         240         445         439         443         450         420         450
  grid # 3           6         271         208         224         280          71         243
  grid # 4        8582        8582        8582        8582        8582        8582        8582
  grid # 5        1192        1192        1192        1192        1192        1192        1192
  grid # 6        6164        6164        6164        6164        6164        6164        6164
  grid # 7       14018       15170       15170       15170       15170       15170       15170
  grid # 8         750         792         792         792         792         792         792
  grid # 9         406         420         420         420         420         420         420
   
  number of gridpoints: 
     atom         H114        H115        H116       Br117        O118       Na119       total
  grid # 1         108         101         101         476         114         699        9735
  grid # 2         450         417         413         455         477         653       29498
  grid # 3         267          85          59         181          24         275        9788
  grid # 4        8582        8582        8582        8582        8582        8582      652232
  grid # 5        1192        1192        1192        1192        1192        1192       90592
  grid # 6        6164        6164        6164        9488        6164        9488      481760
  grid # 7       15170       15170       15170       11604       23358       21102     1162374
  grid # 8         792         792         792         714         774         642       58956
  grid # 9         420         420         420         360         412         338       33062
   
  end of program grid
   
 Time(grid)  user:     329.453  user+sys:     329.453  wallclock:      23.078
  
  start of program rwr
  
  end of program rwr
   
 Time(rwr)  user:      60.513  user+sys:      60.513  wallclock:      14.883
  
  start of program scf
  
 number of electrons..........        288
 number of alpha electrons....        144
 number of beta electrons.....        144
 number of orbitals, total....        601
 number of doubly-occ'd orbs..        144
 number of open shell orbs....          0
 number of occupied orbitals..        144
 number of virtual orbitals...        457
 number of hamiltonians.......          1
 number of shells.............          1
 SCF type: DFT=Becke_3_Parameter/HF+Slater+Becke88+PW91+PW-GGAIIC (B3PW91-D3)
 Energy computed using pseudospectral method.
 Convergence Criterion:
    Energy (econv):       1.00E-05
    RMS density (dconv):  5.00E-06
  
       i  u  d  i  g                   
       t  p  i  c  r                                 RMS    maximum
       e  d  i  u  i                       energy  density   DIIS  
       r  t  s  t  d       total energy    change  change    error 
  
etot    1  N  N  5  M   -1980.85727274523           2.1E-03  2.3E-01
etot    2  Y  Y  6  M   -1983.97723771859  3.1E+00  3.2E-03  1.4E-01
etot    3  Y  Y  6  M   -1985.05615688372  1.1E+00  1.2E-03  6.6E-02
etot    4  N  Y  2  U   -1985.22891436018  1.7E-01  7.6E-04  5.1E-02
etot    5  Y  Y  6  M   -1985.33289932024  1.0E-01  4.6E-04  3.5E-02
etot    6  N  Y  2  U   -1985.34924152815  1.6E-02  7.9E-04  2.3E-02
etot    7  Y  Y  6  M   -1985.36476561408  1.6E-02  1.3E-04  7.3E-03
etot    8  N  Y  2  U   -1985.37320142933  8.4E-03  3.7E-05  7.7E-04
etot    9  N  Y  2  U   -1985.37343505424  2.3E-04  1.4E-05  5.6E-04
etot   10  N  Y  2  U   -1985.37345430978  1.9E-05  4.1E-06  1.1E-04
etot   11  N  N  2  U   -1985.37345753856  3.2E-06  0.0E+00  0.0E+00
 
  Computing the dispersion energy correction and its gradients...
  
  
 Energy components, in hartrees:
   (A)  Nuclear repulsion............    5064.01567123092
   (E)  Total one-electron terms.....  -12861.58471764799
   (F)    Electron-nuclear...........  -14747.78039996754
   (H)    Kinetic....................    1886.19568231955
   (I)  Total two-electron terms.....    5812.19558887851
   (J)    Coulomb....................    6061.90628244612
   (K)    Exchange+Correlation.......    -249.71069356761
   (L)  Electronic energy............   -7049.38912876948  (E+I)
   (N0) D3 correction................      -0.16147328836
   (N)  Total energy.................   -1985.53493082692  (A+L+N0)
   (O)  Gas phase energy.............   -1985.53493082692
  
 SCFE: SCF energy: DFT(b3pw91-d3)     -1985.53493082692 hartrees   iterations:  11
  
 
 HOMO energy:    -0.18760
 LUMO energy:    -0.04621
 
  Orbital energies (hartrees): 
   -77.08227   -38.45278   -24.67231   -19.04555   -10.23808   -10.20619
   -10.20106   -10.19888   -10.19618   -10.18886   -10.18655   -10.18406
   -10.18385   -10.18249   -10.18002   -10.17166   -10.17093   -10.16926
   -10.16922   -10.16867   -10.16580   -10.16508   -10.16308   -10.16288
   -10.15847   -10.15411   -10.15387   -10.15187   -10.15180   -10.14585
   -10.13838   -10.13773   -10.11492   -10.11046    -6.58171    -4.73962
    -4.73900    -4.73713    -3.32980    -2.21685    -2.06498    -2.05788
    -2.02818    -1.20574    -1.14597    -1.14482    -1.14289    -0.91014
    -0.87887    -0.85484    -0.85006    -0.82900    -0.80902    -0.78493
    -0.76433    -0.75303    -0.74584    -0.74495    -0.73080    -0.72787
    -0.69983    -0.69139    -0.68830    -0.67712    -0.67469    -0.66801
    -0.65941    -0.65599    -0.62704    -0.61695    -0.61298    -0.59761
    -0.58992    -0.58009    -0.55581    -0.54232    -0.53401    -0.51443
    -0.50968    -0.50027    -0.48518    -0.47409    -0.47118    -0.46930
    -0.46020    -0.45756    -0.45240    -0.44843    -0.44607    -0.44437
    -0.43800    -0.43342    -0.43159    -0.42937    -0.42893    -0.42761
    -0.42480    -0.41824    -0.41680    -0.41438    -0.40355    -0.39157
    -0.38609    -0.38588    -0.37854    -0.37749    -0.37550    -0.37339
    -0.37048    -0.36659    -0.36480    -0.36255    -0.36070    -0.35462
    -0.35132    -0.34766    -0.34452    -0.33930    -0.33846    -0.33617
    -0.33188    -0.32628    -0.32098    -0.31848    -0.31391    -0.31195
    -0.30380    -0.29930    -0.29224    -0.27911    -0.27529    -0.26202
    -0.25901    -0.25499    -0.25222    -0.24027    -0.23623    -0.23336
    -0.23040    -0.22479    -0.21798    -0.20297    -0.19479    -0.18760
    -0.04621    -0.03581    -0.02487    -0.02348    -0.00999     0.00448
     0.00980     0.01881     0.02285     0.03681
 
  end of program scf
   
 Time(scf)  user:     557.739  user+sys:     557.739  wallclock:      54.325
  
  start of program der1a
  
  end of program der1a
   
 Time(der1a)  user:      30.225  user+sys:      30.225  wallclock:       2.645
  
  start of program rwr
  
  end of program rwr
   
 Time(rwr)  user:      36.657  user+sys:      36.657  wallclock:      14.823
  
  start of program der1b
  
   
  forces (hartrees/bohr) : total     
   
 atom  label           x              y              z
 ---- --------   -------------  -------------  -------------
    1 P1         -3.471714E-03  -2.644845E-03   3.232002E-03
    2 Pd2        -1.148623E-02  -3.218108E-03   4.055507E-02
    3 C73         1.607887E-03  -6.317924E-04  -9.007084E-04
    4 C74         9.195025E-04  -3.073469E-04  -6.407355E-03
    5 C75         2.526727E-02  -1.178757E-02   2.471001E-02
    6 C76        -3.203580E-04   1.940338E-02  -1.168829E-02
    7 C77         6.046173E-04   5.151839E-03  -1.047013E-02
    8 C78         1.842934E-03   4.357704E-03  -3.989214E-03
    9 F79         5.414771E-04   3.878156E-04   3.424518E-04
   10 H80         3.346148E-04  -4.833556E-05   9.195316E-04
   11 H81         2.707759E-02  -2.205062E-02   5.542553E-02
   12 H82         3.246639E-03   1.422000E-02   3.047325E-03
   13 H83        -2.553261E-04   7.132306E-05   1.378530E-04
   14 C3          4.016338E-04   9.171656E-04  -2.233272E-03
   15 C4         -1.057907E-03  -4.851704E-04  -2.119391E-03
   16 C5          1.427883E-03  -1.420793E-04  -3.849242E-03
   17 C6          2.477744E-04   3.129264E-04  -1.630992E-03
   18 C7         -6.738238E-03  -1.080417E-02  -3.403423E-03
   19 C8         -6.393325E-03  -1.003113E-02   3.246605E-03
   20 C9         -1.546785E-03  -5.384750E-03  -4.460920E-03
   21 C10         8.443221E-06  -1.323790E-03  -2.130443E-03
   22 C11        -2.361010E-04  -4.679532E-04   3.409604E-03
   23 C12         1.588762E-03   1.579659E-03  -9.653980E-04
   24 C13        -5.148769E-04   5.794772E-04   5.558351E-05
   25 C14        -5.416518E-04   1.414399E-03   4.221492E-04
   26 C15         1.997563E-04  -5.334145E-04   1.868521E-04
   27 C16        -1.967187E-04  -1.885096E-03   4.707197E-04
   28 C17         5.644290E-04  -2.201149E-03  -2.534693E-04
   29 C18         1.275034E-03   3.919344E-04   8.787214E-05
   30 C19        -1.319372E-02   6.992175E-03  -1.565300E-02
   31 C20         3.135971E-03   4.091785E-03  -6.506599E-03
   32 C21         2.281423E-03  -4.903977E-03  -4.076016E-03
   33 C22        -1.546540E-03   1.222885E-04   5.777732E-04
   34 H23        -3.916200E-04  -3.632038E-04  -9.780740E-04
   35 H24        -6.451681E-05   5.580522E-04   1.539969E-04
   36 H25        -7.125059E-04  -2.480284E-03  -2.160689E-03
   37 H26         7.627983E-04   4.032517E-04  -3.201418E-04
   38 H27        -2.237582E-04   8.473511E-04  -7.100100E-04
   39 H28        -7.544303E-05   1.645749E-04  -4.369912E-05
   40 H29        -6.348044E-05   2.589117E-04   1.203440E-04
   41 H30         7.498435E-05  -1.816740E-04   2.714932E-04
   42 H31        -2.301609E-04   2.561816E-04   4.200936E-04
   43 H32        -3.836486E-04   2.603799E-04   3.721775E-05
   44 H33         2.394525E-04   9.151539E-05   1.097321E-04
   45 H34         4.614591E-04  -2.232538E-03  -7.859184E-04
   46 H35        -1.125137E-04  -8.340286E-05   5.919851E-05
   47 H36         3.689966E-04  -5.743535E-04   3.546711E-04
   48 H37         1.161544E-04   1.295225E-04  -2.956072E-04
   49 H38        -2.579522E-02   1.981891E-02  -5.785018E-02
   50 H39         4.393874E-04   6.961494E-04  -2.485372E-04
   51 H40        -5.621153E-04   1.579096E-04  -1.414646E-03
   52 H41         2.239420E-04   3.211586E-03  -9.522628E-03
   53 H42         3.450087E-04  -3.798160E-05  -2.113890E-03
   54 H43        -2.078416E-04  -2.496034E-05   7.782703E-04
   55 H44        -2.458036E-04  -4.272737E-03  -7.293206E-03
   56 H45        -2.790707E-04   2.222934E-04   2.478234E-04
   57 H46         5.975966E-04  -7.547903E-04  -1.597555E-03
   58 H47         1.435914E-04   1.612336E-04  -1.341332E-04
   59 H48         3.108493E-04  -2.198373E-04  -1.168576E-04
   60 H49         1.077144E-05  -1.152492E-04  -4.905776E-04
   61 C104       -4.278118E-03  -2.556772E-04  -3.874767E-03
   62 C105        1.852464E-03  -1.012691E-03   5.597118E-04
   63 C106       -2.268037E-03   3.187481E-04   5.408225E-03
   64 C107        7.615058E-04  -1.020752E-03   2.015929E-03
   65 H108       -7.168622E-04   4.573350E-04   7.191910E-04
   66 H109       -2.989163E-04   1.404091E-03   1.138445E-04
   67 H110       -4.399263E-04  -1.072662E-03  -5.525393E-04
   68 H111        1.200431E-04   4.043202E-04   2.705481E-04
   69 H112       -2.847767E-03   9.247746E-04   5.189182E-03
   70 H113       -2.051025E-04   5.128197E-04  -2.010928E-04
   71 H114        5.689315E-04   5.195423E-04   1.804020E-04
   72 H115        1.290208E-03   6.833783E-03   1.648929E-03
   73 H116       -3.576757E-03  -5.339973E-04   6.063885E-03
   74 Br117       7.705080E-04  -2.378946E-04   2.346970E-02
   75 O118       -1.098673E-03  -9.247914E-04  -8.990608E-03
   76 Na119       9.351540E-03  -4.527119E-03  -8.165817E-03
 -------------   -------------  -------------  -------------
     total       -1.193505E-03  -1.170777E-03  -3.579704E-03
   
  end of program der1b
   
 Time(der1b)  user:     188.630  user+sys:     188.630  wallclock:      16.926
  
  start of program geopt
  
 ----------------------------------------------------------------------------
  Geometry optimization step  1
  Total energy:     -1985.53493082692 hartrees
 ----------------------------------------------------------------------------
  detected            2  molecular fragments
  
  
  Level shifts adjusted to satisfy step-size constraints
   Step size:    0.3000558
   Cos(theta):   0.6053567
   Final level shift:  -3.6785600E-01
  
  gradient maximum:        3.9463E-01 .  (  2.2500E-03 )
  gradient rms:            5.4932E-02 .  (  1.5000E-03 )
  displacement maximum:    1.0886E-01 .  (  9.0000E-03 )
  displacement rms:        1.6940E-02 .  (  6.0000E-03 )
  
  predicted energy change:  -9.0163E-02
  step size:     0.26569
  trust radius:  0.30000
  
  molecular structure not yet converged...
  
  center of mass moved by:
     x:     1.8434E-02     y:     1.6619E-01     z:     1.5548E-01
  
  new geometry: 
                                   angstroms
  atom               x                 y                 z
  P1            0.0127005287      0.0757722683      0.0192093409 
  Pd2           0.0188092797      0.3069676321      2.3047697647 
  C73           4.7087658067      0.8607706374      2.7442420088 
  C74           3.8401765000      1.9001161845      2.4509718096 
  C75           2.4956086763      1.5969742545      2.2241499512 
  C76           2.0146654203      0.2831589734      2.3166104322 
  C77           2.9213416286     -0.7366147328      2.5894857583 
  C78           4.2725850475     -0.4534802719      2.8085044808 
  F79           6.0120724372      1.1346618900      2.9572233303 
  H80           4.2150283095      2.9183021348      2.3914191972 
  H81           1.8175879619      2.4078085772      1.9726904999 
  H82           2.5863249418     -1.7695425241      2.6084465698 
  H83           4.9845869571     -1.2442667511      3.0281341161 
  C3            0.5700220080     -1.5515277946     -0.6660344015 
  C4            0.9587228667      1.4747089666     -0.9241472985 
  C5           -1.7337356668      0.0223094616     -0.7981984949 
  C6            0.5219016288     -3.1163643319      1.4506883522 
  C7            1.5891059001     -3.7738181299      2.0823504234 
  C8            1.5382250010     -4.0962975279      3.4332463555 
  C9            0.4091370293     -3.7781889970      4.1810173413 
  C10          -0.6778623347     -3.1650293794      3.5655590045 
  C11          -0.6217303756     -2.8350563517      2.2104357041 
  C12           0.6721616173     -2.8075860610      0.0014646473 
  C13           1.0336144154     -3.9267264934     -0.7742160881 
  C14           1.3123515283     -3.8555164838     -2.1313442468 
  C15           1.2351776803     -2.6261101041     -2.7733257506 
  C16           0.8635367542     -1.5072169104     -2.0416149632 
  C17           2.4639755779      1.1597036078     -0.9646519244 
  C18           0.5000360446      1.7435149591     -2.3680497806 
  C19           0.7028745490      2.7783228566     -0.1443637497 
  C20          -2.4545218398      1.3606238487     -0.5830680049 
  C21          -2.5340389492     -1.1341960008     -0.1799566908 
  C22          -1.6912581253     -0.3112894858     -2.3005855871 
  H23           2.4863399280     -3.9993573114      1.5098332279 
  H24           2.3913681104     -4.5796560359      3.9034936662 
  H25           0.3735802601     -4.0112142117      5.2423533256 
  H26          -1.5679133488     -2.9106635886      4.1331657362 
  H27          -1.4960392164     -2.4074992772      1.7399119782 
  H28           1.0906297823     -4.8903996928     -0.2737982492 
  H29           1.5834935541     -4.7544825793     -2.6795265361 
  H30           1.4532442482     -2.5341465935     -3.8344898627 
  H31           0.7845458566     -0.5639887448     -2.5682814024 
  H32           2.6906995310      0.2465044599     -1.5234062032 
  H33           2.9758196813      1.9932829896     -1.4643159255 
  H34           2.8917573229      1.0628576878      0.0335931299 
  H35           0.6682479527      0.8997731103     -3.0438995798 
  H36          -0.5475405788      2.0439225621     -2.4353232060 
  H37           1.0984075118      2.5784091231     -2.7563358554 
  H38           1.1358999703      2.7292726995      0.8627012185 
  H39           1.1823879869      3.6080879778     -0.6816447218 
  H40          -0.3629033929      3.0104878983     -0.0507567162 
  H41          -2.4881364034      1.6402528609      0.4715362566 
  H42          -2.0051900312      2.1763630766     -1.1574643995 
  H43          -3.4931033332      1.2570609922     -0.9234503508 
  H44          -2.7164398013     -0.9952484067      0.8846738448 
  H45          -3.5149281866     -1.1742168915     -0.6714567037 
  H46          -2.0436067986     -2.0988661685     -0.3565959015 
  H47          -1.1305140479      0.4015978283     -2.9038204356 
  H48          -1.2922739218     -1.3138310745     -2.4824481711 
  H49          -2.7253643304     -0.3013524066     -2.6701705639 
  C104          0.9642214743     -0.1618970086      5.7493195889 
  C105          0.1746978230     -0.1735642884      7.0837221590 
  C106          1.8210199039     -1.4324146990      5.7436526921 
  C107          1.8686556379      1.0789998959      5.7768576407 
  H108          0.8335034581     -0.3244825868      7.9474503367 
  H109         -0.3329612156      0.7906843741      7.2617675940 
  H110         -0.5614686580     -0.9899801284      7.0874350319 
  H111          2.4571788595      1.1332910086      6.7028801800 
  H112          2.5605712956      1.0657768087      4.9361938880 
  H113          1.2545894570      1.9856447674      5.6982356941 
  H114          2.4807733731     -1.4674089111      6.6215614011 
  H115          1.1801417633     -2.3184870624      5.7517582839 
  H116          2.4404446092     -1.4722906682      4.8509592485 
  Br117        -2.8315470745      0.4492361266      3.1561818360 
  O118          0.0159392653     -0.1202049709      4.7071531188 
  Na119        -1.8857857052      0.6521316331      5.6550099668 
   
 
  bond lengths (angstroms):
 
 P1      -Pd2     :   2.297232      P1      -C3      :   1.851559
 P1      -C4      :   1.934400      P1      -C5      :   1.929003
 Pd2     -C76     :   1.996033      C73     -C74     :   1.385891
 C73     -C78     :   1.386232      C73     -F79     :   1.348698
 C74     -C75     :   1.396856      C74     -H80     :   1.086629
 C75     -C76     :   1.402129      C75     -H81     :   1.086460
 C76     -C77     :   1.391568      C77     -C78     :   1.397853
 C77     -H82     :   1.086064      C78     -H83     :   1.086521
 C3      -C12     :   1.426068      C3      -C16     :   1.407244
 C4      -C17     :   1.538394      C4      -C18     :   1.538670
 C4      -C19     :   1.540432      C5      -C20     :   1.535220
 C5      -C21     :   1.536299      C5      -C22     :   1.539565
 C6      -C7      :   1.403627      C6      -C11     :   1.401515
 C6      -C12     :   1.489353      C7      -C8      :   1.389785
 C7      -H23     :   1.087967      C8      -C9      :   1.391113
 C8      -H24     :   1.087484      C9      -C10     :   1.391518
 C9      -H25     :   1.087198      C10     -C11     :   1.395848
 C10     -H26     :   1.085850      C11     -H27     :   1.081024
 C12     -C13     :   1.408831      C13     -C14     :   1.387286
 C13     -H28     :   1.087352      C14     -C15     :   1.389077
 C14     -H29     :   1.087273      C15     -C16     :   1.387602
 C15     -H30     :   1.087235      C16     -H31     :   1.083188
 C17     -H32     :   1.094323      C17     -H33     :   1.098409
 C17     -H34     :   1.090353      C18     -H35     :   1.094061
 C18     -H36     :   1.091873      C18     -H37     :   1.098118
 C19     -H38     :   1.097313      C19     -H39     :   1.098687
 C19     -H40     :   1.094781      C20     -H41     :   1.091564
 C20     -H42     :   1.094194      C20     -H43     :   1.097833
 C21     -H44     :   1.089043      C21     -H45     :   1.097870
 C21     -H46     :   1.096501      C22     -H47     :   1.089282
 C22     -H48     :   1.094236      C22     -H49     :   1.098211
 C104    -C105    :   1.550521      C104    -C106    :   1.532433
 C104    -C107    :   1.535768      C104    -O118    :   1.409641
 C105    -H108    :   1.096735      C105    -H109    :   1.104171
 C105    -H110    :   1.099313      C106    -H114    :   1.098737
 C106    -H115    :   1.093579      C106    -H116    :   1.087280
 C107    -H111    :   1.098556      C107    -H112    :   1.088870
 C107    -H113    :   1.097845      Br117   -Na119   :   2.679510
 O118    -Na119   :   2.260861
 
  bond angles:
 
 C3      -P1      -Pd2     : 117.120324  C4      -P1      -Pd2     : 114.274798
 C4      -P1      -C3      : 107.933224  C5      -P1      -Pd2     : 115.264023
 C5      -P1      -C3      :  95.240170  C5      -P1      -C4      : 104.842328
 C76     -Pd2     -P1      :  90.421727  C78     -C73     -C74     : 121.574830
 F79     -C73     -C74     : 119.128026  F79     -C73     -C78     : 119.292942
 C75     -C74     -C73     : 118.351967  H80     -C74     -C73     : 119.874650
 H80     -C74     -C75     : 121.769509  C76     -C75     -C74     : 121.520939
 H81     -C75     -C74     : 118.445617  H81     -C75     -C76     : 120.033370
 C75     -C76     -Pd2     : 109.354436  C77     -C76     -Pd2     : 131.406477
 C77     -C76     -C75     : 118.431611  C78     -C77     -C76     : 120.804885
 H82     -C77     -C76     : 119.960997  H82     -C77     -C78     : 119.214945
 C77     -C78     -C73     : 119.270213  H83     -C78     -C73     : 119.551189
 H83     -C78     -C77     : 121.178592  C12     -C3      -P1      : 128.494188
 C16     -C3      -P1      : 113.382653  C16     -C3      -C12     : 118.055910
 C17     -C4      -P1      : 110.076513  C18     -C4      -P1      : 115.988443
 C18     -C4      -C17     : 107.622769  C19     -C4      -P1      : 106.494163
 C19     -C4      -C17     : 110.433639  C19     -C4      -C18     : 106.121698
 C20     -C5      -P1      : 109.969827  C21     -C5      -P1      : 108.781836
 C21     -C5      -C20     : 110.809828  C22     -C5      -P1      : 113.237266
 C22     -C5      -C20     : 109.791137  C22     -C5      -C21     : 104.120448
 C11     -C6      -C7      : 118.065538  C12     -C6      -C7      : 117.277315
 C12     -C6      -C11     : 124.624529  C8      -C7      -C6      : 121.216805
 H23     -C7      -C6      : 119.164153  H23     -C7      -C8      : 119.576969
 C9      -C8      -C7      : 119.943650  H24     -C8      -C7      : 119.651962
 H24     -C8      -C9      : 120.393968  C10     -C9      -C8      : 119.804304
 H25     -C9      -C8      : 120.150963  H25     -C9      -C10     : 120.044270
 C11     -C10     -C9      : 120.141763  H26     -C10     -C9      : 120.818862
 H26     -C10     -C11     : 119.016706  C10     -C11     -C6      : 120.773102
 H27     -C11     -C6      : 120.225044  H27     -C11     -C10     : 118.916325
 C6      -C12     -C3      : 129.112086  C13     -C12     -C3      : 117.408867
 C13     -C12     -C6      : 113.387107  C14     -C13     -C12     : 123.325127
 H28     -C13     -C12     : 117.651019  H28     -C13     -C14     : 119.023543
 C15     -C14     -C13     : 119.103220  H29     -C14     -C13     : 120.058642
 H29     -C14     -C15     : 120.837790  C16     -C15     -C14     : 119.001579
 H30     -C15     -C14     : 120.984123  H30     -C15     -C16     : 120.012528
 C15     -C16     -C3      : 123.088074  H31     -C16     -C3      : 119.175586
 H31     -C16     -C15     : 117.729576  H32     -C17     -C4      : 112.770075
 H33     -C17     -C4      : 108.211862  H33     -C17     -H32     : 107.726775
 H34     -C17     -C4      : 112.207599  H34     -C17     -H32     : 108.183231
 H34     -C17     -H33     : 107.520911  H35     -C18     -C4      : 113.524067
 H36     -C18     -C4      : 113.072498  H36     -C18     -H35     : 108.761696
 H37     -C18     -C4      : 107.589691  H37     -C18     -H35     : 106.507000
 H37     -C18     -H36     : 106.967762  H38     -C19     -C4      : 111.174342
 H39     -C19     -C4      : 108.608006  H39     -C19     -H38     : 108.079129
 H40     -C19     -C4      : 112.608650  H40     -C19     -H38     : 108.371526
 H40     -C19     -H39     : 107.850465  H41     -C20     -C5      : 111.910631
 H42     -C20     -C5      : 112.552832  H42     -C20     -H41     : 109.198366
 H43     -C20     -C5      : 108.570958  H43     -C20     -H41     : 107.132602
 H43     -C20     -H42     : 107.220802  H44     -C21     -C5      : 112.619246
 H45     -C21     -C5      : 108.222387  H45     -C21     -H44     : 107.017246
 H46     -C21     -C5      : 111.374141  H46     -C21     -H44     : 110.159933
 H46     -C21     -H45     : 107.182901  H47     -C22     -C5      : 114.381565
 H48     -C22     -C5      : 111.763339  H48     -C22     -H47     : 108.655182
 H49     -C22     -C5      : 107.485609  H49     -C22     -H47     : 107.004281
 H49     -C22     -H48     : 107.199391  C106    -C104    -C105    : 106.358236
 C107    -C104    -C105    : 106.889222  C107    -C104    -C106    : 109.919403
 O118    -C104    -C105    : 107.094171  O118    -C104    -C106    : 113.447409
 O118    -C104    -C107    : 112.676516  H108    -C105    -C104    : 111.896724
 H109    -C105    -C104    : 111.488430  H109    -C105    -H108    : 105.626099
 H110    -C105    -C104    : 110.455846  H110    -C105    -H108    : 107.301992
 H110    -C105    -H109    : 109.884059  H114    -C106    -C104    : 111.049680
 H115    -C106    -C104    : 110.125629  H115    -C106    -H114    : 108.673013
 H116    -C106    -C104    : 110.607751  H116    -C106    -H114    : 108.225954
 H116    -C106    -H115    : 108.073435  H111    -C107    -C104    : 111.749030
 H112    -C107    -C104    : 110.521892  H112    -C107    -H111    : 108.117979
 H113    -C107    -C104    : 109.669346  H113    -C107    -H111    : 108.614847
 H113    -C107    -H112    : 108.069254  Na119   -O118    -C104    : 105.426469
 O118    -Na119   -Br117   :  83.110785
 
  torsional angles:
 
 P1      -Pd2     -C76     -C75     :  91.650053
 P1      -Pd2     -C76     -C77     : -99.068053
 P1      -C3      -C12     -C6      :  -8.296222
 P1      -C3      -C12     -C13     : 175.450614
 P1      -C3      -C16     -C15     :-176.760691
 P1      -C3      -C16     -H31     :   2.270914
 P1      -C4      -C17     -H32     :  63.529426
 P1      -C4      -C17     -H33     :-177.410339
 P1      -C4      -C17     -H34     : -58.944052
 P1      -C4      -C18     -H35     : -64.395690
 P1      -C4      -C18     -H36     :  60.125717
 P1      -C4      -C18     -H37     : 178.017719
 P1      -C4      -C19     -H38     :  64.178068
 P1      -C4      -C19     -H39     :-177.033481
 P1      -C4      -C19     -H40     : -57.654878
 P1      -C5      -C20     -H41     : -53.713361
 P1      -C5      -C20     -H42     :  69.710535
 P1      -C5      -C20     -H43     :-171.753736
 P1      -C5      -C21     -H44     :  63.497618
 P1      -C5      -C21     -H45     :-178.406073
 P1      -C5      -C21     -H46     : -60.835579
 P1      -C5      -C22     -H47     : -60.477943
 P1      -C5      -C22     -H48     :  63.514886
 P1      -C5      -C22     -H49     :-179.124912
 Pd2     -P1      -C3      -C12     :  18.405431
 Pd2     -P1      -C3      -C16     :-164.671211
 Pd2     -P1      -C4      -C17     :  83.499987
 Pd2     -P1      -C4      -C18     :-154.036493
 Pd2     -P1      -C4      -C19     : -36.227978
 Pd2     -P1      -C5      -C20     :  64.070647
 Pd2     -P1      -C5      -C21     : -57.451560
 Pd2     -P1      -C5      -C22     :-172.693979
 Pd2     -C76     -C75     -C74     : 168.309839
 Pd2     -C76     -C75     -H81     : -11.589267
 Pd2     -C76     -C77     -C78     :-166.482303
 Pd2     -C76     -C77     -H82     :  15.122995
 C73     -C74     -C75     -C76     :   1.420208
 C73     -C74     -C75     -H81     :-178.679133
 C73     -C78     -C77     -C76     :  -0.356172
 C73     -C78     -C77     -H82     : 178.050358
 C74     -C73     -C78     -C77     :  -0.839092
 C74     -C73     -C78     -H83     : 179.189475
 C74     -C75     -C76     -C77     :  -2.563265
 C75     -C74     -C73     -C78     :   0.312650
 C75     -C74     -C73     -F79     : 179.561476
 C75     -C76     -C77     -C78     :   2.008021
 C75     -C76     -C77     -H82     :-176.386682
 C76     -Pd2     -P1      -C3      :  69.436509
 C76     -Pd2     -P1      -C4      : -58.187874
 C76     -Pd2     -P1      -C5      :-179.759269
 C76     -C75     -C74     -H80     :-179.297109
 C76     -C77     -C78     -H83     : 179.614782
 C77     -C76     -C75     -H81     : 177.537629
 C77     -C78     -C73     -F79     : 179.913292
 C78     -C73     -C74     -H80     :-178.984050
 F79     -C73     -C74     -H80     :   0.264776
 F79     -C73     -C78     -H83     :  -0.058142
 H80     -C74     -C75     -H81     :   0.603550
 H82     -C77     -C78     -H83     :  -1.978688
 C3      -P1      -C4      -C17     : -48.688018
 C3      -P1      -C4      -C18     :  73.775502
 C3      -P1      -C4      -C19     :-168.415982
 C3      -P1      -C5      -C20     :-172.598469
 C3      -P1      -C5      -C21     :  65.879323
 C3      -P1      -C5      -C22     : -49.363095
 C3      -C12     -C6      -C7      :-124.291652
 C3      -C12     -C6      -C11     :  57.831889
 C3      -C12     -C13     -C14     :   1.153153
 C3      -C12     -C13     -H28     :-178.641675
 C3      -C16     -C15     -C14     :   0.627675
 C3      -C16     -C15     -H30     :-179.851503
 C4      -P1      -C3      -C12     : 149.040669
 C4      -P1      -C3      -C16     : -34.035973
 C4      -P1      -C5      -C20     : -62.466856
 C4      -P1      -C5      -C21     : 176.010937
 C4      -P1      -C5      -C22     :  60.768518
 C5      -P1      -C3      -C12     :-103.498587
 C5      -P1      -C3      -C16     :  73.424771
 C5      -P1      -C4      -C17     :-149.353292
 C5      -P1      -C4      -C18     : -26.889772
 C5      -P1      -C4      -C19     :  90.918744
 C6      -C7      -C8      -C9      :   0.615777
 C6      -C7      -C8      -H24     :-178.214707
 C6      -C11     -C10     -C9      :   0.134492
 C6      -C11     -C10     -H26     : 178.416973
 C6      -C12     -C3      -C16     : 174.903912
 C6      -C12     -C13     -C14     :-175.680048
 C6      -C12     -C13     -H28     :   4.525125
 C7      -C6      -C11     -C10     :   1.875823
 C7      -C6      -C11     -H27     :-174.724986
 C7      -C6      -C12     -C13     :  52.084553
 C7      -C8      -C9      -C10     :   1.455505
 C7      -C8      -C9      -H25     :-178.792029
 C8      -C7      -C6      -C11     :  -2.257823
 C8      -C7      -C6      -C12     : 179.722430
 C8      -C9      -C10     -C11     :  -1.827197
 C8      -C9      -C10     -H26     : 179.921704
 C9      -C8      -C7      -H23     : 178.236703
 C9      -C10     -C11     -H27     : 176.779124
 C10     -C9      -C8      -H24     :-179.722799
 C10     -C11     -C6      -C12     : 179.736900
 C11     -C6      -C7      -H23     :-179.888382
 C11     -C6      -C12     -C13     :-125.791906
 C11     -C10     -C9      -H25     : 178.420069
 C12     -C3      -C16     -C15     :   0.510944
 C12     -C3      -C16     -H31     : 179.542549
 C12     -C6      -C7      -H23     :   2.091871
 C12     -C6      -C11     -H27     :   3.136091
 C12     -C13     -C14     -C15     :  -0.029029
 C12     -C13     -C14     -H29     :-179.816144
 C13     -C12     -C3      -C16     :  -1.349252
 C13     -C14     -C15     -C16     :  -0.866673
 C13     -C14     -C15     -H30     : 179.617316
 C14     -C15     -C16     -H31     :-178.417086
 C15     -C14     -C13     -H28     : 179.763131
 C16     -C15     -C14     -H29     : 178.918733
 C17     -C4      -C18     -H35     :  59.352703
 C17     -C4      -C18     -H36     :-176.125890
 C17     -C4      -C18     -H37     : -58.233888
 C17     -C4      -C19     -H38     : -55.318022
 C17     -C4      -C19     -H39     :  63.470429
 C17     -C4      -C19     -H40     :-177.150968
 C18     -C4      -C17     -H32     : -63.743297
 C18     -C4      -C17     -H33     :  55.316938
 C18     -C4      -C17     -H34     : 173.783224
 C18     -C4      -C19     -H38     :-171.676843
 C18     -C4      -C19     -H39     : -52.888392
 C18     -C4      -C19     -H40     :  66.490211
 C19     -C4      -C17     -H32     :-179.164078
 C19     -C4      -C17     -H33     : -60.103843
 C19     -C4      -C17     -H34     :  58.362443
 C19     -C4      -C18     -H35     : 177.590079
 C19     -C4      -C18     -H36     : -57.888514
 C19     -C4      -C18     -H37     :  60.003489
 C20     -C5      -C21     -H44     : -57.510360
 C20     -C5      -C21     -H45     :  60.585949
 C20     -C5      -C21     -H46     : 178.156443
 C20     -C5      -C22     -H47     :  62.855857
 C20     -C5      -C22     -H48     :-173.151314
 C20     -C5      -C22     -H49     : -55.791112
 C21     -C5      -C20     -H41     :  66.589710
 C21     -C5      -C20     -H42     :-169.986395
 C21     -C5      -C20     -H43     : -51.450665
 C21     -C5      -C22     -H47     :-178.468096
 C21     -C5      -C22     -H48     : -54.475266
 C21     -C5      -C22     -H49     :  62.884936
 C22     -C5      -C20     -H41     :-178.945506
 C22     -C5      -C20     -H42     : -55.521611
 C22     -C5      -C20     -H43     :  63.014119
 C22     -C5      -C21     -H44     :-175.487315
 C22     -C5      -C21     -H45     : -57.391006
 C22     -C5      -C21     -H46     :  60.179489
 H23     -C7      -C8      -H24     :  -0.593781
 H24     -C8      -C9      -H25     :   0.029668
 H25     -C9      -C10     -H26     :   0.168971
 H26     -C10     -C11     -H27     :  -4.938395
 H28     -C13     -C14     -H29     :  -0.023984
 H29     -C14     -C15     -H30     :  -0.597278
 H30     -C15     -C16     -H31     :   1.103736
 C104    -O118    -Na119   -Br117   : 178.254828
 C105    -C104    -C106    -H114    : -57.337332
 C105    -C104    -C106    -H115    :  63.087155
 C105    -C104    -C106    -H116    :-177.519920
 C105    -C104    -C107    -H111    :  50.947785
 C105    -C104    -C107    -H112    : 171.400440
 C105    -C104    -C107    -H113    : -69.553950
 C105    -C104    -O118    -Na119   :  20.195290
 C106    -C104    -C105    -H108    :  51.677222
 C106    -C104    -C105    -H109    : 169.725697
 C106    -C104    -C105    -H110    : -67.796705
 C106    -C104    -C107    -H111    : -64.082152
 C106    -C104    -C107    -H112    :  56.370503
 C106    -C104    -C107    -H113    : 175.416113
 C106    -C104    -O118    -Na119   : 137.232071
 C107    -C104    -C105    -H108    : -65.722517
 C107    -C104    -C105    -H109    :  52.325959
 C107    -C104    -C105    -H110    : 174.803557
 C107    -C104    -C106    -H114    :  58.029531
 C107    -C104    -C106    -H115    : 178.454018
 C107    -C104    -C106    -H116    : -62.153057
 C107    -C104    -O118    -Na119   : -97.056961
 H108    -C105    -C104    -O118    : 173.286780
 H109    -C105    -C104    -O118    : -68.664744
 H110    -C105    -C104    -O118    :  53.812853
 H111    -C107    -C104    -O118    : 168.321305
 H112    -C107    -C104    -O118    : -71.226040
 H113    -C107    -C104    -O118    :  47.819570
 H114    -C106    -C104    -O118    :-174.803495
 H115    -C106    -C104    -O118    : -54.379007
 H116    -C106    -C104    -O118    :  65.013917
 
  nuclear repulsion energy.......          4989.167964734 hartrees
 -------------------------------------------------
   end of geometry optimization iteration  1
 -------------------------------------------------
   
  end of program geopt
   
 Time(geopt)  user:       1.954  user+sys:       1.954  wallclock:       0.743
  
  start of program onee
  
  smallest eigenvalue of S:    4.235E-04
  number of canonical orbitals.....          601
[...]
    C11      Z     0.00069   0.00000   0.00001  -0.00006   0.00065   0.03287
    C12      X     0.00001  -0.00001  -0.00000   0.00006  -0.00041   0.00023
    C12      Y    -0.00006   0.00004   0.00001  -0.00058  -0.00035  -0.00006
    C12      Z     0.00001   0.00000   0.00001   0.00033  -0.00042  -0.00005
    C13      X    -0.00008   0.00001   0.00000   0.00001  -0.00001   0.00002
    C13      Y     0.00259  -0.00010  -0.00002  -0.00088  -0.00011   0.00001
    C13      Z    -0.00158   0.00003  -0.00000   0.00063   0.00013  -0.00015
    C14      X    -0.00070  -0.00001  -0.00001   0.00023   0.00005  -0.00003
    C14      Y     0.00197   0.00003   0.00004  -0.00131  -0.00004   0.00001
    C14      Z     0.00119   0.00003   0.00002   0.00016  -0.00008   0.00005
    C15      X    -0.00025  -0.00003  -0.00001   0.00282   0.00002   0.00000
    C15      Y    -0.00019   0.00000  -0.00000  -0.00160  -0.00008   0.00001
    C15      Z     0.00108   0.00006   0.00005  -0.00935   0.00001  -0.00002
    C16      X    -0.00000  -0.00005  -0.00001  -0.00727  -0.00006  -0.00002
    C16      Y     0.00014  -0.00029  -0.00006   0.06987   0.00019   0.00011
    C16      Z    -0.00013   0.00008   0.00002  -0.04117   0.00008  -0.00006
    C17      X    -0.00001  -0.02213  -0.00432   0.00029   0.00021   0.00000
    C17      Y    -0.00005  -0.00405  -0.00083  -0.00082  -0.00015   0.00002
    C17      Z    -0.00003  -0.08001  -0.01533  -0.00039   0.00051  -0.00000
    C18      X     0.00006  -0.00116  -0.00015   0.00031   0.00001  -0.00004
    C18      Y    -0.00006   0.00016  -0.00004  -0.00034   0.00000  -0.00003
    C18      Z    -0.00003   0.00039   0.00002  -0.00094  -0.00000  -0.00001
    C19      X     0.00002  -0.00088  -0.00011  -0.00005   0.00000  -0.00003
    C19      Y    -0.00001   0.00030   0.00001   0.00004   0.00001   0.00001
    C19      Z     0.00000  -0.00087   0.00020  -0.00014  -0.00002  -0.00005
    C20      X     0.00000   0.00009  -0.00005  -0.00002   0.00001   0.00001
    C20      Y    -0.00000   0.00015  -0.00007  -0.00004   0.00001  -0.00006
    C20      Z     0.00008  -0.00029  -0.00012   0.00003   0.00001   0.00007
    C21      X     0.00020   0.00001   0.00001  -0.00004   0.00000   0.00006
    C21      Y    -0.00025  -0.00002  -0.00001  -0.00002   0.00002   0.00094
    C21      Z     0.00001   0.00001  -0.00001  -0.00004   0.00005   0.00213
    C22      X     0.00005   0.00010  -0.00000   0.00094   0.00000  -0.00003
    C22      Y    -0.00004   0.00016  -0.00001   0.00055  -0.00004   0.00003
    C22      Z    -0.00000  -0.00012   0.00001  -0.00081  -0.00001   0.00004
    H23      X     0.08577  -0.00024  -0.00066  -0.00134   0.00405  -0.00006
    H23      Y    -0.01868   0.00004   0.00019   0.00032  -0.00267  -0.00009
    H23      Z    -0.05442   0.00016   0.00042   0.00081  -0.00193   0.00002
    H24      X     0.19132  -0.00023   0.00036  -0.00026  -0.00086   0.00389
    H24      Y    -0.12545   0.00016  -0.00023   0.00019   0.00064  -0.00258
    H24      Z     0.10072  -0.00013   0.00018  -0.00019  -0.00062   0.00213
    H25      X    -0.05055   0.00003  -0.00011   0.00002   0.00003   0.00026
    H25      Y    -0.19443   0.00013  -0.00041   0.00008   0.00001  -0.00116
    H25      Z     0.54727  -0.00038   0.00116  -0.00019   0.00001   0.00285
    H26      X    -0.58574   0.00027  -0.00064   0.00038  -0.00049  -0.05141
    H26      Y     0.13325  -0.00006   0.00014  -0.00008   0.00005   0.01027
    H26      Z     0.35268  -0.00016   0.00037  -0.00026   0.00030   0.03432
    H27      X     0.04108  -0.00011  -0.00024   0.00096  -0.01677  -0.72500
    H27      Y    -0.02564   0.00007   0.00019  -0.00064   0.01094   0.47929
    H27      Z     0.01832  -0.00005  -0.00011   0.00056  -0.00923  -0.38876
    H28      X     0.00167  -0.00008  -0.00001  -0.00042  -0.00003   0.00009
    H28      Y    -0.02936   0.00096   0.00019   0.00862   0.00136  -0.00037
    H28      Z     0.01670  -0.00052  -0.00008  -0.00496  -0.00066   0.00026
    H29      X     0.00763   0.00013   0.00015  -0.00227  -0.00029   0.00020
    H29      Y    -0.02185  -0.00036  -0.00042   0.00722   0.00072  -0.00037
    H29      Z    -0.01244  -0.00018  -0.00023   0.00295   0.00045  -0.00027
    H30      X     0.00285   0.00013   0.00013  -0.02201  -0.00006  -0.00004
    H30      Y     0.00100   0.00008   0.00004  -0.00333  -0.00004   0.00001
    H30      Z    -0.01174  -0.00060  -0.00054   0.08712   0.00011   0.00012
    H31      X     0.00023  -0.00090  -0.00017   0.08524   0.00019   0.00012
    H31      Y    -0.00210   0.00263   0.00048  -0.81620  -0.00175  -0.00116
    H31      Z     0.00122  -0.00152  -0.00031   0.47835   0.00115   0.00060
    H32      X    -0.00015  -0.05947  -0.01136  -0.00334  -0.00007  -0.00000
    H32      Y     0.00034   0.20648   0.03931   0.00872   0.00024  -0.00005
    H32      Z     0.00025   0.11991   0.02286   0.00617   0.00060  -0.00003
    H33      X     0.00012  -0.04511  -0.00803   0.00079   0.00035   0.00003
    H33      Y     0.00025  -0.09062  -0.01606   0.00230   0.00104  -0.00004
    H33      Z    -0.00013   0.03989   0.00669  -0.00086  -0.00049   0.00002
    H34      X     0.00011   0.36477   0.07034  -0.00008  -0.00292   0.00003
    H34      Y    -0.00003  -0.07373  -0.01449   0.00048   0.00029   0.00002
    H34      Z     0.00026   0.81403   0.15745   0.00076  -0.00652  -0.00003
    H35      X    -0.00015   0.00101  -0.00004  -0.00692   0.00000  -0.00008
    H35      Y     0.00053  -0.00162   0.00066   0.02722   0.00007   0.00018
    H35      Z     0.00051  -0.00104   0.00089   0.01245   0.00003   0.00018
    H36      X    -0.00073   0.01651   0.00220  -0.00128  -0.00025   0.00029
    H36      Y     0.00013  -0.00341  -0.00051  -0.00155   0.00006  -0.00014
    H36      Z    -0.00002   0.00119   0.00015  -0.00119  -0.00005   0.00005
    H37      X     0.00013   0.00127   0.00041   0.00082  -0.00003   0.00015
    H37      Y     0.00021   0.00103   0.00042  -0.00094  -0.00009   0.00012
    H37      Z    -0.00009   0.00001  -0.00021  -0.00109   0.00003   0.00005
    H38      X    -0.00002   0.00473  -0.00227   0.00045   0.00014   0.00033
    H38      Y    -0.00002  -0.00055   0.00021  -0.00042   0.00002   0.00001
    H38      Z    -0.00002   0.01396  -0.00261   0.00043   0.00020   0.00056
    H39      X     0.00007  -0.00076   0.00043  -0.00008  -0.00009  -0.00005
    H39      Y     0.00018  -0.00024   0.00114  -0.00012  -0.00025  -0.00012
    H39      Z    -0.00007  -0.00015  -0.00076   0.00026   0.00015   0.00014
    H40      X    -0.00024   0.00562   0.00252  -0.00060  -0.00019   0.00008
    H40      Y     0.00003  -0.00114  -0.00048   0.00023   0.00009  -0.00005
    H40      Z     0.00003  -0.00012   0.00048   0.00014   0.00002  -0.00006
    H41      X    -0.00004   0.00012   0.00010  -0.00003  -0.00002  -0.00012
    H41      Y    -0.00027   0.00056   0.00054   0.00031  -0.00005  -0.00020
    H41      Z    -0.00072   0.00144   0.00169   0.00042  -0.00017  -0.00045
    H42      X     0.00017  -0.00133   0.00001   0.00017  -0.00003   0.00038
    H42      Y     0.00030  -0.00244   0.00012   0.00039  -0.00004   0.00130
    H42      Z    -0.00027   0.00238  -0.00023  -0.00046   0.00006  -0.00098
    H43      X    -0.00027  -0.00009   0.00047   0.00048  -0.00002   0.00019
    H43      Y     0.00000  -0.00001   0.00010  -0.00003  -0.00005  -0.00019
    H43      Z    -0.00004  -0.00005   0.00007   0.00003  -0.00000   0.00011
    H44      X    -0.00010  -0.00000   0.00004  -0.00008   0.00012   0.00549
    H44      Y    -0.00005  -0.00001   0.00009   0.00015  -0.00023  -0.00980
    H44      Z    -0.00118   0.00003   0.00021   0.00071  -0.00028  -0.01151
    H45      X    -0.00165   0.00007  -0.00007   0.00044  -0.00001  -0.00003
    H45      Y     0.00003   0.00004   0.00001  -0.00002   0.00000   0.00042
    H45      Z    -0.00061  -0.00001  -0.00006   0.00013  -0.00002  -0.00136
    H46      X    -0.00166  -0.00010  -0.00004  -0.00010   0.00018   0.00858
    H46      Y     0.00380   0.00024   0.00011   0.00009  -0.00028  -0.01343
    H46      Z     0.00023   0.00002  -0.00000  -0.00005   0.00014   0.00574
    H47      X    -0.00005  -0.00110   0.00006  -0.00921   0.00004   0.00072
    H47      Y    -0.00009  -0.00138   0.00005  -0.01075   0.00002   0.00077
    H47      Z     0.00010   0.00152  -0.00009   0.01069  -0.00004  -0.00143
    H48      X    -0.00012   0.00024  -0.00003   0.00003  -0.00018   0.00008
    H48      Y     0.00050  -0.00058   0.00013   0.00396   0.00047  -0.00040
    H48      Z     0.00009  -0.00004   0.00002  -0.00027   0.00008  -0.00008
    H49      X    -0.00045  -0.00027  -0.00005  -0.00438  -0.00006   0.00051
    H49      Y     0.00002   0.00003  -0.00000   0.00045   0.00004   0.00002
    H49      Z    -0.00010  -0.00004  -0.00003  -0.00051  -0.00003   0.00037
    C104     X     0.00006  -0.00002   0.00012   0.00000   0.00003   0.00002
    C104     Y     0.00009   0.00002  -0.00007  -0.00001  -0.00003  -0.00000
    C104     Z    -0.00001  -0.00000  -0.00001   0.00001   0.00003   0.00000
    C105     X     0.00044  -0.00000  -0.00002   0.00000   0.00002   0.00000
    C105     Y     0.00138   0.00001  -0.00009   0.00000  -0.00001   0.00002
    C105     Z     0.00210  -0.00000  -0.00010   0.00001   0.00002   0.00006
    C106     X     0.00051   0.00004  -0.00039   0.00001  -0.00003   0.00003
    C106     Y     0.00067   0.00003  -0.00026   0.00000  -0.00002   0.00004
    C106     Z     0.00026   0.00006  -0.00009   0.00000  -0.00009   0.00007
    C107     X     0.00004   0.00010  -0.00042   0.00000   0.00001  -0.00000
    C107     Y     0.00006   0.00005  -0.00024   0.00000  -0.00000   0.00000
    C107     Z    -0.00008  -0.00005   0.00021   0.00000  -0.00000   0.00001
    H108     X    -0.00029   0.00000   0.00006  -0.00001  -0.00002  -0.00006
    H108     Y     0.00193  -0.00017   0.00050   0.00005   0.00013   0.00020
    H108     Z    -0.00110   0.00018  -0.00046  -0.00006  -0.00016  -0.00032
    H109     X     0.00529   0.00003  -0.00037   0.00003  -0.00017   0.00020
    H109     Y    -0.00578  -0.00001   0.00026  -0.00004   0.00014  -0.00029
    H109     Z    -0.00199  -0.00001   0.00009  -0.00001   0.00008  -0.00017
    H110     X    -0.01110  -0.00004   0.00061  -0.00003  -0.00008  -0.00016
    H110     Y    -0.01371  -0.00005   0.00083  -0.00003  -0.00013  -0.00023
    H110     Z    -0.02235  -0.00006   0.00116  -0.00005  -0.00016  -0.00015
    H111     X     0.00021   0.00001  -0.00003  -0.00002  -0.00002  -0.00001
    H111     Y    -0.00045  -0.00016   0.00081   0.00004   0.00003   0.00004
    H111     Z     0.00072   0.00017  -0.00085  -0.00007  -0.00013  -0.00007
    H112     X    -0.00111  -0.00100   0.00454  -0.00003  -0.00003  -0.00009
    H112     Y    -0.00066  -0.00053   0.00240  -0.00002  -0.00004  -0.00006
    H112     Z     0.00025   0.00027  -0.00127   0.00002   0.00002   0.00002
    H113     X    -0.00001  -0.00019   0.00057   0.00003  -0.00017   0.00005
    H113     Y     0.00002   0.00018  -0.00058  -0.00003   0.00021  -0.00004
    H113     Z     0.00000   0.00006  -0.00018  -0.00001   0.00010  -0.00001
    H114     X     0.00060  -0.00004   0.00003  -0.00001   0.00007  -0.00003
    H114     Y    -0.00134   0.00022  -0.00024   0.00004  -0.00008   0.00012
    H114     Z     0.00227  -0.00034   0.00031  -0.00004   0.00029  -0.00015
    H115     X    -0.00278  -0.00035   0.00101  -0.00001   0.00064  -0.00040
    H115     Y    -0.00540  -0.00053   0.00186  -0.00002   0.00057  -0.00070
    H115     Z    -0.00708  -0.00064   0.00227  -0.00003   0.00035  -0.00086
    H116     X    -0.00417  -0.00006   0.00353  -0.00007  -0.00033  -0.00008
    H116     Y    -0.00196   0.00000   0.00163  -0.00004  -0.00022  -0.00001
    H116     Z     0.00145   0.00013  -0.00139   0.00002   0.00016   0.00006
    Br117    X    -0.00000   0.00000  -0.00002   0.00000   0.00001   0.00001
    Br117    Y    -0.00000  -0.00000   0.00001  -0.00000  -0.00000   0.00000
    Br117    Z     0.00000  -0.00000   0.00000   0.00000  -0.00000   0.00001
    O118     X    -0.00001  -0.00005   0.00023  -0.00000  -0.00002  -0.00001
    O118     Y    -0.00003  -0.00006   0.00024   0.00001   0.00001   0.00000
    O118     Z     0.00005   0.00001  -0.00007  -0.00001  -0.00002  -0.00000
    Na119    X     0.00000  -0.00001   0.00004  -0.00000   0.00000  -0.00001
    Na119    Y     0.00000  -0.00000  -0.00001   0.00000  -0.00000   0.00001
    Na119    Z    -0.00000   0.00000  -0.00001   0.00000   0.00000   0.00000
  
  Number of imaginary frequencies:   0
   
  Writing vibrational animation data to L_Ar_NaOtBu_Br_O_trans_PL139.vib
  Writing IR vibrational spectrum data to L_Ar_NaOtBu_Br_O_trans_PL139_vib.spm
  rotational symmetry number:  1

  rotational temperatures (K):      0.004735      0.004197      0.003622
   
  The Quasi-Harmonic approximation will be applied to compute
  vibrational constributions to thermodynamic properties.
  Frequencies will be adjusted to a minimum value of  100.00 cm^-1.

  vibrational temperatures:
       mode:      1        2        3        4        5        6
  temp. (K):   143.88   143.88   143.88   143.88   143.88   143.88
   
       mode:      7        8        9       10       11       12
  temp. (K):   143.88   143.88   143.88   143.88   143.88   143.88
   
       mode:     13       14       15       16       17       18
  temp. (K):   148.22   165.39   166.95   170.74   189.31   192.49
   
       mode:     19       20       21       22       23       24
  temp. (K):   206.44   217.92   229.23   234.66   246.90   259.00
   
       mode:     25       26       27       28       29       30
  temp. (K):   271.09   273.50   292.14   313.07   315.64   330.77
   
       mode:     31       32       33       34       35       36
  temp. (K):   335.78   344.89   355.46   366.38   378.15   388.16
   
       mode:     37       38       39       40       41       42
  temp. (K):   399.48   407.82   424.10   434.12   445.13   456.11
   
       mode:     43       44       45       46       47       48
  temp. (K):   457.84   475.32   500.41   506.66   518.52   543.20
   
       mode:     49       50       51       52       53       54
  temp. (K):   554.30   565.42   576.86   580.65   584.35   593.82
   
       mode:     55       56       57       58       59       60
  temp. (K):   605.22   615.32   627.95   640.89   652.98   679.54
   
       mode:     61       62       63       64       65       66
  temp. (K):   693.55   707.06   740.31   750.59   756.21   780.70
   
       mode:     67       68       69       70       71       72
  temp. (K):   823.19   826.35   836.76   856.26   860.84   899.08
   
       mode:     73       74       75       76       77       78
  temp. (K):   913.98   922.52   986.59  1037.58  1042.61  1094.92
   
       mode:     79       80       81       82       83       84
  temp. (K):  1108.61  1114.01  1119.79  1156.21  1165.65  1180.85
   
       mode:     85       86       87       88       89       90
  temp. (K):  1191.66  1194.45  1208.33  1249.47  1303.30  1317.70
   
       mode:     91       92       93       94       95       96
  temp. (K):  1320.20  1353.41  1361.53  1368.58  1372.86  1376.04
   
       mode:     97       98       99      100      101      102
  temp. (K):  1379.32  1380.25  1393.00  1409.57  1412.09  1424.30
   
       mode:    103      104      105      106      107      108
  temp. (K):  1428.48  1443.14  1463.43  1465.14  1466.77  1480.06
   
       mode:    109      110      111      112      113      114
  temp. (K):  1485.30  1505.69  1511.91  1517.67  1519.07  1520.27
   
       mode:    115      116      117      118      119      120
  temp. (K):  1525.60  1532.57  1545.94  1549.54  1611.42  1617.54
   
       mode:    121      122      123      124      125      126
  temp. (K):  1628.10  1677.07  1726.83  1730.16  1732.05  1741.07
   
       mode:    127      128      129      130      131      132
  temp. (K):  1748.10  1767.50  1771.47  1772.48  1779.55  1790.51
   
       mode:    133      134      135      136      137      138
  temp. (K):  1801.09  1816.16  1820.78  1833.80  1847.25  1879.04
   
       mode:    139      140      141      142      143      144
  temp. (K):  1908.77  1929.21  1933.66  1949.96  1988.23  2023.09
   
       mode:    145      146      147      148      149      150
  temp. (K):  2036.51  2046.99  2051.75  2054.75  2055.70  2063.35
   
       mode:    151      152      153      154      155      156
  temp. (K):  2070.41  2097.02  2109.74  2113.28  2143.75  2150.24
   
       mode:    157      158      159      160      161      162
  temp. (K):  2156.77  2157.20  2164.72  2166.76  2166.93  2178.18
   
       mode:    163      164      165      166      167      168
  temp. (K):  2180.15  2186.14  2188.41  2188.75  2191.93  2199.24
   
       mode:    169      170      171      172      173      174
  temp. (K):  2202.66  2205.05  2214.22  2214.35  2220.97  2226.86
   
       mode:    175      176      177      178      179      180
  temp. (K):  2228.60  2244.97  2336.83  2364.49  2366.22  2375.91
   
       mode:    181      182      183      184      185      186
  temp. (K):  2387.40  2404.64  4347.03  4377.56  4379.19  4384.08
   
       mode:    187      188      189      190      191      192
  temp. (K):  4388.12  4391.86  4394.13  4394.98  4401.49  4450.31
   
       mode:    193      194      195      196      197      198
  temp. (K):  4475.04  4480.58  4491.96  4501.15  4503.02  4504.57
   
       mode:    199      200      201      202      203      204
  temp. (K):  4509.60  4511.12  4517.31  4538.50  4554.51  4558.41
   
       mode:    205      206      207      208      209      210
  temp. (K):  4563.43  4563.87  4576.68  4578.67  4587.98  4589.88
   
       mode:    211      212      213      214      215      216
  temp. (K):  4598.59  4606.57  4609.46  4612.55  4612.90  4625.90
   
       mode:    217      218      219      220      221      222
  temp. (K):  4631.59  4641.49  4647.87  4727.81  4765.68  4771.36
   
   
  Thermodynamic properties calculated assuming an ideal gas

  In the table below, the units for temperature
  are kelvins, the units for U, H, and G are
  kcal/mol and the units for Cv and S are cal/(mol K)

  The zero point energy (ZPE):    400.044 kcal/mol
  is not included in U, H, or G in the table below
  
 
  =============================================================================
  Thermodynamic properties for P = 1.00E+00 atm, calculated at   1 temperatures


  T =   298.15 K, P = 1.00E+00 atm
   
                  U         Cv          S          H          G        ln(Q)
              =========  =========  =========  =========  =========  =========
  trans.          0.889      2.981     45.406      1.481    -12.057   20.34917
  rot.            0.889      2.981     37.443      0.889    -10.275   17.34226
  vib.           22.943    148.265    139.151     22.943    -18.545   31.30057
  elec.           0.000      0.000      0.000      0.000      0.000    0.00000
  ----------------------------------------------------------------------------
  total          24.720    154.227    222.000     25.313    -40.877   68.99201
   
   Total internal energy, Utot(SCFE + ZPE + U):   -1984.977675 hartrees
   Total enthalpy, Htot (Utot + nRT), with n=1:   -1984.976731 hartrees
    Total Gibbs free energy, Gtot (Htot - T*S):   -1985.082210 hartrees
   
  end of program freq
   
 Time(freq)  user:       1.027  user+sys:       1.027  wallclock:       0.581
  
  start of program post
  
  Writing input files for PBF
  end of program post
   
 Time(post)  user:       0.292  user+sys:       0.292  wallclock:       0.094

 Total cpu seconds     user:  145184.670   user+sys:  145184.670
  
 Total elapsed time:    18205 seconds

Job L_Ar_NaOtBu_Br_O_trans_PL139 completed on bp1-compute093 at Mon Nov 24 17:37:22 2025
