Job L_Ar_Br_N_Na_N_trans_PL139 started on bp1-compute088 at Tue Dec  2 13:52:56 2025
jobid: bp1-compute088-0-692eef27

  +--------------------------------------------------------------------+
  |  Jaguar version 12.5, release 138                                  |
  |                                                                    |
  |  Copyright Schrodinger, Inc.                                       |
  |  All Rights Reserved.                                              |
  |                                                                    |
  |  The following have contributed to Jaguar (listed alphabetically): |
  |  Ty Balduf, Mike Beachy, Chandler Bennett, Art Bochevarov,         |
  |  Dale Braden, Yixiang Cao, Alan Chien, Chris Cortis,               |
  |  Rich Friesner, Jim Furness, Bill Goddard, Hod Greeley,            |
  |  Tom Hughes, Leif Jacobson, Jean-Marc Langlois, Daniel Levine,     |
  |  Rob Murphy, Dean Philipp, Tom Pollard, Murco Ringnalda,           |
  |  Daniel Mainz, Pablo Videla, Mark Watson, Haoyu Yu.                |
  |                                                                    |
  |  Use of this program should be acknowledged in publications as:    |
  |                                                                    |
  |  Jaguar, version 12.5, Schrodinger, Inc., New York, NY, 2024.      |
  |                                                                    |
  |  A. D. Bochevarov, E. Harder, T. F. Hughes, J. R. Greenwood,       |
  |  D. A. Braden, D. M. Philipp, D. Rinaldo, M. D. Halls,             |
  |  J. Zhang, R. A. Friesner, "Jaguar: A High-Performance Quantum     |
  |  Chemistry Software Program with Strengths in Life and Materials   |
  |  Sciences", Int. J. Quantum Chem., 2013, 113(18), 2110-2142.       |
  +--------------------------------------------------------------------+
  
  start of program pre
  
  Job name: L_Ar_Br_N_Na_N_trans_PL139
  Executables used: /software/local/apps/schrodinger2024-3/jaguar-v12.5/bin/Linux-x86_64
  Temporary files : /tmp/ar21627/L_Ar_Br_N_Na_N_trans_PL139#bp1-compute088-0-692eef27
  Basis file : using default basis file from /software/local/apps/schrodinger2024-3
  Maestro file (input):  L_Ar_Br_N_Na_N_trans_PL139.mae
  Maestro file (output): L_Ar_Br_N_Na_N_trans_PL139.01.mae
  
 Contents of input file: &gen and (if present) &atomic sections only
 ----------------Contents start----------------
&gen
dftname=b3pw91-d3
basis=6-31G*
numd=5
ip11=2
iaccg=3
isolv=2
igeopt=1
solvent=benzene
ifreq=1
&
&atomic
atom basis
Pd2 lacv3p*
Br3 lacv3p*
&
 -----------------Contents end-----------------
 
  PS calculation requested. Using PS version of 6-31g*
  basis set:               non_standard                    
  net molecular charge:    0
  multiplicity:            1
  
  Using up to  18 threads per process
  
  This run will use ECP on            2  atoms
  number of basis functions....          626
  
 Input geometry:
                                   angstroms
  atom               x                 y                 z
  P1            0.0000000000      0.0000000000      0.0000000000 
  Pd2           0.0000000000      0.0000000000      2.3386825024 
  C73           4.6547680214      0.8879444890      2.9453781994 
  C74           3.7093732470      1.9032024271      2.9870490286 
  C75           2.3630244073      1.5746469446      2.8147113071 
  C76           1.9710457753      0.2507285874      2.5782551767 
  C77           2.9385920865     -0.7560614203      2.6061344721 
  C78           4.2887118872     -0.4401782360      2.7760387030 
  F79           5.9607249067      1.1974636766      3.0986136396 
  H80           4.0242665270      2.9284519077      3.1634686466 
  H82           2.6575235654     -1.7982671828      2.5216825321 
  H83           5.0507946258     -1.2152152091      2.7949564274 
  H14           1.6227595827      2.3668108087      2.8891383490 
  C3            0.0187849505     -1.7668244722     -0.5354163407 
  C4            1.7037948337      0.6292287317     -0.5986536207 
  C5           -1.4574179555      0.8085397685     -0.9148561034 
  C6           -0.1284423443     -2.5911125869      1.9067779769 
  C7            0.8702880459     -3.0329406610      2.7984985103 
  C8            0.5861053115     -3.2188459119      4.1479562060 
  C9           -0.6996963151     -2.9780676760      4.6331572549 
  C10          -1.6949348898     -2.5133222683      3.7750665189 
  C11          -1.4133227603     -2.3060079494      2.4241309022 
  C12           0.0596218599     -2.7848339586      0.4380568743 
  C13           0.2526424718     -4.1160441302      0.0304780932 
  C14           0.3923902916     -4.4561102965     -1.3100776077 
  C15           0.3387379339     -3.4529364445     -2.2762451587 
  C16           0.1608327625     -2.1297207454     -1.8867194359 
  C17           2.7256112406     -0.4570860530     -0.2139047841 
  C18           1.8067130828      0.9262073439     -2.0989606763 
  C19           2.0535878356      1.9018386746      0.1844641955 
  C20          -1.3769667360      2.3340193690     -0.7461658152 
  C21          -2.7115207481      0.2628942595     -0.2101737453 
  C22          -1.5969708536      0.4858135537     -2.4108094621 
  H23           1.8626787740     -3.2507209872      2.4106286536 
  H24           1.3716043886     -3.5422166711      4.8259635936 
  H25          -0.9181295684     -3.1258714315      5.6877215091 
  H26          -2.6900383638     -2.2977254739      4.1561487511 
  H27          -2.2057623626     -2.0157931958      1.7386449919 
  H28           0.2759837152     -4.8921031196      0.7921842234 
  H29           0.5379734255     -5.4950083883     -1.5968038923 
  H30           0.4476890163     -3.6937419593     -3.3312773959 
  H31           0.1582315244     -1.3688355608     -2.6558758938 
  H32           2.6310703633     -1.3568852743     -0.8289370633 
  H33           3.7382527298     -0.0558368271     -0.3515204283 
  H34           2.6244113655     -0.7478867826      0.8398055432 
  H35           1.5946702246      0.0536791756     -2.7223953693 
  H36           1.1511321909      1.7477596048     -2.4040425235 
  H37           2.8373225034      1.2346984342     -2.3222171610 
  H38           2.1581328410      1.6777948309      1.2498399469 
  H39           3.0147076762      2.2935556404     -0.1745921895 
  H40           1.3056131688      2.6915191261      0.0729299026 
  H41          -1.2505451894      2.6355616082      0.2949295306 
  H42          -0.5612916571      2.7649743638     -1.3370607890 
  H43          -2.3129318155      2.7792746266     -1.1089724678 
  H44          -2.7283826477      0.5231093081      0.8490779111 
  H45          -3.6068670357      0.6938913557     -0.6777882020 
  H46          -2.7784124724     -0.8278287032     -0.3076569153 
  H47          -0.7175736887      0.7580932149     -3.0000382966 
  H48          -1.8283221983     -0.5691938874     -2.5832644396 
  H49          -2.4416699619      1.0685086314     -2.8029713378 
  N104          0.0346946859      0.0050120223      4.4474484759 
  H105          0.5570964960     -0.8456887315      4.6605748468 
  C107          0.6517793268      1.0775776986      5.0949430798 
  C108          1.7977861158      3.2851366804      6.4628091205 
  C109          1.7292150665      0.9058606545      5.9896227469 
  C110          0.1742211499      2.3938301384      4.8923711886 
  C111          0.7388431344      3.4716410221      5.5695469532 
  C112          2.2897204136      1.9910085932      6.6569595034 
  H113          2.1424320905     -0.0929057500      6.1286478985 
  H114         -0.6286833482      2.5450074537      4.1717405584 
  H115          0.3527836247      4.4736532333      5.3838965453 
  H116          3.1310446203      1.8248728940      7.3284536070 
  H117          2.2440019944      4.1314028850      6.9801850046 
  Na119        -2.0629831442      0.4430122592      5.6989022154 
  Br3          -3.1830921975      1.4208777318      3.3192988805 
   
  principal moments of inertia:
        amu*angstrom^2:              5053.68938              6304.89291              7628.69407
                g*cm^2:          8.39184760E-37          1.04695197E-36          1.26677430E-36
   
  rotational constants:
               cm^(-1):      0.00333571      0.00267374      0.00220977
                   GHz:      0.10000199      0.08015664      0.06624712
   
  Molecular weight:     693.08 amu
   
  Stoichiometry: NaPdC32PNH37BrF
  Molecular Point Group: C1      
  Point Group used: C1
  
 
Number of optimization coordinates:   253
Number of independent coordinates:    253
Number of non-redundant coordinates:  219
Number of frozen coordinates:           0
Number of harmonic constraints:         0
 
Number of geometric degrees of freedom:   219
Maximum geometric degrees of freedom:     219
 " " " " " excluding dummy atoms:         219
 
 
  bond lengths (angstroms):
 
 P1      -Pd2     :   2.338683      P1      -C3      :   1.846264
 P1      -C4      :   1.912389      P1      -C5      :   1.901254
 Pd2     -C76     :   2.001320      Pd2     -N104    :   2.109057
 C73     -C74     :   1.387896      C73     -C78     :   1.388014
 C73     -F79     :   1.350854      C74     -C75     :   1.396533
 C74     -H80     :   1.086931      C75     -C76     :   1.400828
 C75     -H14     :   1.086764      C76     -C77     :   1.396621
 C77     -C78     :   1.396951      C77     -H82     :   1.082739
 C78     -H83     :   1.087111      C3      -C12     :   1.409135
 C3      -C16     :   1.406375      C4      -C17     :   1.540201
 C4      -C18     :   1.532876      C4      -C19     :   1.534655
 C5      -C20     :   1.536885      C5      -C21     :   1.538532
 C5      -C22     :   1.536718      C6      -C7      :   1.409908
 C6      -C11     :   1.414163      C6      -C12     :   1.493331
 C7      -C8      :   1.391530      C7      -H23     :   1.087525
 C8      -C9      :   1.395235      C8      -H24     :   1.086863
 C9      -C10     :   1.393846      C9      -H25     :   1.087044
 C10     -C11     :   1.395461      C10     -H26     :   1.087169
 C11     -H27     :   1.087233      C12     -C13     :   1.405524
 C13     -C14     :   1.390059      C13     -H28     :   1.087662
 C14     -C15     :   1.393814      C14     -H29     :   1.087527
 C15     -C16     :   1.390784      C15     -H30     :   1.087635
 C16     -H31     :   1.081922      C17     -H32     :   1.094002
 C17     -H33     :   1.097899      C17     -H34     :   1.097776
 C18     -H35     :   1.093132      C18     -H36     :   1.094445
 C18     -H37     :   1.098711      C19     -H38     :   1.093687
 C19     -H39     :   1.098233      C19     -H40     :   1.093390
 C20     -H41     :   1.091233      C20     -H42     :   1.095539
 C20     -H43     :   1.098140      C21     -H44     :   1.090876
 C21     -H45     :   1.098211      C21     -H46     :   1.097112
 C22     -H47     :   1.093008      C22     -H48     :   1.093757
 C22     -H49     :   1.098563      N104    -H105    :   1.020793
 N104    -C107    :   1.396581      N104    -Na119   :   2.481579
 C107    -C109    :   1.410959      C107    -C110    :   1.414785
 C108    -C111    :   1.397877      C108    -C112    :   1.398020
 C108    -H117    :   1.087636      C109    -C112    :   1.391780
 C109    -H113    :   1.089775      C110    -C111    :   1.392495
 C110    -H114    :   1.089412      C111    -H115    :   1.089741
 C112    -H116    :   1.089189      Na119   -Br3     :   2.805954
 
  bond angles:
 
 C3      -P1      -Pd2     : 106.857945  C4      -P1      -Pd2     : 108.242511
 C4      -P1      -C3      : 102.416945  C5      -P1      -Pd2     : 118.762872
 C5      -P1      -C3      : 105.975373  C5      -P1      -C4      : 113.103254
 C76     -Pd2     -P1      :  96.875212  N104    -Pd2     -P1      : 179.047638
 N104    -Pd2     -C76     :  82.172562  C78     -C73     -C74     : 121.598580
 F79     -C73     -C74     : 119.177460  F79     -C73     -C78     : 119.212002
 C75     -C74     -C73     : 118.743527  H80     -C74     -C73     : 119.836647
 H80     -C74     -C75     : 121.415606  C76     -C75     -C74     : 120.860041
 H14     -C75     -C74     : 118.473111  H14     -C75     -C76     : 120.654337
 C75     -C76     -Pd2     : 114.468696  C77     -C76     -Pd2     : 126.468031
 C77     -C76     -C75     : 118.951940  C78     -C77     -C76     : 120.595454
 H82     -C77     -C76     : 120.830092  H82     -C77     -C78     : 118.556967
 C77     -C78     -C73     : 119.083913  H83     -C78     -C73     : 119.681009
 H83     -C78     -C77     : 121.226420  C12     -C3      -P1      : 119.426421
 C16     -C3      -P1      : 121.776377  C16     -C3      -C12     : 118.322653
 C17     -C4      -P1      : 106.308107  C18     -C4      -P1      : 115.464471
 C18     -C4      -C17     : 109.669819  C19     -C4      -P1      : 108.431631
 C19     -C4      -C17     : 107.829588  C19     -C4      -C18     : 108.873854
 C20     -C5      -P1      : 109.218298  C21     -C5      -P1      : 104.692216
 C21     -C5      -C20     : 110.146261  C22     -C5      -P1      : 116.661821
 C22     -C5      -C20     : 108.666228  C22     -C5      -C21     : 107.299585
 C11     -C6      -C7      : 118.385757  C12     -C6      -C7      : 119.484184
 C12     -C6      -C11     : 120.025423  C8      -C7      -C6      : 120.700210
 H23     -C7      -C6      : 118.919594  H23     -C7      -C8      : 120.362902
 C9      -C8      -C7      : 120.158350  H24     -C8      -C7      : 119.809099
 H24     -C8      -C9      : 120.029328  C10     -C9      -C8      : 120.097410
 H25     -C9      -C8      : 119.939331  H25     -C9      -C10     : 119.939914
 C11     -C10     -C9      : 120.094374  H26     -C10     -C9      : 120.257337
 H26     -C10     -C11     : 119.643193  C10     -C11     -C6      : 120.502065
 H27     -C11     -C6      : 119.037789  H27     -C11     -C10     : 120.194527
 C6      -C12     -C3      : 125.596861  C13     -C12     -C3      : 119.201931
 C13     -C12     -C6      : 115.173758  C14     -C13     -C12     : 121.679651
 H28     -C13     -C12     : 118.401886  H28     -C13     -C14     : 119.911604
 C15     -C14     -C13     : 119.245349  H29     -C14     -C13     : 120.094050
 H29     -C14     -C15     : 120.660201  C16     -C15     -C14     : 119.705779
 H30     -C15     -C14     : 120.610354  H30     -C15     -C16     : 119.679043
 C15     -C16     -C3      : 121.838669  H31     -C16     -C3      : 120.090377
 H31     -C16     -C15     : 118.053866  H32     -C17     -C4      : 112.478410
 H33     -C17     -C4      : 108.834247  H33     -C17     -H32     : 108.049169
 H34     -C17     -C4      : 111.435493  H34     -C17     -H32     : 108.286971
 H34     -C17     -H33     : 107.587005  H35     -C18     -C4      : 112.987919
 H36     -C18     -C4      : 112.212714  H36     -C18     -H35     : 108.904636
 H37     -C18     -C4      : 108.436742  H37     -C18     -H35     : 106.868627
 H37     -C18     -H36     : 107.125805  H38     -C19     -C4      : 110.425829
 H39     -C19     -C4      : 109.172573  H39     -C19     -H38     : 107.932009
 H40     -C19     -C4      : 113.012504  H40     -C19     -H38     : 108.222586
 H40     -C19     -H39     : 107.922176  H41     -C20     -C5      : 112.647678
 H42     -C20     -C5      : 111.729590  H42     -C20     -H41     : 108.640254
 H43     -C20     -C5      : 108.758174  H43     -C20     -H41     : 107.571976
 H43     -C20     -H42     : 107.271046  H44     -C21     -C5      : 111.885074
 H45     -C21     -C5      : 109.289842  H45     -C21     -H44     : 107.892734
 H46     -C21     -C5      : 111.197870  H46     -C21     -H44     : 108.813257
 H46     -C21     -H45     : 107.615432  H47     -C22     -C5      : 113.541206
 H48     -C22     -C5      : 112.040863  H48     -C22     -H47     : 108.993888
 H49     -C22     -C5      : 107.814818  H49     -C22     -H47     : 107.101570
 H49     -C22     -H48     : 107.019574  H105    -N104    -Pd2     : 102.426936
 C107    -N104    -Pd2     : 118.206966  C107    -N104    -H105    : 108.487798
 Na119   -N104    -Pd2     : 119.389345  Na119   -N104    -H105    : 118.319786
 Na119   -N104    -C107    :  90.237256  C109    -C107    -N104    : 122.542486
 C110    -C107    -N104    : 119.932306  C110    -C107    -C109    : 117.501730
 C112    -C108    -C111    : 118.607650  H117    -C108    -C111    : 120.727032
 H117    -C108    -C112    : 120.652655  C112    -C109    -C107    : 121.109652
 H113    -C109    -C107    : 118.814655  H113    -C109    -C112    : 120.046190
 C111    -C110    -C107    : 120.904633  H114    -C110    -C107    : 118.202765
 H114    -C110    -C111    : 120.871316  C110    -C111    -C108    : 120.973939
 H115    -C111    -C108    : 119.994206  H115    -C111    -C110    : 119.026131
 C109    -C112    -C108    : 120.893445  H116    -C112    -C108    : 119.908538
 H116    -C112    -C109    : 119.193332  Br3     -Na119   -N104    :  88.353850
 
  torsional angles:
 
 P1      -Pd2     -C76     -C75     :  97.580976
 P1      -Pd2     -C76     -C77     : -86.324018
 P1      -Pd2     -N104    -H105    : -66.856535
 P1      -Pd2     -N104    -C107    :  52.264503
 P1      -Pd2     -N104    -Na119   : 160.171949
 P1      -C3      -C12     -C6      :  10.386629
 P1      -C3      -C12     -C13     :-171.616056
 P1      -C3      -C16     -C15     : 172.018638
 P1      -C3      -C16     -H31     :  -6.448054
 P1      -C4      -C17     -H32     :  71.664432
 P1      -C4      -C17     -H33     :-168.638553
 P1      -C4      -C17     -H34     : -50.156192
 P1      -C4      -C18     -H35     : -59.261075
 P1      -C4      -C18     -H36     :  64.338717
 P1      -C4      -C18     -H37     :-177.534992
 P1      -C4      -C19     -H38     :  63.440585
 P1      -C4      -C19     -H39     :-178.048516
 P1      -C4      -C19     -H40     : -57.939706
 P1      -C5      -C20     -H41     : -50.260633
 P1      -C5      -C20     -H42     :  72.362513
 P1      -C5      -C20     -H43     :-169.415896
 P1      -C5      -C21     -H44     :  60.023026
 P1      -C5      -C21     -H45     : 179.454490
 P1      -C5      -C21     -H46     : -61.883931
 P1      -C5      -C22     -H47     : -58.290665
 P1      -C5      -C22     -H48     :  65.722831
 P1      -C5      -C22     -H49     :-176.775076
 Pd2     -P1      -C3      -C12     :  -1.401174
 Pd2     -P1      -C3      -C16     :-173.363051
 Pd2     -P1      -C4      -C17     :  68.254523
 Pd2     -P1      -C4      -C18     :-169.890252
 Pd2     -P1      -C4      -C19     : -47.453088
 Pd2     -P1      -C5      -C20     :  71.098214
 Pd2     -P1      -C5      -C21     : -46.837175
 Pd2     -P1      -C5      -C22     :-165.238911
 Pd2     -C76     -C75     -C74     :-179.312520
 Pd2     -C76     -C75     -H14     :   1.993802
 Pd2     -C76     -C77     -C78     : 179.733580
 Pd2     -C76     -C77     -H82     :  -1.809565
 Pd2     -N104    -C107    -C109    :-121.850530
 Pd2     -N104    -C107    -C110    :  59.956799
 Pd2     -N104    -Na119   -Br3     : -15.423631
 C73     -C74     -C75     -C76     :  -1.218627
 C73     -C74     -C75     -H14     : 177.502968
 C73     -C78     -C77     -C76     :   1.343332
 C73     -C78     -C77     -H82     :-177.148056
 C74     -C73     -C78     -C77     :   1.822062
 C74     -C73     -C78     -H83     :-177.120861
 C74     -C75     -C76     -C77     :   4.275915
 C75     -C74     -C73     -C78     :  -1.878765
 C75     -C74     -C73     -F79     : 179.389393
 C75     -C76     -Pd2     -N104    : -82.402739
 C75     -C76     -C77     -C78     :  -4.328589
 C75     -C76     -C77     -H82     : 174.128266
 C76     -Pd2     -P1      -C3      :  96.640277
 C76     -Pd2     -P1      -C4      : -13.020275
 C76     -Pd2     -P1      -C5      :-143.730135
 C76     -Pd2     -N104    -H105    : -65.883749
 C76     -Pd2     -N104    -C107    :  53.237289
 C76     -Pd2     -N104    -Na119   : 161.144736
 C76     -C75     -C74     -H80     : 179.530105
 C76     -C77     -C78     -H83     :-179.730645
 C77     -C76     -Pd2     -N104    :  93.692267
 C77     -C76     -C75     -H14     :-174.417764
 C77     -C78     -C73     -F79     :-179.446523
 C78     -C73     -C74     -H80     : 177.384622
 F79     -C73     -C74     -H80     :  -1.347220
 F79     -C73     -C78     -H83     :   1.610554
 H80     -C74     -C75     -H14     :  -1.748301
 H82     -C77     -C78     -H83     :   1.777967
 C3      -P1      -Pd2     -N104    :  97.610979
 C3      -P1      -C4      -C17     : -44.403542
 C3      -P1      -C4      -C18     :  77.451684
 C3      -P1      -C4      -C19     :-160.111153
 C3      -P1      -C5      -C20     :-168.819176
 C3      -P1      -C5      -C21     :  73.245435
 C3      -P1      -C5      -C22     : -45.156301
 C3      -C12     -C6      -C7      :-124.151329
 C3      -C12     -C6      -C11     :  72.601567
 C3      -C12     -C13     -C14     :  -0.588756
 C3      -C12     -C13     -H28     :-179.634845
 C3      -C16     -C15     -C14     :  -0.624150
 C3      -C16     -C15     -H30     :-179.830160
 C4      -P1      -Pd2     -N104    : -12.049573
 C4      -P1      -C3      -C12     : 112.280076
 C4      -P1      -C3      -C16     : -59.681802
 C4      -P1      -C5      -C20     : -57.393621
 C4      -P1      -C5      -C21     :-175.329011
 C4      -P1      -C5      -C22     :  66.269253
 C5      -P1      -Pd2     -N104    :-142.759433
 C5      -P1      -C3      -C12     :-128.971831
 C5      -P1      -C3      -C16     :  59.066291
 C5      -P1      -C4      -C17     :-158.001470
 C5      -P1      -C4      -C18     : -36.146245
 C5      -P1      -C4      -C19     :  86.290919
 C6      -C7      -C8      -C9      :   0.477058
 C6      -C7      -C8      -H24     :-178.870189
 C6      -C11     -C10     -C9      :   1.356608
 C6      -C11     -C10     -H26     :-179.462394
 C6      -C12     -C3      -C16     :-177.374186
 C6      -C12     -C13     -C14     : 177.611967
 C6      -C12     -C13     -H28     :  -1.434122
 C7      -C6      -C11     -C10     :  -2.673195
 C7      -C6      -C11     -H27     :-176.764978
 C7      -C6      -C12     -C13     :  57.780259
 C7      -C8      -C9      -C10     :  -1.849589
 C7      -C8      -C9      -H25     : 179.908801
 C8      -C7      -C6      -C11     :   1.759216
 C8      -C7      -C6      -C12     :-161.761434
 C8      -C9      -C10     -C11     :   0.931332
 C8      -C9      -C10     -H26     :-178.244592
 C9      -C8      -C7      -H23     :-177.993916
 C9      -C10     -C11     -H27     : 175.379946
 C10     -C9      -C8      -H24     : 177.496213
 C10     -C11     -C6      -C12     : 160.755656
 C11     -C6      -C7      -H23     :-179.748043
 C11     -C6      -C12     -C13     :-105.466844
 C11     -C10     -C9      -H25     : 179.172932
 C12     -C3      -C16     -C15     :  -0.028735
 C12     -C3      -C16     -H31     :-178.495427
 C12     -C6      -C7      -H23     :  16.731307
 C12     -C6      -C11     -H27     : -13.336127
 C12     -C13     -C14     -C15     :  -0.062144
 C12     -C13     -C14     -H29     :-179.833633
 C13     -C12     -C3      -C16     :   0.623129
 C13     -C14     -C15     -C16     :   0.663013
 C13     -C14     -C15     -H30     : 179.861492
 C14     -C15     -C16     -H31     : 177.872555
 C15     -C14     -C13     -H28     : 178.969817
 C16     -C15     -C14     -H29     :-179.566825
 C17     -C4      -C18     -H35     :  60.773125
 C17     -C4      -C18     -H36     :-175.627082
 C17     -C4      -C18     -H37     : -57.500791
 C17     -C4      -C19     -H38     : -51.274735
 C17     -C4      -C19     -H39     :  67.236164
 C17     -C4      -C19     -H40     :-172.655026
 C18     -C4      -C17     -H32     : -53.808503
 C18     -C4      -C17     -H33     :  65.888512
 C18     -C4      -C17     -H34     :-175.629127
 C18     -C4      -C19     -H38     :-170.197403
 C18     -C4      -C19     -H39     : -51.686504
 C18     -C4      -C19     -H40     :  68.422306
 C19     -C4      -C17     -H32     :-172.222162
 C19     -C4      -C17     -H33     : -52.525147
 C19     -C4      -C17     -H34     :  65.957214
 C19     -C4      -C18     -H35     : 178.537721
 C19     -C4      -C18     -H36     : -57.862487
 C19     -C4      -C18     -H37     :  60.263804
 C20     -C5      -C21     -H44     : -57.277913
 C20     -C5      -C21     -H45     :  62.153551
 C20     -C5      -C21     -H46     :-179.184870
 C20     -C5      -C22     -H47     :  65.655193
 C20     -C5      -C22     -H48     :-170.331311
 C20     -C5      -C22     -H49     : -52.829218
 C21     -C5      -C20     -H41     :  64.194872
 C21     -C5      -C20     -H42     :-173.181983
 C21     -C5      -C20     -H43     : -54.960392
 C21     -C5      -C22     -H47     :-175.267913
 C21     -C5      -C22     -H48     : -51.254417
 C21     -C5      -C22     -H49     :  66.247676
 C22     -C5      -C20     -H41     :-178.529627
 C22     -C5      -C20     -H42     : -55.906482
 C22     -C5      -C20     -H43     :  62.315109
 C22     -C5      -C21     -H44     :-175.398441
 C22     -C5      -C21     -H45     : -55.966977
 C22     -C5      -C21     -H46     :  62.694602
 H23     -C7      -C8      -H24     :   2.658837
 H24     -C8      -C9      -H25     :  -0.745397
 H25     -C9      -C10     -H26     :  -0.002992
 H26     -C10     -C11     -H27     :  -5.439056
 H28     -C13     -C14     -H29     :  -0.801673
 H29     -C14     -C15     -H30     :  -0.368346
 H30     -C15     -C16     -H31     :  -1.333455
 N104    -C107    -C109    -C112    :-177.574046
 N104    -C107    -C109    -H113    :   4.401054
 N104    -C107    -C110    -C111    : 177.353756
 N104    -C107    -C110    -H114    :  -4.310160
 H105    -N104    -C107    -C109    :  -5.949655
 H105    -N104    -C107    -C110    : 175.857674
 H105    -N104    -Na119   -Br3     :-141.161331
 C107    -N104    -Na119   -Br3     : 107.587921
 C107    -C109    -C112    -C108    :   0.192149
 C107    -C109    -C112    -H116    :-179.019700
 C107    -C110    -C111    -C108    :   0.352287
 C107    -C110    -C111    -H115    : 179.481821
 C108    -C111    -C110    -H114    :-177.939276
 C108    -C112    -C109    -H113    : 178.192941
 C109    -C107    -N104    -Na119   : 114.156004
 C109    -C107    -C110    -C111    :  -0.928604
 C109    -C107    -C110    -H114    : 177.407480
 C109    -C112    -C108    -C111    :  -0.785515
 C109    -C112    -C108    -H117    :-179.500421
 C110    -C107    -N104    -Na119   : -64.036667
 C110    -C107    -C109    -C112    :   0.660166
 C110    -C107    -C109    -H113    :-177.364733
 C110    -C111    -C108    -C112    :   0.514811
 C110    -C111    -C108    -H117    : 179.228726
 C111    -C108    -C112    -H116    : 178.420736
 C112    -C108    -C111    -H115    :-178.606357
 H113    -C109    -C112    -H116    :  -1.018909
 H114    -C110    -C111    -H115    :   1.190257
 H115    -C111    -C108    -H117    :   0.107558
 H116    -C112    -C108    -H117    :  -0.294169
 
  nuclear repulsion energy.......          5284.782137551 hartrees
  
  Detected an organometallic with only one TM atom. 
  
  Oxidation state on metal       2 is     2
  Formal multiplet on metal      2 is     1
  Formal charge on ligand        3 is    -1
  Formal multiplet on ligand     3 is     1
  Formal charge on ligand        4 is    -1
  Formal multiplet on ligand     4 is     1
  
 
  Will use High-Quality Initial guess for organometallics
       including d-d repulsion (iguess=30)
 
 Non-default options chosen:
   SCF calculation type: DFT(b3pw91-d3)              
   DFT=Becke_3_Parameter/HF+Slater+Becke88+PW91+PW-GGAIIC (B3PW91-D3)
   Geometry will be optimized in redundant internal coordinates
   Solvation energy will be computed using PBF
     -solute cavity energy will not be included
     -surface area terms will not be included
   Vibrational frequencies and related properties will be computed
      from analytic second derivatives
   IR intensities will be computed
   Thermochemical properties will be computed
   Maximum number of geometry steps: 100
   Scaling standard convergence criteria by a factor of   5.00
   Solvent: benzene                                                         
   Internal dielectric constant:    1.000
   Continuum dielectric constant:   2.283
   Solvent probe molecule radius:   2.600
  
 Non-default print settings:
     11=  2
  
 Temporary integer options set:
     21= -1  73=  2
  
  atom       vdw   vdw2    cov     mass  grid  daf  charge   basis
  P1        2.147  2.074  1.060   30.974    Y    Y      Y    ps_6-31g*
  Pd2       1.450  1.450  1.280  105.903    Y    Y      Y    lacv3p*
  C73       1.949  1.900  0.770   12.000    Y    Y      Y    ps_6-31g*
  C74       1.949  1.900  0.770   12.000    Y    Y      Y    ps_6-31g*
  C75       1.949  1.900  0.770   12.000    Y    Y      Y    ps_6-31g*
  C76       1.949  1.900  0.770   12.000    Y    Y      Y    ps_6-31g*
  C77       1.949  1.900  0.770   12.000    Y    Y      Y    ps_6-31g*
  C78       1.949  1.900  0.770   12.000    Y    Y      Y    ps_6-31g*
  F79       1.736  1.682  0.720   18.998    Y    Y      Y    ps_6-31g*
  H80       1.597  1.150  0.320    1.008    Y    Y      Y    ps_6-31g*
  H82       1.597  1.150  0.320    1.008    Y    Y      Y    ps_6-31g*
  H83       1.597  1.150  0.320    1.008    Y    Y      Y    ps_6-31g*
  H14       1.597  1.150  0.320    1.008    Y    Y      Y    ps_6-31g*
  C3        1.949  1.900  0.770   12.000    Y    Y      Y    ps_6-31g*
  C4        1.949  1.900  0.770   12.000    Y    Y      Y    ps_6-31g*
  C5        1.949  1.900  0.770   12.000    Y    Y      Y    ps_6-31g*
  C6        1.949  1.900  0.770   12.000    Y    Y      Y    ps_6-31g*
  C7        1.949  1.900  0.770   12.000    Y    Y      Y    ps_6-31g*
  C8        1.949  1.900  0.770   12.000    Y    Y      Y    ps_6-31g*
  C9        1.949  1.900  0.770   12.000    Y    Y      Y    ps_6-31g*
  C10       1.949  1.900  0.770   12.000    Y    Y      Y    ps_6-31g*
  C11       1.949  1.900  0.770   12.000    Y    Y      Y    ps_6-31g*
  C12       1.949  1.900  0.770   12.000    Y    Y      Y    ps_6-31g*
  C13       1.949  1.900  0.770   12.000    Y    Y      Y    ps_6-31g*
  C14       1.949  1.900  0.770   12.000    Y    Y      Y    ps_6-31g*
  C15       1.949  1.900  0.770   12.000    Y    Y      Y    ps_6-31g*
  C16       1.949  1.900  0.770   12.000    Y    Y      Y    ps_6-31g*
  C17       1.949  1.900  0.770   12.000    Y    Y      Y    ps_6-31g*
  C18       1.949  1.900  0.770   12.000    Y    Y      Y    ps_6-31g*
  C19       1.949  1.900  0.770   12.000    Y    Y      Y    ps_6-31g*
  C20       1.949  1.900  0.770   12.000    Y    Y      Y    ps_6-31g*
  C21       1.949  1.900  0.770   12.000    Y    Y      Y    ps_6-31g*
  C22       1.949  1.900  0.770   12.000    Y    Y      Y    ps_6-31g*
  H23       1.597  1.150  0.320    1.008    Y    Y      Y    ps_6-31g*
  H24       1.597  1.150  0.320    1.008    Y    Y      Y    ps_6-31g*
  H25       1.597  1.150  0.320    1.008    Y    Y      Y    ps_6-31g*
  H26       1.597  1.150  0.320    1.008    Y    Y      Y    ps_6-31g*
  H27       1.597  1.150  0.320    1.008    Y    Y      Y    ps_6-31g*
  H28       1.597  1.150  0.320    1.008    Y    Y      Y    ps_6-31g*
  H29       1.597  1.150  0.320    1.008    Y    Y      Y    ps_6-31g*
  H30       1.597  1.150  0.320    1.008    Y    Y      Y    ps_6-31g*
  H31       1.597  1.150  0.320    1.008    Y    Y      Y    ps_6-31g*
  H32       1.597  1.150  0.320    1.008    Y    Y      Y    ps_6-31g*
  H33       1.597  1.150  0.320    1.008    Y    Y      Y    ps_6-31g*
  H34       1.597  1.150  0.320    1.008    Y    Y      Y    ps_6-31g*
  H35       1.597  1.150  0.320    1.008    Y    Y      Y    ps_6-31g*
  H36       1.597  1.150  0.320    1.008    Y    Y      Y    ps_6-31g*
  H37       1.597  1.150  0.320    1.008    Y    Y      Y    ps_6-31g*
  H38       1.597  1.150  0.320    1.008    Y    Y      Y    ps_6-31g*
  H39       1.597  1.150  0.320    1.008    Y    Y      Y    ps_6-31g*
  H40       1.597  1.150  0.320    1.008    Y    Y      Y    ps_6-31g*
  H41       1.597  1.150  0.320    1.008    Y    Y      Y    ps_6-31g*
  H42       1.597  1.150  0.320    1.008    Y    Y      Y    ps_6-31g*
  H43       1.597  1.150  0.320    1.008    Y    Y      Y    ps_6-31g*
  H44       1.597  1.150  0.320    1.008    Y    Y      Y    ps_6-31g*
  H45       1.597  1.150  0.320    1.008    Y    Y      Y    ps_6-31g*
  H46       1.597  1.150  0.320    1.008    Y    Y      Y    ps_6-31g*
  H47       1.597  1.150  0.320    1.008    Y    Y      Y    ps_6-31g*
  H48       1.597  1.150  0.320    1.008    Y    Y      Y    ps_6-31g*
  H49       1.597  1.150  0.320    1.008    Y    Y      Y    ps_6-31g*
  N104      1.831  1.600  0.750   14.003    Y    Y      Y    ps_6-31g*
  H105      1.597  1.150  0.320    1.008    Y    Y      Y    ps_6-31g*
  C107      1.949  1.900  0.770   12.000    Y    Y      Y    ps_6-31g*
  C108      1.949  1.900  0.770   12.000    Y    Y      Y    ps_6-31g*
  C109      1.949  1.900  0.770   12.000    Y    Y      Y    ps_6-31g*
  C110      1.949  1.900  0.770   12.000    Y    Y      Y    ps_6-31g*
  C111      1.949  1.900  0.770   12.000    Y    Y      Y    ps_6-31g*
  C112      1.949  1.900  0.770   12.000    Y    Y      Y    ps_6-31g*
  H113      1.597  1.150  0.320    1.008    Y    Y      Y    ps_6-31g*
  H114      1.597  1.150  0.320    1.008    Y    Y      Y    ps_6-31g*
  H115      1.597  1.150  0.320    1.008    Y    Y      Y    ps_6-31g*
  H116      1.597  1.150  0.320    1.008    Y    Y      Y    ps_6-31g*
  H117      1.597  1.150  0.320    1.008    Y    Y      Y    ps_6-31g*
  Na119     2.308  1.492  1.540   22.990    Y    Y      Y    ps_6-31g*
  Br3       2.095  2.095  1.140   78.918    Y    Y      Y    lav3p*
 
  atom      formal  2spin      esp    mulk    frag
  P1           0       0        Y    0.000       0
  Pd2          2       0        Y    0.000       0
  C73         -1       0        Y    0.000       0
  N104        -1       0        Y    0.000       0
  
  end of program pre
   
 Time(pre)  user:       4.318  user+sys:       4.318  wallclock:       1.616
  
  start of program onee
  
  smallest eigenvalue of S:    4.313E-04
  number of canonical orbitals.....          622
  end of program onee
   
 Time(onee)  user:      11.675  user+sys:      11.675  wallclock:       2.089
  
  start of program hfig
  
  initial wavefunction generated automatically from atomic wavefunctions
  Only one state below 0.010000
  Skip d-d repulsion considerations 
 
  Irreducible     Total no   No of occupied orbitals 
  representation  orbitals   Shell_1  Shell_2    ...
  No Symm          622        148
  ------------------------
  Orbital occupation/shell    1.000
 
  end of program hfig
   
 Time(hfig)  user:       2.359  user+sys:       2.359  wallclock:       1.054
  
  start of program probe
  
  end of program probe
   
 Time(probe)  user:       1.346  user+sys:       1.346  wallclock:       0.485
  
  start of program grid
  
   grid     grid set  grid #  grid sym
  ------    --------  ------  --------
  coarse        0        0        1
  medium        2        1        1
  fine          0        0        1
  ultrafine     4        2        1
  charge       -1        3        1
  gradient      4        2        1
  density       0        0        1
  DFT-fine    -11        4        1
  DFT-med.    -10        5        1
  DFT-grad    -12        6        1
  DFT-der2     -8        7        1
  DFT-cphf     -9        8        1
  LMP2-enrg     4        2        1
  LMP2-grad     2        1        1
  DFT-cphf2   -15        9        1
  PBF-dens      0        0        1
  plotting      0        0        1
  Rel-grad    -17        0        1
  
  number of gridpoints: 
     atom           P1         Pd2         C73         C74         C75         C76         C77
  grid # 1         612         355          79          92          91          98          92
  grid # 2         430         303         333         318         292         375         305
  grid # 3           6         212          29          13           7           7          11
  grid # 4        8582        8582        8582        8582        8582        8582        8582
  grid # 5        1192        1192        1192        1192        1192        1192        1192
  grid # 6        9488        9488        6164        6164        6164        6164        6164
  grid # 7       23054       32756       14018       14018       14018       14018       14018
  grid # 8         724        1144         750         750         750         750         750
  grid # 9         380        2168         406         406         406         406         406
   
  number of gridpoints: 
     atom          C78         F79         H80         H82         H83         H14          C3
  grid # 1          93         583         113          99         114         105          90
  grid # 2         320         565         462         414         463         429         383
  grid # 3          17         346         347          91         389         119          11
  grid # 4        8582        8582        8582        8582        8582        8582        8582
  grid # 5        1192        1192        1192        1192        1192        1192        1192
  grid # 6        6164        6164        6164        6164        6164        6164        6164
  grid # 7       14018       23160       15170       15170       15170       15170       14018
  grid # 8         750         778         792         792         792         792         750
  grid # 9         406         424         420         420         420         420         406
   
  number of gridpoints: 
     atom           C4          C5          C6          C7          C8          C9         C10
  grid # 1          88          88          99          94          95          95          95
  grid # 2         367         368         358         320         318         318         322
  grid # 3           6           6          10          11          22          31          29
  grid # 4        8582        8582        8582        8582        8582        8582        8582
  grid # 5        1192        1192        1192        1192        1192        1192        1192
  grid # 6        6164        6164        6164        6164        6164        6164        6164
  grid # 7       14018       14018       14018       14018       14018       14018       14018
  grid # 8         750         750         750         750         750         750         750
  grid # 9         406         406         406         406         406         406         406
   
  number of gridpoints: 
     atom          C11         C12         C13         C14         C15         C16         C17
  grid # 1          94          98          96          96          96          94          79
  grid # 2         321         361         326         324         323         324         239
  grid # 3          18          16          34          42          36          16           6
  grid # 4        8582        8582        8582        8582        8582        8582        8582
  grid # 5        1192        1192        1192        1192        1192        1192        1192
  grid # 6        6164        6164        6164        6164        6164        6164        6164
  grid # 7       14018       14018       14018       14018       14018       14018       14018
  grid # 8         750         750         750         750         750         750         750
  grid # 9         406         406         406         406         406         406         406
   
  number of gridpoints: 
     atom          C18         C19         C20         C21         C22         H23         H24
  grid # 1          81          81          78          78          81         106         117
  grid # 2         233         233         240         244         233         426         462
  grid # 3           6           6           6           6           6         178         357
  grid # 4        8582        8582        8582        8582        8582        8582        8582
  grid # 5        1192        1192        1192        1192        1192        1192        1192
  grid # 6        6164        6164        6164        6164        6164        6164        6164
  grid # 7       14018       14018       14018       14018       14018       15170       15170
  grid # 8         750         750         750         750         750         792         792
  grid # 9         406         406         406         406         406         420         420
   
  number of gridpoints: 
     atom          H25         H26         H27         H28         H29         H30         H31
  grid # 1         115         113         111         115         118         118         103
  grid # 2         464         458         443         457         467         466         424
  grid # 3         321         266         167         325         426         415          94
  grid # 4        8582        8582        8582        8582        8582        8582        8582
  grid # 5        1192        1192        1192        1192        1192        1192        1192
  grid # 6        6164        6164        6164        6164        6164        6164        6164
  grid # 7       15170       15170       15170       15170       15170       15170       15170
  grid # 8         792         792         792         792         792         792         792
  grid # 9         420         420         420         420         420         420         420
   
  number of gridpoints: 
     atom          H32         H33         H34         H35         H36         H37         H38
  grid # 1         105         107          95         101         102         109          94
  grid # 2         439         442         405         426         429         447         399
  grid # 3         199         223          42         154         164         275          23
  grid # 4        8582        8582        8582        8582        8582        8582        8582
  grid # 5        1192        1192        1192        1192        1192        1192        1192
  grid # 6        6164        6164        6164        6164        6164        6164        6164
  grid # 7       15170       15170       15170       15170       15170       15170       15170
  grid # 8         792         792         792         792         792         792         792
  grid # 9         420         420         420         420         420         420         420
   
  number of gridpoints: 
     atom          H39         H40         H41         H42         H43         H44         H45
  grid # 1         108         104         104         103         109          98         109
  grid # 2         443         435         440         431         446         428         447
  grid # 3         232         157         160         168         265          66         264
  grid # 4        8582        8582        8582        8582        8582        8582        8582
  grid # 5        1192        1192        1192        1192        1192        1192        1192
  grid # 6        6164        6164        6164        6164        6164        6164        6164
  grid # 7       15170       15170       15170       15170       15170       15170       15170
  grid # 8         792         792         792         792         792         792         792
  grid # 9         420         420         420         420         420         420         420
   
  number of gridpoints: 
     atom          H46         H47         H48         H49        N104        H105        C107
  grid # 1         104         103         104         109         103         102          92
  grid # 2         437         427         431         446         374         410         345
  grid # 3         177         153         198         262           6          47           7
  grid # 4        8582        8582        8582        8582        8582        8582        8582
  grid # 5        1192        1192        1192        1192        1192        1192        1192
  grid # 6        6164        6164        6164        6164        6164        6164        6164
  grid # 7       15170       15170       15170       15170       14142       15170       14018
  grid # 8         792         792         792         792         778         792         750
  grid # 9         420         420         420         420         416         420         406
   
  number of gridpoints: 
     atom         C108        C109        C110        C111        C112        H113        H114
  grid # 1          96          95          95          95          96         113         107
  grid # 2         323         326         321         324         326         454         441
  grid # 3          29          17           7          18          26         271         116
  grid # 4        8582        8582        8582        8582        8582        8582        8582
  grid # 5        1192        1192        1192        1192        1192        1192        1192
  grid # 6        6164        6164        6164        6164        6164        6164        6164
  grid # 7       14018       14018       14018       14018       14018       15170       15170
  grid # 8         750         750         750         750         750         792         792
  grid # 9         406         406         406         406         406         420         420
   
  number of gridpoints: 
     atom         H115        H116        H117       Na119         Br3       total
  grid # 1         117         117         117         710         493        9754
  grid # 2         466         466         466         685         481       29237
  grid # 3         392         401         416         316         296       10014
  grid # 4        8582        8582        8582        8582        8582      643650
  grid # 5        1192        1192        1192        1192        1192       89400
  grid # 6        6164        6164        6164        9488        9488      475596
  grid # 7       15170       15170       15170       21102       11604     1135684
  grid # 8         792         792         792         642         714       58084
  grid # 9         420         420         420         338         360       32618
   
  end of program grid
   
 Time(grid)  user:     332.435  user+sys:     332.435  wallclock:      23.705
  
  start of program rwr
  
  end of program rwr
   
 Time(rwr)  user:      50.928  user+sys:      50.928  wallclock:      14.127
  
  start of program scf
  
 number of electrons..........        296
 number of alpha electrons....        148
 number of beta electrons.....        148
 number of orbitals, total....        622
 number of doubly-occ'd orbs..        148
 number of open shell orbs....          0
 number of occupied orbitals..        148
 number of virtual orbitals...        474
 number of hamiltonians.......          1
 number of shells.............          1
 SCF type: DFT=Becke_3_Parameter/HF+Slater+Becke88+PW91+PW-GGAIIC (B3PW91-D3)
 Energy computed using pseudospectral method.
 Convergence Criterion:
    Energy (econv):       1.00E-05
    RMS density (dconv):  5.00E-06
  
       i  u  d  i  g                   
       t  p  i  c  r                                 RMS    maximum
       e  d  i  u  i                       energy  density   DIIS  
       r  t  s  t  d       total energy    change  change    error 
  
etot    1  N  N  5  M   -2034.77997945947           2.1E-03  1.5E-01
etot    2  Y  Y  6  M   -2037.94144882133  3.2E+00  3.4E-03  8.9E-02
etot    3  Y  Y  6  M   -2038.84618893221  9.0E-01  1.3E-03  6.1E-02
etot    4  N  Y  2  U   -2039.16446582107  3.2E-01  1.2E-03  4.3E-02
etot    5  Y  Y  6  M   -2039.27315696958  1.1E-01  6.3E-04  2.7E-02
etot    6  N  Y  2  U   -2039.28750605072  1.4E-02  8.0E-04  1.7E-02
etot    7  Y  Y  6  M   -2039.29468931191  7.2E-03  1.6E-04  4.8E-03
etot    8  N  Y  2  U   -2039.30566194768  1.1E-02  4.9E-05  1.9E-03
etot    9  N  Y  2  U   -2039.30599793616  3.4E-04  1.6E-05  3.6E-04
etot   10  N  Y  2  U   -2039.30601736601  1.9E-05  6.8E-06  1.8E-04
etot   11  N  Y  2  U   -2039.30602486617  7.5E-06  2.7E-06  4.4E-05
etot   12  N  N  2  U   -2039.30602549484  6.3E-07  0.0E+00  0.0E+00
 
  Computing the dispersion energy correction and its gradients...
  
  
 Energy components, in hartrees:
   (A)  Nuclear repulsion............    5284.78213755073
   (E)  Total one-electron terms.....  -13371.64510643662
   (F)    Electron-nuclear...........  -15311.27061516314
   (H)    Kinetic....................    1939.62550872651
   (I)  Total two-electron terms.....    6047.55694339106
   (J)    Coulomb....................    6305.25098741006
   (K)    Exchange+Correlation.......    -257.69404401901
   (L)  Electronic energy............   -7324.08816304557  (E+I)
   (N0) D3 correction................      -0.16029528543
   (N)  Total energy.................   -2039.46632078027  (A+L+N0)
   (O)  Gas phase energy.............   -2039.46632078027
  
 SCFE: SCF energy: DFT(b3pw91-d3)     -2039.46632078027 hartrees   iterations:  12
  
 
 HOMO energy:    -0.18265
 LUMO energy:    -0.06018
 
  Orbital energies (hartrees): 
   -77.07319   -38.47235   -24.67246   -14.28931   -10.23790   -10.20690
   -10.20392   -10.20030   -10.19819   -10.19187   -10.19152   -10.18965
   -10.18938   -10.18831   -10.18805   -10.18764   -10.18726   -10.18702
   -10.18702   -10.18638   -10.17275   -10.16426   -10.16269   -10.16248
   -10.16126   -10.16119   -10.15994   -10.15852   -10.15700   -10.15495
   -10.15402   -10.15319   -10.14747   -10.14421   -10.13621   -10.12820
    -6.57388    -4.73204    -4.73117    -4.72871    -3.33226    -2.23373
    -2.06490    -2.06214    -2.03187    -1.20473    -1.16266    -1.16082
    -1.16027    -0.88956    -0.87956    -0.86567    -0.85413    -0.82710
    -0.81527    -0.80701    -0.79640    -0.76798    -0.76364    -0.75129
    -0.74015    -0.73475    -0.73251    -0.70135    -0.69402    -0.68866
    -0.68274    -0.67582    -0.65885    -0.63785    -0.63420    -0.62583
    -0.61396    -0.60785    -0.59514    -0.59031    -0.58823    -0.57352
    -0.55135    -0.54765    -0.53120    -0.52307    -0.50442    -0.50208
    -0.48167    -0.47777    -0.47451    -0.47070    -0.46419    -0.46349
    -0.46038    -0.45669    -0.45131    -0.44762    -0.44246    -0.44053
    -0.43947    -0.43793    -0.43618    -0.43065    -0.42693    -0.42408
    -0.41698    -0.41307    -0.40507    -0.40351    -0.39268    -0.39003
    -0.38746    -0.38447    -0.38363    -0.37980    -0.37585    -0.37461
    -0.37041    -0.36598    -0.36417    -0.36078    -0.35861    -0.35464
    -0.34926    -0.34254    -0.34112    -0.33274    -0.33029    -0.32589
    -0.32431    -0.31902    -0.31474    -0.31225    -0.29969    -0.29277
    -0.28998    -0.27939    -0.27315    -0.26735    -0.26270    -0.25853
    -0.25394    -0.24283    -0.24100    -0.23023    -0.21746    -0.20732
    -0.20557    -0.20257    -0.19378    -0.18265    -0.06018    -0.04157
    -0.03103    -0.02783    -0.01735    -0.00931    -0.00142     0.00496
     0.01387     0.02598
 
  end of program scf
   
 Time(scf)  user:     680.327  user+sys:     680.327  wallclock:      65.655
  
  start of program der1a
  
  end of program der1a
   
 Time(der1a)  user:      33.877  user+sys:      33.877  wallclock:       2.890
  
  start of program rwr
  
  end of program rwr
   
 Time(rwr)  user:      42.722  user+sys:      42.722  wallclock:      16.671
  
  start of program der1b
  
   
  forces (hartrees/bohr) : total     
   
 atom  label           x              y              z
 ---- --------   -------------  -------------  -------------
    1 P1          1.354670E-02  -6.163852E-04  -7.558314E-04
    2 Pd2        -9.470161E-03   5.823434E-03   1.017735E-02
    3 C73        -7.589610E-04  -6.843671E-04   9.052845E-05
    4 C74         1.455129E-03   7.558833E-04   7.244943E-03
    5 C75         1.398512E-02  -5.168454E-03   2.941040E-02
    6 C76        -3.722200E-03  -1.139917E-03   2.751709E-02
    7 C77        -2.291815E-04   8.285578E-03   1.984945E-02
    8 C78         3.902783E-03   3.104611E-04   4.506372E-03
    9 F79        -2.106585E-03  -8.149326E-04  -1.334612E-04
   10 H80        -3.139957E-04  -7.670330E-04  -3.867662E-04
   11 H82         2.914047E-03   6.665893E-03  -1.602949E-03
   12 H83        -5.711184E-05   5.434744E-04  -5.717429E-04
   13 H14         1.368636E-03  -8.753236E-04   8.444690E-04
   14 C3         -1.958414E-04   8.707597E-05  -4.399605E-04
   15 C4          4.285419E-04   7.623752E-04  -5.633434E-03
   16 C5         -2.429742E-03  -1.039914E-03   1.052720E-03
   17 C6         -3.523093E-03  -6.306274E-03   3.061071E-03
   18 C7         -7.901697E-03  -9.611103E-03  -1.627884E-03
   19 C8          1.238723E-03   6.098890E-04  -1.309367E-03
   20 C9         -1.948977E-03   1.167220E-03   9.978030E-04
   21 C10         1.830894E-03  -3.829562E-04  -7.032717E-04
   22 C11        -2.961634E-04  -5.496864E-03  -1.804771E-03
   23 C12         1.105415E-03   9.177483E-04  -1.678905E-03
   24 C13         3.375203E-04   4.916075E-04   2.122093E-04
   25 C14        -3.357428E-04   1.892588E-03   1.728683E-04
   26 C15        -2.491790E-05  -2.372960E-04   8.479756E-04
   27 C16        -1.680744E-04  -1.223618E-03   8.687708E-04
   28 C17        -3.022251E-03  -4.027230E-03  -1.037460E-02
   29 C18         2.814209E-04  -1.523464E-04  -2.916633E-04
   30 C19        -6.936954E-03   4.504819E-03  -1.802322E-02
   31 C20         5.404939E-04  -1.041230E-03  -4.963699E-04
   32 C21         1.903746E-03   5.146294E-04  -7.479907E-04
   33 C22         1.387906E-03   2.002265E-04  -2.751756E-04
   34 H23        -5.380494E-03  -6.622862E-03  -1.560584E-04
   35 H24         2.579376E-04  -1.113368E-03  -1.864533E-04
   36 H25        -5.736407E-05  -1.484946E-03   5.432675E-04
   37 H26        -7.735776E-04  -3.967905E-04  -1.805042E-03
   38 H27        -6.236972E-05   9.715276E-04   7.909567E-04
   39 H28        -5.136075E-05   2.362609E-04  -1.937702E-04
   40 H29        -7.518337E-05   3.389389E-04   1.192640E-04
   41 H30         5.788777E-05  -5.423704E-05   3.364811E-04
   42 H31         1.624093E-04   1.989580E-04   5.666042E-04
   43 H32        -2.043026E-04   1.828726E-05  -2.796552E-03
   44 H33        -8.076519E-05   3.300658E-04   1.128476E-03
   45 H34         1.503785E-03   1.536584E-03  -2.443133E-02
   46 H35         3.922746E-05  -4.467192E-04  -6.207467E-04
   47 H36        -1.865689E-04   1.792899E-04  -1.294870E-04
   48 H37        -2.298781E-04  -1.070342E-04   4.040220E-05
   49 H38        -1.808154E-03   9.430647E-03  -3.669375E-02
   50 H39         7.863654E-04  -1.359367E-04   1.892712E-04
   51 H40        -1.380633E-03   1.493761E-03  -1.855378E-03
   52 H41        -1.913886E-04  -6.739441E-04   3.465379E-03
   53 H42         2.378775E-04  -1.829089E-04   3.531787E-04
   54 H43         1.030949E-04  -2.029170E-04   6.749499E-04
   55 H44        -1.583340E-03   7.081101E-04   2.086057E-03
   56 H45         1.516036E-04  -1.029281E-04   6.142478E-04
   57 H46         2.515061E-05  -3.936173E-04  -7.971202E-04
   58 H47         1.373678E-04  -1.458652E-05  -2.368921E-04
   59 H48        -1.736197E-04   2.369640E-04   2.207335E-04
   60 H49         1.929641E-05  -1.675725E-04   2.748076E-04
   61 N104        3.983811E-03   3.995539E-03  -3.449405E-05
   62 H105       -9.647328E-04   2.207956E-03   2.186184E-03
   63 C107       -1.681853E-03  -9.583472E-04   1.323124E-03
   64 C108       -6.715248E-04  -1.392653E-03  -2.136779E-03
   65 C109       -1.497410E-05   4.670897E-04   1.701396E-03
   66 C110       -1.595450E-03   2.655643E-05   1.578663E-03
   67 C111        4.776608E-04   4.557859E-04   1.110905E-03
   68 C112       -6.855901E-04  -5.038376E-04   3.498892E-04
   69 H113        6.205998E-05   5.816837E-04  -3.429528E-04
   70 H114       -6.101408E-04   4.220701E-05   1.003114E-04
   71 H115        2.543083E-04  -9.767427E-04   2.578294E-04
   72 H116       -5.160052E-04   1.246108E-04  -3.586563E-04
   73 H117       -3.145383E-04  -5.246938E-04  -1.861009E-04
   74 Na119       4.501377E-03   2.375555E-03  -1.353484E-02
   75 Br3         2.846992E-03  -4.372969E-03   4.283040E-03
 -------------   -------------  -------------  -------------
     total       -9.001674E-04  -9.255790E-04  -2.204340E-03
   
  end of program der1b
   
 Time(der1b)  user:     209.098  user+sys:     209.098  wallclock:      18.723
  
  start of program geopt
  
 ----------------------------------------------------------------------------
  Geometry optimization step  1
  Total energy:     -2039.46632078027 hartrees
 ----------------------------------------------------------------------------
  
  
  Level shifts adjusted to satisfy step-size constraints
   Step size:    0.3002499
   Cos(theta):   0.6196434
   Final level shift:  -3.3857130E-01
  
  gradient maximum:        4.5670E-01 .  (  2.2500E-03 )
  gradient rms:            4.2306E-02 .  (  1.5000E-03 )
  displacement maximum:    9.2434E-02 .  (  9.0000E-03 )
  displacement rms:        1.4379E-02 .  (  6.0000E-03 )
  
  predicted energy change:  -6.7873E-02
  step size:     0.22872
  trust radius:  0.30000
  
  molecular structure not yet converged...
  
  center of mass moved by:
     x:     9.2117E-02     y:     2.3646E-03     z:     8.7692E-03
  
  new geometry: 
                                   angstroms
  atom               x                 y                 z
  P1            0.0868989071     -0.0207607139      0.0583389970 
  Pd2           0.1051902999      0.0321982012      2.4053074515 
  C73           4.7412721518      1.0106053186      3.0737286766 
  C74           3.7918144113      2.0212997686      3.0468353205 
  C75           2.4522961408      1.6767166792      2.8522136250 
  C76           2.0702823320      0.3425636391      2.6685488837 
  C77           3.0398834568     -0.6511143235      2.7578097697 
  C78           4.3857787873     -0.3238434000      2.9498423096 
  F79           6.0404130580      1.3316956428      3.2492799545 
  H80           4.0971318308      3.0543582825      3.1878730612 
  H82           2.7624451520     -1.6944384150      2.7095724394 
  H83           5.1503432624     -1.0930964989      3.0201655211 
  H14           1.7079054728      2.4669773186      2.8748522644 
  C3            0.0498233935     -1.7850064277     -0.5046423848 
  C4            1.6933260054      0.6600694467     -0.7352446822 
  C5           -1.4512311887      0.7168805184     -0.7733619897 
  C6           -0.3384615460     -2.7651783640      1.8675678558 
  C7            0.5310717960     -3.3740554936      2.7905170429 
  C8            0.1172119527     -3.6250596818      4.0937147243 
  C9           -1.1766810814     -3.2886138128      4.4946280050 
  C10          -2.0469664236     -2.6621317223      3.6053301192 
  C11          -1.6277561798     -2.3840683418      2.3038567083 
  C12          -0.0448903132     -2.8591767876      0.4072882885 
  C13           0.0719669512     -4.1738276948     -0.0744159969 
  C14           0.2732029595     -4.4466584374     -1.4210145499 
  C15           0.3517265162     -3.3907485578     -2.3242680903 
  C16           0.2436928184     -2.0838160520     -1.8646306216 
  C17           2.8211359156     -0.3434531763     -0.4356819544 
  C18           1.6235298368      0.8928532768     -2.2493156162 
  C19           2.0334454598      1.9983367275     -0.0585146812 
  C20          -1.4347946306      2.2387065059     -0.5677414839 
  C21          -2.6394095399      0.0902359037     -0.0234685171 
  C22          -1.6370810110      0.4158670605     -2.2686210955 
  H23           1.5173630903     -3.6823119139      2.4581309982 
  H24           0.8058836328     -4.0810926015      4.8005422228 
  H25          -1.4977260748     -3.4925142540      5.5134731410 
  H26          -3.0468025820     -2.3744393148      3.9207935366 
  H27          -2.3248499337     -1.9584000968      1.5864789349 
  H28          -0.0109819096     -4.9931012624      0.6359385636 
  H29           0.3587136332     -5.4756708189     -1.7616895570 
  H30           0.5092820068     -3.5789811069     -3.3836152767 
  H31           0.3190380584     -1.2833802496     -2.5883532552 
  H32           2.7128108741     -1.2724570654     -1.0050031532 
  H33           3.7817740296      0.1139903283     -0.7061645467 
  H34           2.8731185699     -0.5877335814      0.6319835361 
  H35           1.3933158518     -0.0163269967     -2.8116826444 
  H36           0.8974694635      1.6673926346     -2.5159148526 
  H37           2.6075627481      1.2395450773     -2.5932490254 
  H38           2.2497835952      1.8583219935      1.0150951016 
  H39           2.9338182437      2.4191936695     -0.5265906233 
  H40           1.2307238492      2.7368758688     -0.1510789400 
  H41          -1.2757465891      2.5156664468      0.4776448261 
  H42          -0.6664970302      2.7227515657     -1.1805240790 
  H43          -2.4061470293      2.6475738407     -0.8754366500 
  H44          -2.6252551784      0.3301432274      1.0418852620 
  H45          -3.5779075924      0.4778889442     -0.4411087974 
  H46          -2.6501371168     -1.0007939642     -0.1408864433 
  H47          -0.8016567712      0.7503577591     -2.8891638822 
  H48          -1.8153348085     -0.6471783955     -2.4535101287 
  H49          -2.5305333365      0.9554889055     -2.6108213239 
  N104          0.1102066022      0.1233374973      4.5092164690 
  H105          0.6423859289     -0.7081340265      4.7672876417 
  C107          0.6985549017      1.2165169059      5.1462488843 
  C108          1.7746564520      3.4656988317      6.4964365806 
  C109          1.7612049462      1.0798671460      6.0643337105 
  C110          0.1970755411      2.5188997274      4.9143590708 
  C111          0.7284851435      3.6176947070      5.5834677626 
  C112          2.2879449811      2.1859136032      6.7225489954 
  H113          2.1887875652      0.0916155520      6.2298062697 
  H114         -0.5992894412      2.6415838532      4.1808441026 
  H115          0.3271781027      4.6085492801      5.3751214774 
  H116          3.1200309508      2.0485898599      7.4112570415 
  H117          2.1953411294      4.3283730896      7.0073660782 
  Na119        -2.0367113959      0.5502289705      5.6531990456 
  Br3          -3.0875662495      1.3195774815      3.1755219052 
   
 
  bond lengths (angstroms):
 
 P1      -Pd2     :   2.347637      P1      -C3      :   1.852265
 P1      -C4      :   1.916745      P1      -C5      :   1.897811
 Pd2     -C76     :   2.006791      Pd2     -N104    :   2.105888
 C73     -C74     :   1.386974      C73     -C78     :   1.386534
 C73     -F79     :   1.349698      C74     -C75     :   1.396755
 C74     -H80     :   1.086425      C75     -C76     :   1.399868
 C75     -H14     :   1.085883      C76     -C77     :   1.391219
 C77     -C78     :   1.398362      C77     -H82     :   1.080659
 C78     -H83     :   1.086855      C3      -C12     :   1.412243
 C3      -C16     :   1.405859      C4      -C17     :   1.539075
 C4      -C18     :   1.533451      C4      -C19     :   1.537727
 C5      -C20     :   1.535742      C5      -C21     :   1.538438
 C5      -C22     :   1.536538      C6      -C7      :   1.406647
 C6      -C11     :   1.413462      C6      -C12     :   1.492460
 C7      -C8      :   1.390182      C7      -H23     :   1.085483
 C8      -C9      :   1.395739      C8      -H24     :   1.087125
 C9      -C10     :   1.393100      C9      -H25     :   1.087516
 C10     -C11     :   1.395310      C10     -H26     :   1.087178
 C11     -H27     :   1.087090      C12     -C13     :   1.404992
 C13     -C14     :   1.388618      C13     -H28     :   1.087517
 C14     -C15     :   1.391754      C14     -H29     :   1.087308
 C15     -C16     :   1.389608      C15     -H30     :   1.087415
 C16     -H31     :   1.081734      C17     -H32     :   1.094947
 C17     -H33     :   1.097835      C17     -H34     :   1.096487
 C18     -H35     :   1.093556      C18     -H36     :   1.094600
 C18     -H37     :   1.098547      C19     -H38     :   1.104103
 C19     -H39     :   1.098584      C19     -H40     :   1.094701
 C20     -H41     :   1.093085      C20     -H42     :   1.095483
 C20     -H43     :   1.097895      C21     -H44     :   1.092124
 C21     -H45     :   1.097942      C21     -H46     :   1.097382
 C22     -H47     :   1.093111      C22     -H48     :   1.093629
 C22     -H49     :   1.098431      N104    -H105    :   1.020373
 N104    -C107    :   1.395351      N104    -Na119   :   2.469856
 C107    -C109    :   1.410949      C107    -C110    :   1.414728
 C108    -C111    :   1.396814      C108    -C112    :   1.397298
 C108    -H117    :   1.087305      C109    -C112    :   1.390698
 C109    -H113    :   1.089426      C110    -C111    :   1.391924
 C110    -H114    :   1.089630      C111    -H115    :   1.089150
 C112    -H116    :   1.088827      Na119   -Br3     :   2.799121
 
  bond angles:
 
 C3      -P1      -Pd2     : 108.995745  C4      -P1      -Pd2     : 113.538549
 C4      -P1      -C3      : 103.253368  C5      -P1      -Pd2     : 115.827570
 C5      -P1      -C3      : 102.755264  C5      -P1      -C4      : 111.085306
 C76     -Pd2     -P1      :  98.178429  N104    -Pd2     -P1      : 178.772448
 N104    -Pd2     -C76     :  81.947646  C78     -C73     -C74     : 121.606717
 F79     -C73     -C74     : 119.214207  F79     -C73     -C78     : 119.167785
 C75     -C74     -C73     : 118.648181  H80     -C74     -C73     : 119.868618
 H80     -C74     -C75     : 121.479004  C76     -C75     -C74     : 121.004995
 H14     -C75     -C74     : 118.358066  H14     -C75     -C76     : 120.614390
 C75     -C76     -Pd2     : 115.583753  C77     -C76     -Pd2     : 125.479669
 C77     -C76     -C75     : 118.823399  C78     -C77     -C76     : 120.826688
 H82     -C77     -C76     : 120.516275  H82     -C77     -C78     : 118.631924
 C77     -C78     -C73     : 118.965784  H83     -C78     -C73     : 119.672943
 H83     -C78     -C77     : 121.352946  C12     -C3      -P1      : 121.974787
 C16     -C3      -P1      : 119.584751  C16     -C3      -C12     : 118.180200
 C17     -C4      -P1      : 107.575395  C18     -C4      -P1      : 115.123343
 C18     -C4      -C17     : 108.936032  C19     -C4      -P1      : 108.197593
 C19     -C4      -C17     : 108.645852  C19     -C4      -C18     : 108.208562
 C20     -C5      -P1      : 108.530384  C21     -C5      -P1      : 104.715397
 C21     -C5      -C20     : 110.281762  C22     -C5      -P1      : 116.638201
 C22     -C5      -C20     : 109.008963  C22     -C5      -C21     : 107.525540
 C11     -C6      -C7      : 118.557559  C12     -C6      -C7      : 119.546554
 C12     -C6      -C11     : 119.895306  C8      -C7      -C6      : 120.610990
 H23     -C7      -C6      : 118.926089  H23     -C7      -C8      : 120.415970
 C9      -C8      -C7      : 120.114106  H24     -C8      -C7      : 119.778642
 H24     -C8      -C9      : 120.106903  C10     -C9      -C8      : 120.276008
 H25     -C9      -C8      : 119.839775  H25     -C9      -C10     : 119.864151
 C11     -C10     -C9      : 119.825338  H26     -C10     -C9      : 120.550279
 H26     -C10     -C11     : 119.618540  C10     -C11     -C6      : 120.545713
 H27     -C11     -C6      : 119.130667  H27     -C11     -C10     : 120.059709
 C6      -C12     -C3      : 126.662194  C13     -C12     -C3      : 118.995243
 C13     -C12     -C6      : 114.252105  C14     -C13     -C12     : 121.895635
 H28     -C13     -C12     : 118.334098  H28     -C13     -C14     : 119.766276
 C15     -C14     -C13     : 119.240504  H29     -C14     -C13     : 120.077981
 H29     -C14     -C15     : 120.679188  C16     -C15     -C14     : 119.636493
 H30     -C15     -C14     : 120.603687  H30     -C15     -C16     : 119.755283
 C15     -C16     -C3      : 122.045772  H31     -C16     -C3      : 119.969570
 H31     -C16     -C15     : 117.983700  H32     -C17     -C4      : 112.303580
 H33     -C17     -C4      : 108.757726  H33     -C17     -H32     : 108.179318
 H34     -C17     -C4      : 111.686280  H34     -C17     -H32     : 108.781215
 H34     -C17     -H33     : 106.932669  H35     -C18     -C4      : 113.024755
 H36     -C18     -C4      : 112.215300  H36     -C18     -H35     : 108.869080
 H37     -C18     -C4      : 108.436918  H37     -C18     -H35     : 106.855122
 H37     -C18     -H36     : 107.133589  H38     -C19     -C4      : 111.155774
 H39     -C19     -C4      : 109.096981  H39     -C19     -H38     : 107.595662
 H40     -C19     -C4      : 112.813873  H40     -C19     -H38     : 108.146908
 H40     -C19     -H39     : 107.848377  H41     -C20     -C5      : 112.376008
 H42     -C20     -C5      : 111.744189  H42     -C20     -H41     : 108.721070
 H43     -C20     -C5      : 108.786491  H43     -C20     -H41     : 107.602005
 H43     -C20     -H42     : 107.408145  H44     -C21     -C5      : 112.086328
 H45     -C21     -C5      : 109.325863  H45     -C21     -H44     : 107.732859
 H46     -C21     -C5      : 111.122445  H46     -C21     -H44     : 108.838452
 H46     -C21     -H45     : 107.576088  H47     -C22     -C5      : 113.581161
 H48     -C22     -C5      : 112.003187  H48     -C22     -H47     : 109.028487
 H49     -C22     -C5      : 107.776683  H49     -C22     -H47     : 107.125329
 H49     -C22     -H48     : 106.994678  H105    -N104    -Pd2     : 102.630164
 C107    -N104    -Pd2     : 119.407682  C107    -N104    -H105    : 107.639408
 Na119   -N104    -Pd2     : 117.914419  Na119   -N104    -H105    : 118.493314
 Na119   -N104    -C107    :  91.125809  C109    -C107    -N104    : 122.598607
 C110    -C107    -N104    : 119.797473  C110    -C107    -C109    : 117.566716
 C112    -C108    -C111    : 118.722081  H117    -C108    -C111    : 120.702398
 H117    -C108    -C112    : 120.564812  C112    -C109    -C107    : 121.077931
 H113    -C109    -C107    : 118.834768  H113    -C109    -C112    : 120.060250
 C111    -C110    -C107    : 120.836910  H114    -C110    -C107    : 118.233151
 H114    -C110    -C111    : 120.913817  C110    -C111    -C108    : 120.946419
 H115    -C111    -C108    : 119.999358  H115    -C111    -C110    : 119.047666
 C109    -C112    -C108    : 120.844283  H116    -C112    -C108    : 119.907103
 H116    -C112    -C109    : 119.243067  Br3     -Na119   -N104    :  87.928541
 
  torsional angles:
 
 P1      -Pd2     -C76     -C75     :  96.002454
 P1      -Pd2     -C76     -C77     : -87.930480
 P1      -Pd2     -N104    -H105    :-162.354004
 P1      -Pd2     -N104    -C107    : -43.487279
 P1      -Pd2     -N104    -Na119   :  65.426286
 P1      -C3      -C12     -C6      :  10.238348
 P1      -C3      -C12     -C13     :-173.431778
 P1      -C3      -C16     -C15     : 173.817082
 P1      -C3      -C16     -H31     :  -5.819639
 P1      -C4      -C17     -H32     :  71.243239
 P1      -C4      -C17     -H33     :-169.057783
 P1      -C4      -C17     -H34     : -51.278668
 P1      -C4      -C18     -H35     : -59.341907
 P1      -C4      -C18     -H36     :  64.240959
 P1      -C4      -C18     -H37     :-177.621490
 P1      -C4      -C19     -H38     :  63.441142
 P1      -C4      -C19     -H39     :-178.068862
 P1      -C4      -C19     -H40     : -58.233206
 P1      -C5      -C20     -H41     : -50.342495
 P1      -C5      -C20     -H42     :  72.196932
 P1      -C5      -C20     -H43     :-169.385658
 P1      -C5      -C21     -H44     :  59.998389
 P1      -C5      -C21     -H45     : 179.380738
 P1      -C5      -C21     -H46     : -62.029494
 P1      -C5      -C22     -H47     : -58.251685
 P1      -C5      -C22     -H48     :  65.809417
 P1      -C5      -C22     -H49     :-176.764184
 Pd2     -P1      -C3      -C12     :   3.894877
 Pd2     -P1      -C3      -C16     :-170.136415
 Pd2     -P1      -C4      -C17     :  69.493260
 Pd2     -P1      -C4      -C18     :-168.871974
 Pd2     -P1      -C4      -C19     : -47.710451
 Pd2     -P1      -C5      -C20     :  69.796126
 Pd2     -P1      -C5      -C21     : -47.980112
 Pd2     -P1      -C5      -C22     :-166.668804
 Pd2     -C76     -C75     -C74     : 179.936368
 Pd2     -C76     -C75     -H14     :   1.692074
 Pd2     -C76     -C77     -C78     :-179.637006
 Pd2     -C76     -C77     -H82     :  -1.484754
 Pd2     -N104    -C107    -C109    :-121.469919
 Pd2     -N104    -C107    -C110    :  60.803665
 Pd2     -N104    -Na119   -Br3     : -14.115227
 C73     -C74     -C75     -C76     :  -0.887304
 C73     -C74     -C75     -H14     : 177.395672
 C73     -C78     -C77     -C76     :   1.092050
 C73     -C78     -C77     -H82     :-177.094384
 C74     -C73     -C78     -C77     :   1.719126
 C74     -C73     -C78     -H83     :-177.245572
 C74     -C75     -C76     -C77     :   3.591537
 C75     -C74     -C73     -C78     :  -1.812010
 C75     -C74     -C73     -F79     : 179.420775
 C75     -C76     -Pd2     -N104    : -82.764133
 C75     -C76     -C77     -C78     :  -3.686152
 C75     -C76     -C77     -H82     : 174.466101
 C76     -Pd2     -P1      -C3      :  99.872737
 C76     -Pd2     -P1      -C4      : -14.610347
 C76     -Pd2     -P1      -C5      :-144.911071
 C76     -Pd2     -N104    -H105    : -66.372250
 C76     -Pd2     -N104    -C107    :  52.494475
 C76     -Pd2     -N104    -Na119   : 161.408040
 C76     -C75     -C74     -H80     : 179.859135
 C76     -C77     -C78     -H83     :-179.961303
 C77     -C76     -Pd2     -N104    :  93.302933
 C77     -C76     -C75     -H14     :-174.652757
 C77     -C78     -C73     -F79     :-179.513101
 C78     -C73     -C74     -H80     : 177.453894
 F79     -C73     -C74     -H80     :  -1.313321
 F79     -C73     -C78     -H83     :   1.522201
 H80     -C74     -C75     -H14     :  -1.857889
 H82     -C77     -C78     -H83     :   1.852264
 C3      -P1      -Pd2     -N104    :-164.319633
 C3      -P1      -C4      -C17     : -48.369509
 C3      -P1      -C4      -C18     :  73.265257
 C3      -P1      -C4      -C19     :-165.573219
 C3      -P1      -C5      -C20     :-171.496396
 C3      -P1      -C5      -C21     :  70.727366
 C3      -P1      -C5      -C22     : -47.961326
 C3      -C12     -C6      -C7      :-126.696528
 C3      -C12     -C6      -C11     :  69.618710
 C3      -C12     -C13     -C14     :  -0.222580
 C3      -C12     -C13     -H28     :-179.493820
 C3      -C16     -C15     -C14     :  -0.282355
 C3      -C16     -C15     -H30     :-179.512336
 C4      -P1      -Pd2     -N104    :  81.197283
 C4      -P1      -C3      -C12     : 124.892622
 C4      -P1      -C3      -C16     : -49.138670
 C4      -P1      -C5      -C20     : -61.667681
 C4      -P1      -C5      -C21     :-179.443919
 C4      -P1      -C5      -C22     :  61.867389
 C5      -P1      -Pd2     -N104    : -49.103442
 C5      -P1      -C3      -C12     :-119.495588
 C5      -P1      -C3      -C16     :  66.473120
 C5      -P1      -C4      -C17     :-157.876370
 C5      -P1      -C4      -C18     : -36.241604
 C5      -P1      -C4      -C19     :  84.919920
 C6      -C7      -C8      -C9      :   0.807786
 C6      -C7      -C8      -H24     :-178.977489
 C6      -C11     -C10     -C9      :   1.716724
 C6      -C11     -C10     -H26     :-179.157687
 C6      -C12     -C3      -C16     :-175.649900
 C6      -C12     -C13     -C14     : 176.548883
 C6      -C12     -C13     -H28     :  -2.722358
 C7      -C6      -C11     -C10     :  -2.862371
 C7      -C6      -C11     -H27     :-176.965137
 C7      -C6      -C12     -C13     :  56.824118
 C7      -C8      -C9      -C10     :  -2.004180
 C7      -C8      -C9      -H25     : 179.627358
 C8      -C7      -C6      -C11     :   1.597386
 C8      -C7      -C6      -C12     :-162.304923
 C8      -C9      -C10     -C11     :   0.738698
 C8      -C9      -C10     -H26     :-178.378613
 C9      -C8      -C7      -H23     :-176.673425
 C9      -C10     -C11     -H27     : 175.764731
 C10     -C9      -C8      -H24     : 177.780385
 C10     -C11     -C6      -C12     : 160.982373
 C11     -C6      -C7      -H23     : 179.115662
 C11     -C6      -C12     -C13     :-106.860645
 C11     -C10     -C9      -H25     : 179.106761
 C12     -C3      -C16     -C15     :  -0.439691
 C12     -C3      -C16     -H31     : 179.923588
 C12     -C6      -C7      -H23     :  15.213353
 C12     -C6      -C11     -H27     : -13.120393
 C12     -C13     -C14     -C15     :  -0.503295
 C12     -C13     -C14     -H29     :-179.952193
 C13     -C12     -C3      -C16     :   0.679974
 C13     -C14     -C15     -C16     :   0.749460
 C13     -C14     -C15     -H30     : 179.972782
 C14     -C15     -C16     -H31     : 179.361274
 C15     -C14     -C13     -H28     : 178.757755
 C16     -C15     -C14     -H29     :-179.805043
 C17     -C4      -C18     -H35     :  61.553641
 C17     -C4      -C18     -H36     :-174.863493
 C17     -C4      -C18     -H37     : -56.725942
 C17     -C4      -C19     -H38     : -53.071219
 C17     -C4      -C19     -H39     :  65.418777
 C17     -C4      -C19     -H40     :-174.745567
 C18     -C4      -C17     -H32     : -54.172674
 C18     -C4      -C17     -H33     :  65.526304
 C18     -C4      -C17     -H34     :-176.694581
 C18     -C4      -C19     -H38     :-171.205481
 C18     -C4      -C19     -H39     : -52.715484
 C18     -C4      -C19     -H40     :  67.120172
 C19     -C4      -C17     -H32     :-171.845353
 C19     -C4      -C17     -H33     : -52.146375
 C19     -C4      -C17     -H34     :  65.632741
 C19     -C4      -C18     -H35     : 179.502536
 C19     -C4      -C18     -H36     : -56.914599
 C19     -C4      -C18     -H37     :  61.222952
 C20     -C5      -C21     -H44     : -56.576041
 C20     -C5      -C21     -H45     :  62.806309
 C20     -C5      -C21     -H46     :-178.603924
 C20     -C5      -C22     -H47     :  65.036839
 C20     -C5      -C22     -H48     :-170.902059
 C20     -C5      -C22     -H49     : -53.475660
 C21     -C5      -C20     -H41     :  63.829885
 C21     -C5      -C20     -H42     :-173.630687
 C21     -C5      -C20     -H43     : -55.213278
 C21     -C5      -C22     -H47     :-175.407638
 C21     -C5      -C22     -H48     : -51.346536
 C21     -C5      -C22     -H49     :  66.079863
 C22     -C5      -C20     -H41     :-178.339281
 C22     -C5      -C20     -H42     : -55.799853
 C22     -C5      -C20     -H43     :  62.617556
 C22     -C5      -C21     -H44     :-175.316834
 C22     -C5      -C21     -H45     : -55.934484
 C22     -C5      -C21     -H46     :  62.655284
 H23     -C7      -C8      -H24     :   3.541300
 H24     -C8      -C9      -H25     :  -0.588077
 H25     -C9      -C10     -H26     :  -0.010549
 H26     -C10     -C11     -H27     :  -5.109681
 H28     -C13     -C14     -H29     :  -0.691142
 H29     -C14     -C15     -H30     :  -0.581721
 H30     -C15     -C16     -H31     :   0.131292
 N104    -C107    -C109    -C112    :-177.338213
 N104    -C107    -C109    -H113    :   4.552775
 N104    -C107    -C110    -C111    : 177.121646
 N104    -C107    -C110    -H114    :  -4.325826
 H105    -N104    -C107    -C109    :  -5.199479
 H105    -N104    -C107    -C110    : 177.074105
 H105    -N104    -Na119   -Br3     :-138.804587
 C107    -N104    -Na119   -Br3     : 110.369956
 C107    -C109    -C112    -C108    :   0.258451
 C107    -C109    -C112    -H116    :-178.883987
 C107    -C110    -C111    -C108    :   0.312067
 C107    -C110    -C111    -H115    : 179.380455
 C108    -C111    -C110    -H114    :-178.201499
 C108    -C112    -C109    -H113    : 178.344481
 C109    -C107    -N104    -Na119   : 115.260622
 C109    -C107    -C110    -C111    :  -0.717692
 C109    -C107    -C110    -H114    : 177.834836
[...]
    H113     X    -0.00014  -0.00007   0.00135   0.00012   0.00002  -0.00016
    H113     Y     0.00039   0.00023  -0.00414  -0.00026  -0.00002   0.00042
    H113     Z    -0.00007  -0.00003   0.00099   0.00005   0.00002  -0.00007
    H114     X     0.00003   0.00046  -0.00643  -0.00042   0.00009   0.00028
    H114     Y     0.00001  -0.00004   0.00115   0.00007  -0.00001  -0.00002
    H114     Z     0.00004   0.00041  -0.00557  -0.00034   0.00010   0.00026
    H115     X     0.00020   0.00052  -0.00270  -0.00017   0.00014   0.00019
    H115     Y    -0.00058  -0.00149   0.00785   0.00048  -0.00042  -0.00055
    H115     Z     0.00015   0.00037  -0.00190  -0.00011   0.00010   0.00014
    H116     X    -0.00083  -0.00104   0.00490  -0.00002  -0.00030  -0.00055
    H116     Y     0.00015   0.00020  -0.00097  -0.00000   0.00005   0.00009
    H116     Z    -0.00066  -0.00082   0.00397  -0.00002  -0.00023  -0.00043
    H117     X    -0.00064  -0.00105   0.00452   0.00013  -0.00020  -0.00025
    H117     Y    -0.00112  -0.00184   0.00778   0.00022  -0.00034  -0.00044
    H117     Z    -0.00057  -0.00095   0.00411   0.00012  -0.00018  -0.00023
    Na119    X    -0.00000  -0.00000   0.00000   0.00000  -0.00000  -0.00000
    Na119    Y     0.00000   0.00000   0.00000  -0.00000   0.00001  -0.00001
    Na119    Z     0.00000   0.00000  -0.00000   0.00000   0.00000   0.00000
    Br3      X     0.00000  -0.00000  -0.00000   0.00000   0.00001   0.00001
    Br3      Y     0.00000  -0.00001   0.00000   0.00000   0.00000  -0.00000
    Br3      Z     0.00000  -0.00001   0.00000  -0.00000   0.00000  -0.00000
  
  vibration #          217       218       219
                 --------- --------- ---------
  frequencies      3248.80   3255.48   3498.26
  intensities         5.09      2.58      0.16
  reduc. mass         0.87      0.87      0.94
  force const         5.42      5.46      6.78
    P1       X     0.00005   0.00000  -0.00001
    P1       Y    -0.00000   0.00000  -0.00001
    P1       Z    -0.00012   0.00000   0.00000
    Pd2      X    -0.00000   0.00001   0.00005
    Pd2      Y    -0.00000  -0.00001  -0.00001
    Pd2      Z    -0.00000   0.00000  -0.00002
    C73      X    -0.00000   0.00015  -0.00001
    C73      Y     0.00001   0.00013  -0.00003
    C73      Z    -0.00000   0.00007  -0.00001
    C74      X    -0.00003   0.00013  -0.00005
    C74      Y    -0.00003   0.00013   0.00000
    C74      Z    -0.00001   0.00008   0.00002
    C75      X     0.00004   0.00003   0.00005
    C75      Y    -0.00007  -0.00010  -0.00011
    C75      Z    -0.00004  -0.00010  -0.00004
    C76      X     0.00004  -0.00023   0.00005
    C76      Y     0.00000   0.00036   0.00008
    C76      Z    -0.00001   0.00012  -0.00011
    C77      X    -0.00006  -0.00535  -0.00009
    C77      Y    -0.00005  -0.00787   0.00002
    C77      Z    -0.00005  -0.00452   0.00001
    C78      X     0.00004   0.00104   0.00004
    C78      Y    -0.00006  -0.00149   0.00001
    C78      Z    -0.00003  -0.00051   0.00003
    F79      X    -0.00001  -0.00003   0.00001
    F79      Y     0.00000  -0.00001   0.00000
    F79      Z     0.00000  -0.00001  -0.00000
    H80      X     0.00020  -0.00109   0.00013
    H80      Y     0.00028  -0.00158   0.00015
    H80      Z     0.00012  -0.00047   0.00007
    H82      X     0.00068   0.07098   0.00005
    H82      Y     0.00078   0.09878  -0.00001
    H82      Z     0.00057   0.04405  -0.00019
    H83      X    -0.00041  -0.00830   0.00002
    H83      Y     0.00080   0.01531  -0.00005
    H83      Z     0.00025   0.00535  -0.00003
    H14      X    -0.00037  -0.00060  -0.00047
    H14      Y     0.00079   0.00105   0.00126
    H14      Z     0.00028   0.00021   0.00030
    C3       X    -0.00114  -0.00012  -0.00000
    C3       Y     0.00088   0.00004   0.00000
    C3       Z     0.00222   0.00004  -0.00001
    C4       X     0.00008  -0.00000   0.00000
    C4       Y    -0.00014  -0.00000   0.00000
    C4       Z     0.00002  -0.00000   0.00002
    C5       X    -0.00001   0.00001   0.00000
    C5       Y    -0.00009  -0.00001   0.00000
    C5       Z    -0.00007  -0.00001  -0.00000
    C6       X     0.00000  -0.00112   0.00003
    C6       Y     0.00003   0.00015   0.00001
    C6       Z     0.00005  -0.00276   0.00002
    C7       X    -0.00059   0.08175  -0.00018
    C7       Y    -0.00002   0.00307  -0.00006
    C7       Z    -0.00002   0.00096  -0.00003
    C8       X    -0.00000   0.00300  -0.00001
    C8       Y    -0.00000  -0.00044  -0.00012
    C8       Z    -0.00004   0.01021   0.00000
    C9       X    -0.00001  -0.00131   0.00001
    C9       Y    -0.00000  -0.00011   0.00001
    C9       Z     0.00004   0.00073   0.00004
    C10      X    -0.00015  -0.00121   0.00001
    C10      Y    -0.00001  -0.00011   0.00000
    C10      Z     0.00002  -0.00009  -0.00002
    C11      X    -0.00027  -0.00072  -0.00002
    C11      Y    -0.00003  -0.00003   0.00000
    C11      Z    -0.00051  -0.00018  -0.00001
    C12      X    -0.00017   0.00018   0.00000
    C12      Y    -0.00049  -0.00006  -0.00000
    C12      Z     0.00040   0.00016  -0.00000
    C13      X    -0.00056  -0.00022   0.00000
    C13      Y    -0.00124  -0.00035   0.00000
    C13      Z     0.00129   0.00040  -0.00000
    C14      X     0.00025   0.00004  -0.00000
    C14      Y    -0.00331  -0.00016   0.00000
    C14      Z     0.00010  -0.00007   0.00000
    C15      X     0.00694   0.00004  -0.00000
    C15      Y    -0.00496  -0.00002   0.00000
    C15      Z    -0.01317  -0.00006   0.00000
    C16      X     0.01943   0.00012   0.00000
    C16      Y     0.06070   0.00041  -0.00000
    C16      Z    -0.05056  -0.00035   0.00000
    C17      X    -0.00064   0.00003   0.00000
    C17      Y    -0.00236  -0.00005   0.00000
    C17      Z    -0.00303   0.00012   0.00000
    C18      X     0.00024  -0.00000  -0.00000
    C18      Y    -0.00085  -0.00001  -0.00000
    C18      Z    -0.00077  -0.00001  -0.00000
    C19      X     0.00000  -0.00003   0.00000
    C19      Y     0.00004   0.00002   0.00001
    C19      Z    -0.00018  -0.00005  -0.00002
    C20      X    -0.00000   0.00000  -0.00000
    C20      Y    -0.00001   0.00001   0.00000
    C20      Z    -0.00006  -0.00000  -0.00000
    C21      X    -0.00004  -0.00003  -0.00000
    C21      Y    -0.00001   0.00003  -0.00000
    C21      Z    -0.00007  -0.00007   0.00000
    C22      X     0.00016   0.00001  -0.00000
    C22      Y    -0.00146   0.00000   0.00000
    C22      Z     0.00022  -0.00001  -0.00000
    H23      X     0.00703  -0.93826   0.00148
    H23      Y     0.00034  -0.04191   0.00001
    H23      Z     0.00005  -0.00585  -0.00035
    H24      X     0.00010  -0.04912  -0.00128
    H24      Y    -0.00001   0.00299  -0.00065
    H24      Z     0.00014  -0.08772  -0.00076
    H25      X     0.00023   0.00547   0.00010
    H25      Y     0.00006   0.00088  -0.00001
    H25      Z    -0.00044  -0.00788  -0.00013
    H26      X     0.00168   0.01219  -0.00001
    H26      Y     0.00013   0.00096  -0.00001
    H26      Z    -0.00004   0.00019   0.00002
    H27      X     0.00318   0.00158   0.00006
    H27      Y     0.00034   0.00012   0.00001
    H27      Z     0.00549   0.00199   0.00007
    H28      X     0.00490   0.00189  -0.00001
    H28      Y     0.01369   0.00450  -0.00001
    H28      Z    -0.01159  -0.00341   0.00002
    H29      X    -0.00576  -0.00046   0.00000
    H29      Y     0.02910   0.00186  -0.00001
    H29      Z     0.00624   0.00055  -0.00000
    H30      X    -0.06997  -0.00037   0.00001
    H30      Y     0.03040   0.00016  -0.00001
    H30      Z     0.13612   0.00072  -0.00001
    H31      X    -0.22708  -0.00158   0.00001
    H31      Y    -0.70034  -0.00482   0.00001
    H31      Z     0.58262   0.00414  -0.00001
    H32      X    -0.00180  -0.00004  -0.00000
    H32      Y     0.02794   0.00038   0.00000
    H32      Z     0.00944   0.00024   0.00000
    H33      X     0.00055   0.00023  -0.00003
    H33      Y     0.00066   0.00023  -0.00001
    H33      Z    -0.00103  -0.00014  -0.00001
    H34      X     0.01027  -0.00055  -0.00004
    H34      Y     0.00125  -0.00005  -0.00001
    H34      Z     0.03070  -0.00164  -0.00001
    H35      X    -0.00043   0.00000   0.00000
    H35      Y     0.02265   0.00018   0.00001
    H35      Z     0.00995   0.00009   0.00001
    H36      X    -0.00349   0.00003  -0.00000
    H36      Y     0.00044  -0.00002   0.00001
    H36      Z    -0.00145   0.00000  -0.00001
    H37      X     0.00089   0.00004  -0.00003
    H37      Y    -0.00047   0.00002  -0.00003
    H37      Z    -0.00061  -0.00002   0.00004
    H38      X     0.00037   0.00007   0.00005
    H38      Y    -0.00038  -0.00005  -0.00006
    H38      Z     0.00156   0.00056   0.00023
    H39      X    -0.00033  -0.00004  -0.00002
    H39      Y    -0.00027  -0.00003  -0.00002
    H39      Z     0.00025   0.00002  -0.00000
    H40      X    -0.00068   0.00026  -0.00001
    H40      Y     0.00052  -0.00013   0.00000
    H40      Z     0.00001   0.00004  -0.00001
    H41      X    -0.00004   0.00001   0.00002
    H41      Y     0.00054   0.00001   0.00001
    H41      Z     0.00122  -0.00001  -0.00006
    H42      X    -0.00006  -0.00006  -0.00001
    H42      Y    -0.00002  -0.00007  -0.00001
    H42      Z     0.00000   0.00005   0.00003
    H43      X     0.00051   0.00001  -0.00001
    H43      Y    -0.00024  -0.00001   0.00001
    H43      Z     0.00016  -0.00000  -0.00000
    H44      X    -0.00011  -0.00005   0.00000
    H44      Y     0.00005   0.00012  -0.00004
    H44      Z     0.00078   0.00096  -0.00007
    H45      X     0.00060   0.00031  -0.00001
    H45      Y    -0.00025  -0.00013   0.00000
    H45      Z     0.00021   0.00015  -0.00001
    H46      X    -0.00010   0.00005  -0.00001
    H46      Y     0.00049  -0.00038   0.00006
    H46      Z    -0.00005  -0.00019   0.00004
    H47      X     0.00392  -0.00010  -0.00001
    H47      Y     0.00383  -0.00012  -0.00001
    H47      Z    -0.00386   0.00011   0.00001
    H48      X    -0.00349  -0.00001   0.00000
    H48      Y     0.01320   0.00010   0.00000
    H48      Z     0.00204   0.00001   0.00000
    H49      X    -0.00271  -0.00004  -0.00001
    H49      Y     0.00067   0.00002   0.00000
    H49      Z    -0.00039  -0.00003  -0.00002
    N104     X    -0.00001   0.00011   0.03401
    N104     Y    -0.00000  -0.00008  -0.05778
    N104     Z    -0.00001   0.00004   0.01342
    H105     X     0.00003  -0.00130  -0.50052
    H105     Y     0.00003   0.00051   0.79889
    H105     Z    -0.00003  -0.00132  -0.19590
    C107     X     0.00001  -0.00005   0.00263
    C107     Y     0.00002   0.00000  -0.00054
    C107     Z     0.00001  -0.00004   0.00128
    C108     X     0.00001   0.00000   0.00004
    C108     Y     0.00001  -0.00000   0.00016
    C108     Z     0.00001   0.00000   0.00004
    C109     X    -0.00001   0.00002   0.00010
    C109     Y    -0.00001  -0.00002   0.00074
    C109     Z    -0.00000   0.00001   0.00020
    C110     X     0.00001   0.00002  -0.00036
    C110     Y    -0.00001   0.00001   0.00058
    C110     Z     0.00001   0.00002  -0.00038
    C111     X    -0.00000   0.00000   0.00003
    C111     Y     0.00001  -0.00002  -0.00009
    C111     Z    -0.00000  -0.00000   0.00012
    C112     X     0.00002  -0.00001  -0.00016
    C112     Y    -0.00000   0.00000  -0.00013
    C112     Z     0.00001  -0.00001  -0.00002
    H113     X    -0.00001  -0.00012  -0.00173
    H113     Y     0.00005   0.00021  -0.00029
    H113     Z    -0.00001  -0.00004  -0.00269
    H114     X    -0.00013  -0.00013   0.00114
    H114     Y     0.00004   0.00003   0.00083
    H114     Z    -0.00010  -0.00011   0.00055
    H115     X     0.00005  -0.00006  -0.00031
    H115     Y    -0.00014   0.00022  -0.00057
    H115     Z     0.00004  -0.00004  -0.00026
    H116     X    -0.00018   0.00009   0.00020
    H116     Y     0.00003  -0.00002  -0.00006
    H116     Z    -0.00014   0.00008   0.00014
    H117     X    -0.00008   0.00002  -0.00023
    H117     Y    -0.00015   0.00005  -0.00049
    H117     Z    -0.00008   0.00002  -0.00060
    Na119    X    -0.00000   0.00001  -0.00000
    Na119    Y     0.00000   0.00000  -0.00008
    Na119    Z     0.00000   0.00001   0.00006
    Br3      X     0.00000   0.00000  -0.00001
    Br3      Y     0.00000  -0.00000   0.00001
    Br3      Z     0.00000  -0.00000   0.00000
  
  Number of imaginary frequencies:   1
   
  Writing vibrational animation data to L_Ar_Br_N_Na_N_trans_PL139.vib
  Writing IR vibrational spectrum data to L_Ar_Br_N_Na_N_trans_PL139_vib.spm
  rotational symmetry number:  1

  rotational temperatures (K):      0.004730      0.003925      0.003234
   
  The Quasi-Harmonic approximation will be applied to compute
  vibrational constributions to thermodynamic properties.
  Frequencies will be adjusted to a minimum value of  100.00 cm^-1.

    1 vibrational frequencies below    0.0 cm-1 not included in zero-point
  energy or thermochemical analysis.  Set freqcut to change the frequency
  cutoff value.

  vibrational temperatures:
       mode:      2        3        4        5        6        7
  temp. (K):   143.88   143.88   143.88   143.88   143.88   143.88
   
       mode:      8        9       10       11       12       13
  temp. (K):   143.88   143.88   143.88   143.88   143.88   143.88
   
       mode:     14       15       16       17       18       19
  temp. (K):   157.82   160.43   167.77   177.17   189.23   204.51
   
       mode:     20       21       22       23       24       25
  temp. (K):   207.04   211.59   216.86   232.34   242.25   245.69
   
       mode:     26       27       28       29       30       31
  temp. (K):   275.49   281.64   290.59   303.68   312.13   320.91
   
       mode:     32       33       34       35       36       37
  temp. (K):   329.41   354.68   358.32   365.74   367.18   400.69
   
       mode:     38       39       40       41       42       43
  temp. (K):   408.20   423.27   445.42   459.46   483.59   500.37
   
       mode:     44       45       46       47       48       49
  temp. (K):   514.94   525.26   535.31   542.50   573.71   586.77
   
       mode:     50       51       52       53       54       55
  temp. (K):   590.33   604.44   611.32   615.12   635.01   644.07
   
       mode:     56       57       58       59       60       61
  temp. (K):   653.97   713.69   727.30   729.35   751.84   773.64
   
       mode:     62       63       64       65       66       67
  temp. (K):   798.63   809.46   814.49   816.42   825.20   843.88
   
       mode:     68       69       70       71       72       73
  temp. (K):   863.48   903.73   908.65   908.96   923.08   989.27
   
       mode:     74       75       76       77       78       79
  temp. (K):  1032.86  1035.30  1045.76  1103.45  1106.30  1127.72
   
       mode:     80       81       82       83       84       85
  temp. (K):  1130.31  1139.92  1187.78  1193.65  1198.91  1202.53
   
       mode:     86       87       88       89       90       91
  temp. (K):  1208.20  1210.78  1219.46  1245.95  1260.63  1303.75
   
       mode:     92       93       94       95       96       97
  temp. (K):  1305.91  1359.39  1370.40  1378.06  1382.55  1392.87
   
       mode:     98       99      100      101      102      103
  temp. (K):  1394.62  1409.47  1414.19  1421.38  1422.61  1432.08
   
       mode:    104      105      106      107      108      109
  temp. (K):  1439.01  1439.71  1446.74  1454.69  1464.20  1468.91
   
       mode:    110      111      112      113      114      115
  temp. (K):  1479.61  1480.87  1508.33  1508.46  1521.24  1527.66
   
       mode:    116      117      118      119      120      121
  temp. (K):  1529.49  1535.97  1542.75  1547.09  1603.08  1605.62
   
       mode:    122      123      124      125      126      127
  temp. (K):  1616.58  1632.65  1672.93  1723.99  1728.66  1732.29
   
       mode:    128      129      130      131      132      133
  temp. (K):  1733.73  1741.28  1744.15  1754.01  1764.70  1772.34
   
       mode:    134      135      136      137      138      139
  temp. (K):  1774.41  1789.62  1796.40  1805.08  1845.23  1848.10
   
       mode:    140      141      142      143      144      145
  temp. (K):  1877.15  1881.04  1905.33  1920.88  1928.90  1939.13
   
       mode:    146      147      148      149      150      151
  temp. (K):  1982.89  1983.65  2010.04  2050.61  2052.16  2052.77
   
       mode:    152      153      154      155      156      157
  temp. (K):  2055.58  2063.27  2098.92  2110.26  2117.75  2138.22
   
       mode:    158      159      160      161      162      163
  temp. (K):  2158.63  2163.12  2168.44  2172.77  2176.85  2180.79
   
       mode:    164      165      166      167      168      169
  temp. (K):  2183.76  2187.55  2199.54  2201.78  2207.32  2210.71
   
       mode:    170      171      172      173      174      175
  temp. (K):  2211.35  2220.71  2228.93  2239.76  2241.06  2335.32
   
       mode:    176      177      178      179      180      181
  temp. (K):  2350.14  2358.12  2360.42  2375.42  2380.00  2391.46
   
       mode:    182      183      184      185      186      187
  temp. (K):  2404.60  4383.10  4385.56  4387.90  4388.20  4397.09
   
       mode:    188      189      190      191      192      193
  temp. (K):  4400.51  4489.59  4493.92  4495.47  4503.48  4513.37
   
       mode:    194      195      196      197      198      199
  temp. (K):  4521.31  4544.64  4549.09  4553.83  4562.76  4564.85
   
       mode:    200      201      202      203      204      205
  temp. (K):  4575.38  4578.92  4582.76  4585.73  4594.20  4597.98
   
       mode:    206      207      208      209      210      211
  temp. (K):  4599.98  4602.86  4606.04  4610.31  4611.11  4621.30
   
       mode:    212      213      214      215      216      217
  temp. (K):  4621.51  4628.05  4658.25  4662.26  4663.33  4674.29
   
       mode:    218      219
  temp. (K):  4683.90  5033.21
   
   
  Thermodynamic properties calculated assuming an ideal gas

  In the table below, the units for temperature
  are kelvins, the units for U, H, and G are
  kcal/mol and the units for Cv and S are cal/(mol K)

  The zero point energy (ZPE):    387.677 kcal/mol
  is not included in U, H, or G in the table below
  
 
  =============================================================================
  Thermodynamic properties for P = 1.00E+00 atm, calculated at   1 temperatures


  T =   298.15 K, P = 1.00E+00 atm
   
                  U         Cv          S          H          G        ln(Q)
              =========  =========  =========  =========  =========  =========
  trans.          0.889      2.981     45.489      1.481    -12.081   20.39083
  rot.            0.889      2.981     37.624      0.889    -10.329   17.43290
  vib.           22.140    144.514    134.631     22.140    -18.001   30.38144
  elec.           0.000      0.000      0.000      0.000      0.000    0.00000
  ----------------------------------------------------------------------------
  total          23.917    150.475    217.744     24.510    -40.411   68.20518
   
   Total internal energy, Utot(SCFE + ZPE + U):   -2038.906920 hartrees
   Total enthalpy, Htot (Utot + nRT), with n=1:   -2038.905976 hartrees
    Total Gibbs free energy, Gtot (Htot - T*S):   -2039.009433 hartrees
   
  end of program freq
   
 Time(freq)  user:       0.789  user+sys:       0.789  wallclock:       0.440
  
  start of program post
  
  Writing input files for PBF
  end of program post
   
 Time(post)  user:       0.306  user+sys:       0.306  wallclock:       0.166

 Total cpu seconds     user:  131028.279   user+sys:  131028.279
  
 Total elapsed time:    15643 seconds

Job L_Ar_Br_N_Na_N_trans_PL139 completed on bp1-compute088 at Tue Dec  2 18:13:39 2025
