Job L_Ar_OtBu_N_Ar_trans_PL139 started on bp1-compute147.data.bp.acrc.priv at Tue Nov 25 13:36:19 2025
jobid: bp1-compute147-0-6925b0b1

  +--------------------------------------------------------------------+
  |  Jaguar version 12.5, release 138                                  |
  |                                                                    |
  |  Copyright Schrodinger, Inc.                                       |
  |  All Rights Reserved.                                              |
  |                                                                    |
  |  The following have contributed to Jaguar (listed alphabetically): |
  |  Ty Balduf, Mike Beachy, Chandler Bennett, Art Bochevarov,         |
  |  Dale Braden, Yixiang Cao, Alan Chien, Chris Cortis,               |
  |  Rich Friesner, Jim Furness, Bill Goddard, Hod Greeley,            |
  |  Tom Hughes, Leif Jacobson, Jean-Marc Langlois, Daniel Levine,     |
  |  Rob Murphy, Dean Philipp, Tom Pollard, Murco Ringnalda,           |
  |  Daniel Mainz, Pablo Videla, Mark Watson, Haoyu Yu.                |
  |                                                                    |
  |  Use of this program should be acknowledged in publications as:    |
  |                                                                    |
  |  Jaguar, version 12.5, Schrodinger, Inc., New York, NY, 2024.      |
  |                                                                    |
  |  A. D. Bochevarov, E. Harder, T. F. Hughes, J. R. Greenwood,       |
  |  D. A. Braden, D. M. Philipp, D. Rinaldo, M. D. Halls,             |
  |  J. Zhang, R. A. Friesner, "Jaguar: A High-Performance Quantum     |
  |  Chemistry Software Program with Strengths in Life and Materials   |
  |  Sciences", Int. J. Quantum Chem., 2013, 113(18), 2110-2142.       |
  +--------------------------------------------------------------------+
  
  start of program pre
  
  Job name: L_Ar_OtBu_N_Ar_trans_PL139
  Executables used: /software/local/apps/schrodinger2024-3/jaguar-v12.5/bin/Linux-x86_64
  Temporary files : /tmp/ar21627/L_Ar_OtBu_N_Ar_trans_PL139#bp1-compute147-0-6925b0b1
  Basis file : using default basis file from /software/local/apps/schrodinger2024-3
  Maestro file (input):  L_Ar_OtBu_N_Ar_trans_PL139.mae
  Maestro file (output): L_Ar_OtBu_N_Ar_trans_PL139.01.mae
  
 Contents of input file: &gen and (if present) &atomic sections only
 ----------------Contents start----------------
&gen
dftname=b3pw91-d3
basis=6-31G*
numd=5
ip11=2
iaccg=3
isolv=2
igeopt=1
solvent=benzene
ifreq=1
&
&atomic
atom basis
Pd2 lacv3p*
&
 -----------------Contents end-----------------
 
  PS calculation requested. Using PS version of 6-31g*
  basis set:               non_standard                    
  net molecular charge:    0
  multiplicity:            1
  
  Using up to  18 threads per process
  
  This run will use ECP on 1 atom
  number of basis functions....          689
  
 Input geometry:
                                   angstroms
  atom               x                 y                 z
  P1            0.0000000000      0.0000000000      0.0000000000 
  Pd2           0.0000000000      0.0000000000      2.4236441170 
  C73           0.8489310966      0.0892262537      7.1266272316 
  C74           0.0880111432     -0.9624853806      6.6314856829 
  C75          -0.2305141525     -0.9766861127      5.2730355460 
  C76           0.2313717179      0.0320419726      4.4229106077 
  C77           0.9548004863      1.1005756133      4.9582564449 
  C78           1.2811115483      1.1297243808      6.3183523732 
  F79           1.1677931242      0.1038759220      8.4412026313 
  H80          -0.2501455351     -1.7452219840      7.3059854059 
  H81          -0.8389824545     -1.7857903662      4.8780412145 
  H82           1.2896716921      1.9176768732      4.3225915244 
  H83           1.8552313335      1.9451983455      6.7510190140 
  C3            0.1588611535     -1.7624292054     -0.5145390721 
  C4            1.6017474140      0.7780829997     -0.6772902343 
  C5           -1.5715263447      0.6827234929     -0.8212351687 
  C6            0.2136662447     -2.4985000059      1.9681235840 
  C7            1.1126354941     -3.1425724265      2.8536320078 
  C8            0.7595613976     -3.3885711500      4.1722953269 
  C9           -0.5016729249     -3.0130919382      4.6516232783 
  C10          -1.3841849714     -2.3391858983      3.8189451315 
  C11          -1.0282542940     -2.0518334254      2.4929587594 
  C12           0.3561615804     -2.7253814898      0.4937877588 
  C13           0.6527971032     -4.0503334595      0.1313513932 
  C14           0.7450405914     -4.4362656105     -1.2011530023 
  C15           0.5341856669     -3.4895943000     -2.2018595104 
  C16           0.2499961817     -2.1725427329     -1.8555800120 
  C17           2.6434732873     -0.3560763889     -0.6872982954 
  C18           1.4876935201      1.3840617862     -2.0807276413 
  C19           2.0886954960      1.8580504785      0.3016758209 
  C20          -1.5411837249      2.2178572621     -0.7901395200 
  C21          -2.7169450800      0.1878154831      0.0801389519 
  C22          -1.8490828835      0.2139952883     -2.2550776547 
  H23           2.0694969689     -3.4848714983      2.4662594104 
  H24           1.4638061144     -3.8854458189      4.8343326476 
  H25          -0.7774562596     -3.2262142461      5.6805436536 
  H26          -2.3565131505     -2.0233448616      4.1880628760 
  H27          -1.7687292940     -1.6368317245      1.8139165992 
  H28           0.7928887249     -4.7880083629      0.9183443436 
  H29           0.9726827681     -5.4692870837     -1.4540042314 
  H30           0.6001383979     -3.7697067839     -3.2508152564 
  H31           0.1168708636     -1.4511417750     -2.6517040147 
  H32           2.4233623608     -1.1184004916     -1.4413252063 
  H33           3.6311821371      0.0681825217     -0.9108963904 
  H34           2.7066043054     -0.8495406903      0.2915166934 
  H35           1.2009086756      0.6466692311     -2.8355283740 
  H36           0.7783780457      2.2167643230     -2.1147233486 
  H37           2.4689352017      1.7810142848     -2.3758108415 
  H38           2.2703293766      1.4475205211      1.2983331444 
  H39           3.0326282828      2.2740408424     -0.0765252963 
  H40           1.3817469675      2.6830159476      0.4143187124 
  H41          -1.3173337416      2.6030392689      0.2084768139 
  H42          -0.8159710969      2.6295459301     -1.4998981825 
  H43          -2.5313939439      2.5939052483     -1.0816811990 
  H44          -2.6063229591      0.5537438623      1.1068033357 
  H45          -3.6752918884      0.5529344571     -0.3131494236 
  H46          -2.7650697437     -0.9080298128      0.0992838187 
  H47          -1.0509195742      0.4853642533     -2.9533516361 
  H48          -2.0141073277     -0.8665527324     -2.3091213558 
  H49          -2.7683813632      0.7021181589     -2.6072498220 
  N118          2.0602953211     -0.5978200018      2.4192772644 
  H119          1.9621943448     -1.6018557987      2.5859431431 
  H120          2.3305280565     -0.5083816444      1.4448251761 
  C121          3.0916734158     -0.0617854924      3.2542914860 
  C122          5.0623595420      0.9959985175      4.9225611841 
  C123          3.5558755207     -0.8020079671      4.3399170958 
  C124          3.6135899295      1.2055906002      2.9982219869 
  C125          4.6018618613      1.7282620426      3.8282209376 
  C126          4.5324672154     -0.2684271962      5.1757326684 
  H127          3.1215349789     -1.7762221596      4.5462586992 
  H128          3.2201640807      1.7934561215      2.1730270047 
  H129          5.0027325909      2.7194465350      3.6268222300 
  H130          4.8746088349     -0.8423491811      6.0339592902 
  H131          5.8233779777      1.4122333350      5.5787851451 
  O2           -1.9882246348      0.3738349948      2.6176673880 
  C104         -2.8018530964      0.9150528407      3.6286812659 
  C105         -2.9363904958     -0.0092258601      4.8501281447 
  C106         -2.3215961127      2.3021539186      4.0784920390 
  C107         -4.1951215101      1.0616196169      2.9876634248 
  H108         -1.9892032283     -0.0887459004      5.3852563965 
  H109         -3.6956039629      0.3688470520      5.5484407348 
  H110         -3.2323794377     -1.0137328624      4.5281315530 
  H111         -4.1600421623      1.7873722594      2.1694847523 
  H112         -4.5227430766      0.0993262995      2.5784803033 
  H113         -4.9393118260      1.4048772581      3.7182102900 
  H114         -3.0324304869      2.7674889372      4.7753212137 
  H115         -1.3532963098      2.2217598063      4.5780202281 
  H116         -2.2080572698      2.9595396654      3.2080499835 
   
  principal moments of inertia:
        amu*angstrom^2:              4276.71097              6557.43117              7330.35213
                g*cm^2:          7.10164477E-37          1.08888693E-36          1.21723346E-36
   
  rotational constants:
               cm^(-1):      0.00394173      0.00257077      0.00229970
                   GHz:      0.11817002      0.07706966      0.06894335
   
  Molecular weight:     665.24 amu
   
  Stoichiometry: PdC36PNH47OF
  Molecular Point Group: C1      
  Point Group used: C1
  
 
Number of optimization coordinates:   293
Number of independent coordinates:    293
Number of non-redundant coordinates:  258
Number of frozen coordinates:           0
Number of harmonic constraints:         0
 
Number of geometric degrees of freedom:   258
Maximum geometric degrees of freedom:     258
 " " " " " excluding dummy atoms:         258
 
 
  bond lengths (angstroms):
 
 P1      -Pd2     :   2.423644      P1      -C3      :   1.842863
 P1      -C4      :   1.905185      P1      -C5      :   1.900061
 Pd2     -C76     :   2.012865      Pd2     -N118    :   2.145280
 Pd2     -O2      :   2.032347      C73     -C74     :   1.389339
 C73     -C78     :   1.386623      C73     -F79     :   1.352773
 C74     -C75     :   1.395366      C74     -H80     :   1.087187
 C75     -C76     :   1.397706      C75     -H81     :   1.086694
 C76     -C77     :   1.397036      C77     -C78     :   1.398996
 C77     -H82     :   1.088055      C78     -H83     :   1.087112
 C3      -C12     :   1.408165      C3      -C16     :   1.405308
 C4      -C17     :   1.540003      C4      -C18     :   1.532924
 C4      -C19     :   1.536822      C5      -C20     :   1.535748
 C5      -C21     :   1.539283      C5      -C22     :   1.533834
 C6      -C7      :   1.416722      C6      -C11     :   1.420327
 C6      -C12     :   1.498481      C7      -C8      :   1.387101
 C7      -H23     :   1.087571      C8      -C9      :   1.400518
 C8      -H24     :   1.086802      C9      -C10     :   1.387923
 C9      -H25     :   1.086349      C10     -C11     :   1.402675
 C10     -H26     :   1.086934      C11     -H27     :   1.087027
 C12     -C13     :   1.405294      C13     -C14     :   1.390331
 C13     -H28     :   1.087726      C14     -C15     :   1.393578
 C14     -H29     :   1.087607      C15     -C16     :   1.391150
 C15     -H30     :   1.087714      C16     -H31     :   1.082569
 C17     -H32     :   1.094597      C17     -H33     :   1.097980
 C17     -H34     :   1.097985      C18     -H35     :   1.093489
 C18     -H36     :   1.094385      C18     -H37     :   1.098854
 C19     -H38     :   1.093093      C19     -H39     :   1.098678
 C19     -H40     :   1.092260      C20     -H41     :   1.093485
 C20     -H42     :   1.095070      C20     -H43     :   1.098601
 C21     -H44     :   1.095528      C21     -H45     :   1.098370
 C21     -H46     :   1.097069      C22     -H47     :   1.094665
 C22     -H48     :   1.094412      C22     -H49     :   1.098817
 N118    -H119    :   1.022492      N118    -H120    :   1.015176
 N118    -C121    :   1.431196      C121    -C123    :   1.393555
 C121    -C124    :   1.394350      C122    -C125    :   1.394937
 C122    -C126    :   1.394150      C122    -H131    :   1.087672
 C123    -C126    :   1.391771      C123    -H127    :   1.086426
 C124    -C125    :   1.392395      C124    -H128    :   1.086884
 C125    -H129    :   1.087982      C126    -H130    :   1.087658
 O2      -C104    :   1.406079      C104    -C105    :   1.537636
 C104    -C106    :   1.535261      C104    -C107    :   1.540644
 C105    -H108    :   1.090802      C105    -H109    :   1.098629
 C105    -H110    :   1.095594      C106    -H114    :   1.098814
 C106    -H115    :   1.092518      C106    -H116    :   1.096684
 C107    -H111    :   1.094241      C107    -H112    :   1.095799
 C107    -H113    :   1.097881
 
  bond angles:
 
 C3      -P1      -Pd2     : 106.212844  C4      -P1      -Pd2     : 110.823993
 C4      -P1      -C3      : 102.641283  C5      -P1      -Pd2     : 115.608215
 C5      -P1      -C3      : 107.112857  C5      -P1      -C4      : 113.263743
 C76     -Pd2     -P1      : 173.336185  N118    -Pd2     -P1      :  89.883371
 N118    -Pd2     -C76     :  84.034184  O2      -Pd2     -P1      :  95.478233
 O2      -Pd2     -C76     :  90.842292  O2      -Pd2     -N118    : 172.302274
 C78     -C73     -C74     : 122.072427  F79     -C73     -C74     : 118.921819
 F79     -C73     -C78     : 119.003128  C75     -C74     -C73     : 118.664756
 H80     -C74     -C73     : 119.620308  H80     -C74     -C75     : 121.713051
 C76     -C75     -C74     : 120.621013  H81     -C75     -C74     : 119.291952
 H81     -C75     -C76     : 120.086062  C75     -C76     -Pd2     : 123.686318
 C77     -C76     -Pd2     : 116.892037  C77     -C76     -C75     : 119.343752
 C78     -C77     -C76     : 120.614866  H82     -C77     -C76     : 120.656335
 H82     -C77     -C78     : 118.720902  C77     -C78     -C73     : 118.578871
 H83     -C78     -C73     : 119.702071  H83     -C78     -C77     : 121.718091
 C12     -C3      -P1      : 117.783935  C16     -C3      -P1      : 123.444072
 C16     -C3      -C12     : 118.337216  C17     -C4      -P1      : 105.678713
 C18     -C4      -P1      : 115.110289  C18     -C4      -C17     : 109.603623
 C19     -C4      -P1      : 109.082536  C19     -C4      -C17     : 107.899032
 C19     -C4      -C18     : 109.206804  C20     -C5      -P1      : 109.516600
 C21     -C5      -P1      : 104.290379  C21     -C5      -C20     : 108.919239
 C22     -C5      -P1      : 116.353079  C22     -C5      -C20     : 109.145808
 C22     -C5      -C21     : 108.330539  C11     -C6      -C7      : 117.829648
 C12     -C6      -C7      : 119.064589  C12     -C6      -C11     : 119.625340
 C8      -C7      -C6      : 120.884616  H23     -C7      -C6      : 118.603029
 H23     -C7      -C8      : 120.446874  C9      -C8      -C7      : 120.467113
 H24     -C8      -C7      : 119.685923  H24     -C8      -C9      : 119.843976
 C10     -C9      -C8      : 119.832022  H25     -C9      -C8      : 120.011681
 H25     -C9      -C10     : 120.136881  C11     -C10     -C9      : 120.349044
 H26     -C10     -C9      : 120.408347  H26     -C10     -C11     : 119.241787
 C10     -C11     -C6      : 120.448739  H27     -C11     -C6      : 119.003357
 H27     -C11     -C10     : 119.727950  C6      -C12     -C3      : 125.990984
 C13     -C12     -C3      : 119.316801  C13     -C12     -C6      : 114.618627
 C14     -C13     -C12     : 121.526910  H28     -C13     -C12     : 118.684946
 H28     -C13     -C14     : 119.777440  C15     -C14     -C13     : 119.315239
 H29     -C14     -C13     : 120.023344  H29     -C14     -C15     : 120.659980
 C16     -C15     -C14     : 119.689103  H30     -C15     -C14     : 120.556267
 H30     -C15     -C16     : 119.751582  C15     -C16     -C3      : 121.807590
 H31     -C16     -C3      : 119.955442  H31     -C16     -C15     : 118.226117
 H32     -C17     -C4      : 112.417795  H33     -C17     -C4      : 108.981417
 H33     -C17     -H32     : 108.042031  H34     -C17     -C4      : 111.351455
 H34     -C17     -H32     : 108.219508  H34     -C17     -H33     : 107.666620
 H35     -C18     -C4      : 112.637440  H36     -C18     -C4      : 112.175742
 H36     -C18     -H35     : 108.764261  H37     -C18     -C4      : 108.797039
 H37     -C18     -H35     : 107.003824  H37     -C18     -H36     : 107.191303
 H38     -C19     -C4      : 111.687057  H39     -C19     -C4      : 108.603658
 H39     -C19     -H38     : 108.258392  H40     -C19     -C4      : 113.039942
 H40     -C19     -H38     : 107.288149  H40     -C19     -H39     : 107.794412
 H41     -C20     -C5      : 112.002480  H42     -C20     -C5      : 112.071164
 H42     -C20     -H41     : 108.899510  H43     -C20     -C5      : 108.601162
 H43     -C20     -H41     : 107.835921  H43     -C20     -H42     : 107.231104
 H44     -C21     -C5      : 111.483865  H45     -C21     -C5      : 109.433148
 H45     -C21     -H44     : 108.217608  H46     -C21     -C5      : 111.347351
 H46     -C21     -H44     : 108.767174  H46     -C21     -H45     : 107.458957
 H47     -C22     -C5      : 112.867711  H48     -C22     -C5      : 112.034788
 H48     -C22     -H47     : 108.856956  H49     -C22     -C5      : 108.375776
 H49     -C22     -H47     : 107.184427  H49     -C22     -H48     : 107.254598
 H119    -N118    -Pd2     : 100.437544  H120    -N118    -Pd2     : 103.476755
 H120    -N118    -H119    : 105.575714  C121    -N118    -Pd2     : 125.911439
 C121    -N118    -H119    : 109.987547  C121    -N118    -H120    : 109.585113
 C123    -C121    -N118    : 119.710848  C124    -C121    -N118    : 120.200282
 C124    -C121    -C123    : 120.078672  C126    -C122    -C125    : 119.543784
 H131    -C122    -C125    : 120.225658  H131    -C122    -C126    : 120.228436
 C126    -C123    -C121    : 119.863484  H127    -C123    -C121    : 119.412922
 H127    -C123    -C126    : 120.680695  C125    -C124    -C121    : 119.827597
 H128    -C124    -C121    : 119.706655  H128    -C124    -C125    : 120.428306
 C124    -C125    -C122    : 120.324573  H129    -C125    -C122    : 120.120986
 H129    -C125    -C124    : 119.547775  C123    -C126    -C122    : 120.354837
 H130    -C126    -C122    : 120.152070  H130    -C126    -C123    : 119.491363
 C104    -O2      -Pd2     : 134.872715  C105    -C104    -O2      : 112.981345
 C106    -C104    -O2      : 112.174033  C106    -C104    -C105    : 109.738395
 C107    -C104    -O2      : 105.114449  C107    -C104    -C105    : 107.973190
 C107    -C104    -C106    : 108.593087  H108    -C105    -C104    : 110.949598
 H109    -C105    -C104    : 111.009518  H109    -C105    -H108    : 108.260253
 H110    -C105    -C104    : 109.956172  H110    -C105    -H108    : 108.175980
 H110    -C105    -H109    : 108.399059  H114    -C106    -C104    : 111.472604
 H115    -C106    -C104    : 110.165145  H115    -C106    -H114    : 108.334445
 H116    -C106    -C104    : 109.963645  H116    -C106    -H114    : 108.449036
 H116    -C106    -H115    : 108.376139  H111    -C107    -C104    : 110.194474
 H112    -C107    -C104    : 110.011113  H112    -C107    -H111    : 108.229372
 H113    -C107    -C104    : 111.462037  H113    -C107    -H111    : 108.173934
 H113    -C107    -H112    : 108.685590
 
  torsional angles:
 
 P1      -Pd2     -C76     -C75     :-126.422430
 P1      -Pd2     -C76     -C77     :  50.339769
 P1      -Pd2     -N118    -H119    : -99.562165
 P1      -Pd2     -N118    -H120    :   9.397747
 P1      -Pd2     -N118    -C121    : 136.206316
 P1      -Pd2     -O2      -C104    :-157.486098
 P1      -C3      -C12     -C6      :  11.429147
 P1      -C3      -C12     -C13     :-171.867248
 P1      -C3      -C16     -C15     : 171.903281
 P1      -C3      -C16     -H31     :  -6.876903
 P1      -C4      -C17     -H32     :  69.502453
 P1      -C4      -C17     -H33     :-170.748879
 P1      -C4      -C17     -H34     : -52.126068
 P1      -C4      -C18     -H35     : -60.317599
 P1      -C4      -C18     -H36     :  62.799031
 P1      -C4      -C18     -H37     :-178.783771
 P1      -C4      -C19     -H38     :  58.515580
 P1      -C4      -C19     -H39     : 177.831368
 P1      -C4      -C19     -H40     : -62.593747
 P1      -C5      -C20     -H41     : -49.923348
 P1      -C5      -C20     -H42     :  72.816202
 P1      -C5      -C20     -H43     :-168.906773
 P1      -C5      -C21     -H44     :  59.405271
 P1      -C5      -C21     -H45     : 179.083289
 P1      -C5      -C21     -H46     : -62.265764
 P1      -C5      -C22     -H47     : -60.163037
 P1      -C5      -C22     -H48     :  63.143216
 P1      -C5      -C22     -H49     :-178.716532
 Pd2     -P1      -C3      -C12     :  -5.068130
 Pd2     -P1      -C3      -C16     :-177.363023
 Pd2     -P1      -C4      -C17     :  84.287565
 Pd2     -P1      -C4      -C18     :-154.621836
 Pd2     -P1      -C4      -C19     : -31.490092
 Pd2     -P1      -C5      -C20     :  78.830852
 Pd2     -P1      -C5      -C21     : -37.609590
 Pd2     -P1      -C5      -C22     :-156.842647
 Pd2     -C76     -C75     -C74     : 173.089925
 Pd2     -C76     -C75     -H81     :  -6.548646
 Pd2     -C76     -C77     -C78     :-173.377805
 Pd2     -C76     -C77     -H82     :   5.586837
 Pd2     -N118    -C121    -C123    : 104.459331
 Pd2     -N118    -C121    -C124    : -74.379981
 Pd2     -O2      -C104    -C105    : -69.864047
 Pd2     -O2      -C104    -C106    :  54.815314
 Pd2     -O2      -C104    -C107    : 172.637326
 C73     -C74     -C75     -C76     :   1.362460
 C73     -C74     -C75     -H81     :-178.996125
 C73     -C78     -C77     -C76     :  -1.234097
 C73     -C78     -C77     -H82     : 179.781507
 C74     -C73     -C78     -C77     :  -1.065583
 C74     -C73     -C78     -H83     : 178.583037
 C74     -C75     -C76     -C77     :  -3.597292
 C75     -C74     -C73     -C78     :   1.002781
 C75     -C74     -C73     -F79     :-179.592941
 C75     -C76     -Pd2     -N118    :-102.217765
 C75     -C76     -Pd2     -O2      :  72.025181
 C75     -C76     -C77     -C78     :   3.531663
 C75     -C76     -C77     -H82     :-177.503696
 C76     -Pd2     -P1      -C3      :  92.733985
 C76     -Pd2     -P1      -C4      : -18.024583
 C76     -Pd2     -P1      -C5      :-148.633695
 C76     -Pd2     -N118    -H119    :  83.164861
 C76     -Pd2     -N118    -H120    :-167.875228
 C76     -Pd2     -N118    -C121    : -41.066658
 C76     -Pd2     -O2      -C104    :  20.399839
 C76     -C75     -C74     -H80     :-179.139021
 C76     -C77     -C78     -H83     : 179.124705
 C77     -C76     -Pd2     -N118    :  74.544435
 C77     -C76     -Pd2     -O2      :-111.212619
 C77     -C76     -C75     -H81     : 176.764138
 C77     -C78     -C73     -F79     : 179.530608
 C78     -C73     -C74     -H80     :-178.506484
 F79     -C73     -C74     -H80     :   0.897793
 F79     -C73     -C78     -H83     :  -0.820772
 H80     -C74     -C75     -H81     :   0.502394
 H82     -C77     -C78     -H83     :   0.140310
 C3      -P1      -Pd2     -N118    :  68.668679
 C3      -P1      -Pd2     -O2      :-105.799270
 C3      -P1      -C4      -C17     : -28.756900
 C3      -P1      -C4      -C18     :  92.333699
 C3      -P1      -C4      -C19     :-144.534557
 C3      -P1      -C5      -C20     :-163.035396
 C3      -P1      -C5      -C21     :  80.524162
 C3      -P1      -C5      -C22     : -38.708896
 C3      -C12     -C6      -C7      :-142.606709
 C3      -C12     -C6      -C11     :  58.884137
 C3      -C12     -C13     -C14     :  -0.557375
 C3      -C12     -C13     -H28     :-179.364247
 C3      -C16     -C15     -C14     :  -0.428536
 C3      -C16     -C15     -H30     :-179.797056
 C4      -P1      -Pd2     -N118    : -42.089889
 C4      -P1      -Pd2     -O2      : 143.442162
 C4      -P1      -C3      -C12     : 111.331786
 C4      -P1      -C3      -C16     : -60.963107
 C4      -P1      -C5      -C20     : -50.601662
 C4      -P1      -C5      -C21     :-167.042104
 C4      -P1      -C5      -C22     :  73.724839
 C5      -P1      -Pd2     -N118    :-172.699001
 C5      -P1      -Pd2     -O2      :  12.833050
 C5      -P1      -C3      -C12     :-129.157869
 C5      -P1      -C3      -C16     :  58.547238
 C5      -P1      -C4      -C17     :-143.887083
 C5      -P1      -C4      -C18     : -22.796485
 C5      -P1      -C4      -C19     : 100.335259
 C6      -C7      -C8      -C9      :   0.533095
 C6      -C7      -C8      -H24     : 179.903289
 C6      -C11     -C10     -C9      :   2.826594
 C6      -C11     -C10     -H26     :-177.501923
 C6      -C12     -C3      -C16     :-175.873259
 C6      -C12     -C13     -C14     : 176.509135
 C6      -C12     -C13     -H28     :  -2.297737
 C7      -C6      -C11     -C10     :  -4.918199
 C7      -C6      -C11     -H27     :-174.522574
 C7      -C6      -C12     -C13     :  40.554750
 C7      -C8      -C9      -C10     :  -2.757675
 C7      -C8      -C9      -H25     : 178.842775
 C8      -C7      -C6      -C11     :   3.255932
 C8      -C7      -C6      -C12     :-155.636968
 C8      -C9      -C10     -C11     :   1.068242
 C8      -C9      -C10     -H26     :-178.599385
 C9      -C8      -C7      -H23     :-176.483049
 C9      -C10     -C11     -H27     : 172.355894
 C10     -C9      -C8      -H24     : 177.873125
 C10     -C11     -C6      -C12     : 153.852622
 C11     -C6      -C7      -H23     :-179.673980
 C11     -C6      -C12     -C13     :-117.954405
 C11     -C10     -C9      -H25     : 179.465764
 C12     -C3      -C16     -C15     :  -0.351603
 C12     -C3      -C16     -H31     :-179.131787
 C12     -C6      -C7      -H23     :  21.433120
 C12     -C6      -C11     -H27     : -15.751753
 C12     -C13     -C14     -C15     :  -0.225785
 C12     -C13     -C14     -H29     :-179.792531
 C13     -C12     -C3      -C16     :   0.830346
 C13     -C14     -C15     -C16     :   0.713831
 C13     -C14     -C15     -H30     :-179.922822
 C14     -C15     -C16     -H31     : 178.371966
 C15     -C14     -C13     -H28     : 178.568285
 C16     -C15     -C14     -H29     :-179.722251
 C17     -C4      -C18     -H35     :  58.611389
 C17     -C4      -C18     -H36     :-178.271982
 C17     -C4      -C18     -H37     : -59.854784
 C17     -C4      -C19     -H38     : -55.829409
 C17     -C4      -C19     -H39     :  63.486380
 C17     -C4      -C19     -H40     :-176.938735
 C18     -C4      -C17     -H32     : -55.097979
 C18     -C4      -C17     -H33     :  64.650689
 C18     -C4      -C17     -H34     :-176.726500
 C18     -C4      -C19     -H38     :-174.899029
 C18     -C4      -C19     -H39     : -55.583240
 C18     -C4      -C19     -H40     :  63.991645
 C19     -C4      -C17     -H32     :-173.914833
 C19     -C4      -C17     -H33     : -54.166166
 C19     -C4      -C17     -H34     :  64.456645
 C19     -C4      -C18     -H35     : 176.616837
 C19     -C4      -C18     -H36     : -60.266533
 C19     -C4      -C18     -H37     :  58.150665
 C20     -C5      -C21     -H44     : -57.450136
 C20     -C5      -C21     -H45     :  62.227882
 C20     -C5      -C21     -H46     :-179.121171
 C20     -C5      -C22     -H47     :  64.353284
 C20     -C5      -C22     -H48     :-172.340463
 C20     -C5      -C22     -H49     : -54.200211
 C21     -C5      -C20     -H41     :  63.550168
 C21     -C5      -C20     -H42     :-173.710282
 C21     -C5      -C20     -H43     : -55.433257
 C21     -C5      -C22     -H47     :-177.183842
 C21     -C5      -C22     -H48     : -53.877589
 C21     -C5      -C22     -H49     :  64.262663
 C22     -C5      -C20     -H41     :-178.355768
 C22     -C5      -C20     -H42     : -55.616218
 C22     -C5      -C20     -H43     :  62.660807
 C22     -C5      -C21     -H44     :-176.056751
 C22     -C5      -C21     -H45     : -56.378733
 C22     -C5      -C21     -H46     :  62.272214
 H23     -C7      -C8      -H24     :   2.887145
 H24     -C8      -C9      -H25     :  -0.526424
 H25     -C9      -C10     -H26     :  -0.201863
 H26     -C10     -C11     -H27     :  -7.972622
 H28     -C13     -C14     -H29     :  -0.998461
 H29     -C14     -C15     -H30     :  -0.358904
 H30     -C15     -C16     -H31     :  -0.996554
 N118    -Pd2     -O2      -C104    :  68.544116
 N118    -C121    -C123    -C126    :-178.225019
 N118    -C121    -C123    -H127    :  -0.590597
 N118    -C121    -C124    -C125    : 178.981579
 N118    -C121    -C124    -H128    :   1.197317
 H119    -N118    -Pd2     -O2      :  34.678118
 H119    -N118    -C121    -C123    : -15.634599
 H119    -N118    -C121    -C124    : 165.526089
 H120    -N118    -Pd2     -O2      : 143.638029
 H120    -N118    -C121    -C123    :-131.272162
 H120    -N118    -C121    -C124    :  49.888526
 C121    -N118    -Pd2     -O2      : -89.553401
 C121    -C123    -C126    -C122    :  -0.864624
 C121    -C123    -C126    -H130    : 178.657594
 C121    -C124    -C125    -C122    :  -0.666418
 C121    -C124    -C125    -H129    :-179.728454
 C122    -C125    -C124    -H128    : 177.101620
 C122    -C126    -C123    -H127    :-178.468555
 C123    -C121    -C124    -C125    :   0.146559
 C123    -C121    -C124    -H128    :-177.637702
 C123    -C126    -C122    -C125    :   0.347645
 C123    -C126    -C122    -H131    : 179.818915
 C124    -C121    -C123    -C126    :   0.615722
 C124    -C121    -C123    -H127    : 178.250144
 C124    -C125    -C122    -C126    :   0.420108
 C124    -C125    -C122    -H131    :-179.051178
 C125    -C122    -C126    -H130    :-179.171405
 C126    -C122    -C125    -H129    : 179.476747
 H127    -C123    -C126    -H130    :   1.053663
 H128    -C124    -C125    -H129    :  -1.960417
 H129    -C125    -C122    -H131    :   0.005462
 H130    -C126    -C122    -H131    :   0.299866
 O2      -C104    -C105    -H108    :  68.337221
 O2      -C104    -C105    -H109    :-171.235593
 O2      -C104    -C105    -H110    : -51.291035
 O2      -C104    -C106    -H114    : 172.904397
 O2      -C104    -C106    -H115    : -66.793886
 O2      -C104    -C106    -H116    :  52.593417
 O2      -C104    -C107    -H111    : -64.441816
 O2      -C104    -C107    -H112    :  54.812301
 O2      -C104    -C107    -H113    : 175.445687
 C105    -C104    -C106    -H114    : -60.642200
 C105    -C104    -C106    -H115    :  59.659518
 C105    -C104    -C106    -H116    : 179.046821
 C105    -C104    -C107    -H111    : 174.708488
 C105    -C104    -C107    -H112    : -66.037395
 C105    -C104    -C107    -H113    :  54.595991
 C106    -C104    -C105    -H108    : -57.657933
 C106    -C104    -C105    -H109    :  62.769253
 C106    -C104    -C105    -H110    :-177.286189
 C106    -C104    -C107    -H111    :  55.778931
 C106    -C104    -C107    -H112    : 175.033048
 C106    -C104    -C107    -H113    : -64.333566
 C107    -C104    -C105    -H108    :-175.856267
 C107    -C104    -C105    -H109    : -55.429081
 C107    -C104    -C105    -H110    :  64.515477
 C107    -C104    -C106    -H114    :  57.171036
 C107    -C104    -C106    -H115    : 177.472753
 C107    -C104    -C106    -H116    : -63.139944
 
  nuclear repulsion energy.......          6181.466650390 hartrees
  
  Detected an organometallic with only one TM atom. 
  
  Oxidation state on metal       2 is     2
  Formal multiplet on metal      2 is     1
  Formal charge on ligand        3 is    -1
  Formal multiplet on ligand     3 is     1
  Formal charge on ligand        5 is    -1
  Formal multiplet on ligand     5 is     1
  
 
  Will use High-Quality Initial guess for organometallics
       including d-d repulsion (iguess=30)
 
 Non-default options chosen:
   SCF calculation type: DFT(b3pw91-d3)              
   DFT=Becke_3_Parameter/HF+Slater+Becke88+PW91+PW-GGAIIC (B3PW91-D3)
   Geometry will be optimized in redundant internal coordinates
   Solvation energy will be computed using PBF
     -solute cavity energy will not be included
     -surface area terms will not be included
   Vibrational frequencies and related properties will be computed
      from analytic second derivatives
   IR intensities will be computed
   Thermochemical properties will be computed
   Maximum number of geometry steps: 100
   Scaling standard convergence criteria by a factor of   5.00
   Solvent: benzene                                                         
   Internal dielectric constant:    1.000
   Continuum dielectric constant:   2.283
   Solvent probe molecule radius:   2.600
  
 Non-default print settings:
     11=  2
  
 Temporary integer options set:
     21= -1  73=  2
  
  atom       vdw   vdw2    cov     mass  grid  daf  charge   basis
  P1        2.147  2.074  1.060   30.974    Y    Y      Y    ps_6-31g*
  Pd2       1.450  1.450  1.280  105.903    Y    Y      Y    lacv3p*
  C73       1.949  1.900  0.770   12.000    Y    Y      Y    ps_6-31g*
  C74       1.949  1.900  0.770   12.000    Y    Y      Y    ps_6-31g*
  C75       1.949  1.900  0.770   12.000    Y    Y      Y    ps_6-31g*
  C76       1.949  1.900  0.770   12.000    Y    Y      Y    ps_6-31g*
  C77       1.949  1.900  0.770   12.000    Y    Y      Y    ps_6-31g*
  C78       1.949  1.900  0.770   12.000    Y    Y      Y    ps_6-31g*
  F79       1.736  1.682  0.720   18.998    Y    Y      Y    ps_6-31g*
  H80       1.597  1.150  0.320    1.008    Y    Y      Y    ps_6-31g*
  H81       1.597  1.150  0.320    1.008    Y    Y      Y    ps_6-31g*
  H82       1.597  1.150  0.320    1.008    Y    Y      Y    ps_6-31g*
  H83       1.597  1.150  0.320    1.008    Y    Y      Y    ps_6-31g*
  C3        1.949  1.900  0.770   12.000    Y    Y      Y    ps_6-31g*
  C4        1.949  1.900  0.770   12.000    Y    Y      Y    ps_6-31g*
  C5        1.949  1.900  0.770   12.000    Y    Y      Y    ps_6-31g*
  C6        1.949  1.900  0.770   12.000    Y    Y      Y    ps_6-31g*
  C7        1.949  1.900  0.770   12.000    Y    Y      Y    ps_6-31g*
  C8        1.949  1.900  0.770   12.000    Y    Y      Y    ps_6-31g*
  C9        1.949  1.900  0.770   12.000    Y    Y      Y    ps_6-31g*
  C10       1.949  1.900  0.770   12.000    Y    Y      Y    ps_6-31g*
  C11       1.949  1.900  0.770   12.000    Y    Y      Y    ps_6-31g*
  C12       1.949  1.900  0.770   12.000    Y    Y      Y    ps_6-31g*
  C13       1.949  1.900  0.770   12.000    Y    Y      Y    ps_6-31g*
  C14       1.949  1.900  0.770   12.000    Y    Y      Y    ps_6-31g*
  C15       1.949  1.900  0.770   12.000    Y    Y      Y    ps_6-31g*
  C16       1.949  1.900  0.770   12.000    Y    Y      Y    ps_6-31g*
  C17       1.949  1.900  0.770   12.000    Y    Y      Y    ps_6-31g*
  C18       1.949  1.900  0.770   12.000    Y    Y      Y    ps_6-31g*
  C19       1.949  1.900  0.770   12.000    Y    Y      Y    ps_6-31g*
  C20       1.949  1.900  0.770   12.000    Y    Y      Y    ps_6-31g*
  C21       1.949  1.900  0.770   12.000    Y    Y      Y    ps_6-31g*
  C22       1.949  1.900  0.770   12.000    Y    Y      Y    ps_6-31g*
  H23       1.597  1.150  0.320    1.008    Y    Y      Y    ps_6-31g*
  H24       1.597  1.150  0.320    1.008    Y    Y      Y    ps_6-31g*
  H25       1.597  1.150  0.320    1.008    Y    Y      Y    ps_6-31g*
  H26       1.597  1.150  0.320    1.008    Y    Y      Y    ps_6-31g*
  H27       1.597  1.150  0.320    1.008    Y    Y      Y    ps_6-31g*
  H28       1.597  1.150  0.320    1.008    Y    Y      Y    ps_6-31g*
  H29       1.597  1.150  0.320    1.008    Y    Y      Y    ps_6-31g*
  H30       1.597  1.150  0.320    1.008    Y    Y      Y    ps_6-31g*
  H31       1.597  1.150  0.320    1.008    Y    Y      Y    ps_6-31g*
  H32       1.597  1.150  0.320    1.008    Y    Y      Y    ps_6-31g*
  H33       1.597  1.150  0.320    1.008    Y    Y      Y    ps_6-31g*
  H34       1.597  1.150  0.320    1.008    Y    Y      Y    ps_6-31g*
  H35       1.597  1.150  0.320    1.008    Y    Y      Y    ps_6-31g*
  H36       1.597  1.150  0.320    1.008    Y    Y      Y    ps_6-31g*
  H37       1.597  1.150  0.320    1.008    Y    Y      Y    ps_6-31g*
  H38       1.597  1.150  0.320    1.008    Y    Y      Y    ps_6-31g*
  H39       1.597  1.150  0.320    1.008    Y    Y      Y    ps_6-31g*
  H40       1.597  1.150  0.320    1.008    Y    Y      Y    ps_6-31g*
  H41       1.597  1.150  0.320    1.008    Y    Y      Y    ps_6-31g*
  H42       1.597  1.150  0.320    1.008    Y    Y      Y    ps_6-31g*
  H43       1.597  1.150  0.320    1.008    Y    Y      Y    ps_6-31g*
  H44       1.597  1.150  0.320    1.008    Y    Y      Y    ps_6-31g*
  H45       1.597  1.150  0.320    1.008    Y    Y      Y    ps_6-31g*
  H46       1.597  1.150  0.320    1.008    Y    Y      Y    ps_6-31g*
  H47       1.597  1.150  0.320    1.008    Y    Y      Y    ps_6-31g*
  H48       1.597  1.150  0.320    1.008    Y    Y      Y    ps_6-31g*
  H49       1.597  1.150  0.320    1.008    Y    Y      Y    ps_6-31g*
  N118      1.831  1.600  0.750   14.003    Y    Y      Y    ps_6-31g*
  H119      1.597  1.150  0.320    1.008    Y    Y      Y    ps_6-31g*
  H120      1.597  1.150  0.320    1.008    Y    Y      Y    ps_6-31g*
  C121      1.949  1.900  0.770   12.000    Y    Y      Y    ps_6-31g*
  C122      1.949  1.900  0.770   12.000    Y    Y      Y    ps_6-31g*
  C123      1.949  1.900  0.770   12.000    Y    Y      Y    ps_6-31g*
  C124      1.949  1.900  0.770   12.000    Y    Y      Y    ps_6-31g*
  C125      1.949  1.900  0.770   12.000    Y    Y      Y    ps_6-31g*
  C126      1.949  1.900  0.770   12.000    Y    Y      Y    ps_6-31g*
  H127      1.597  1.150  0.320    1.008    Y    Y      Y    ps_6-31g*
  H128      1.597  1.150  0.320    1.008    Y    Y      Y    ps_6-31g*
  H129      1.597  1.150  0.320    1.008    Y    Y      Y    ps_6-31g*
  H130      1.597  1.150  0.320    1.008    Y    Y      Y    ps_6-31g*
  H131      1.597  1.150  0.320    1.008    Y    Y      Y    ps_6-31g*
  O2        1.702  1.600  0.730   15.995    Y    Y      Y    ps_6-31g*
  C104      1.949  1.900  0.770   12.000    Y    Y      Y    ps_6-31g*
  C105      1.949  1.900  0.770   12.000    Y    Y      Y    ps_6-31g*
  C106      1.949  1.900  0.770   12.000    Y    Y      Y    ps_6-31g*
  C107      1.949  1.900  0.770   12.000    Y    Y      Y    ps_6-31g*
  H108      1.597  1.150  0.320    1.008    Y    Y      Y    ps_6-31g*
  H109      1.597  1.150  0.320    1.008    Y    Y      Y    ps_6-31g*
  H110      1.597  1.150  0.320    1.008    Y    Y      Y    ps_6-31g*
  H111      1.597  1.150  0.320    1.008    Y    Y      Y    ps_6-31g*
  H112      1.597  1.150  0.320    1.008    Y    Y      Y    ps_6-31g*
  H113      1.597  1.150  0.320    1.008    Y    Y      Y    ps_6-31g*
  H114      1.597  1.150  0.320    1.008    Y    Y      Y    ps_6-31g*
  H115      1.597  1.150  0.320    1.008    Y    Y      Y    ps_6-31g*
  H116      1.597  1.150  0.320    1.008    Y    Y      Y    ps_6-31g*
 
  atom      formal  2spin      esp    mulk    frag
  P1           0       0        Y    0.000       0
  Pd2          2       0        Y    0.000       0
  C73         -1       0        Y    0.000       0
  N118         0       0        Y    0.000       0
  O2          -1       0        Y    0.000       0
  
  end of program pre
   
 Time(pre)  user:       4.433  user+sys:       4.433  wallclock:       1.800
  
  start of program onee
  
  smallest eigenvalue of S:    3.857E-04
  number of canonical orbitals.....          685
  end of program onee
   
 Time(onee)  user:       8.648  user+sys:       8.648  wallclock:       1.454
  
  start of program hfig
  
  initial wavefunction generated automatically from atomic wavefunctions
  Only one state below 0.010000
  Skip d-d repulsion considerations 
 
  Irreducible     Total no   No of occupied orbitals 
  representation  orbitals   Shell_1  Shell_2    ...
  No Symm          685        160
  ------------------------
  Orbital occupation/shell    1.000
 
  end of program hfig
   
 Time(hfig)  user:       3.058  user+sys:       3.058  wallclock:       1.214
  
  start of program probe
  
  end of program probe
   
 Time(probe)  user:       1.676  user+sys:       1.676  wallclock:       0.450
  
  start of program grid
  
   grid     grid set  grid #  grid sym
  ------    --------  ------  --------
  coarse        0        0        1
  medium        2        1        1
  fine          0        0        1
  ultrafine     4        2        1
  charge       -1        3        1
  gradient      4        2        1
  density       0        0        1
  DFT-fine    -11        4        1
  DFT-med.    -10        5        1
  DFT-grad    -12        6        1
  DFT-der2     -8        7        1
  DFT-cphf     -9        8        1
  LMP2-enrg     4        2        1
  LMP2-grad     2        1        1
  DFT-cphf2   -15        9        1
  PBF-dens      0        0        1
  plotting      0        0        1
  Rel-grad    -17        0        1
  
  number of gridpoints: 
     atom           P1         Pd2         C73         C74         C75         C76         C77
  grid # 1         609         344          78          93          94         100          95
  grid # 2         430         283         328         318         308         389         320
  grid # 3           6         181          32          16           8           7           6
  grid # 4        8714        8714        8714        8714        8714        8714        8714
  grid # 5        1192        1192        1192        1192        1192        1192        1192
  grid # 6        9132        9132        5922        5922        5922        5922        5922
  grid # 7       23034       32968       13950       13950       13950       13950       13950
  grid # 8         722        1150         748         748         748         748         748
  grid # 9         366        2198         394         394         394         394         394
   
  number of gridpoints: 
     atom          C78         F79         H80         H81         H82         H83          C3
  grid # 1          93         584         109          80         110         114          91
  grid # 2         320         566         451         358         449         460         380
  grid # 3          18         351         308          11         172         355          12
  grid # 4        8714        8714        8714        8714        8714        8714        8714
  grid # 5        1192        1192        1192        1192        1192        1192        1192
  grid # 6        5922        5922        5922        5922        5922        5922        5922
  grid # 7       13950       23190       15206       15206       15206       15206       13950
  grid # 8         748         770         786         786         786         786         748
  grid # 9         394         420         420         420         420         420         394
   
  number of gridpoints: 
     atom           C4          C5          C6          C7          C8          C9         C10
  grid # 1          88          88          98          93          94          90          90
  grid # 2         366         362         353         307         324         290         292
  grid # 3           6           6          13          11          21          33          31
  grid # 4        8714        8714        8714        8714        8714        8714        8714
  grid # 5        1192        1192        1192        1192        1192        1192        1192
  grid # 6        5922        5922        5922        5922        5922        5922        5922
  grid # 7       13950       13950       13950       13950       13950       13950       13950
  grid # 8         748         748         748         748         748         748         748
  grid # 9         394         394         394         394         394         394         394
   
  number of gridpoints: 
     atom          C11         C12         C13         C14         C15         C16         C17
  grid # 1          92          98          96          96          96          94          80
  grid # 2         321         359         326         324         322         323         237
  grid # 3          18          17          40          42          32          16           6
  grid # 4        8714        8714        8714        8714        8714        8714        8714
  grid # 5        1192        1192        1192        1192        1192        1192        1192
  grid # 6        5922        5922        5922        5922        5922        5922        5922
  grid # 7       13950       13950       13950       13950       13950       13950       13950
  grid # 8         748         748         748         748         748         748         748
  grid # 9         394         394         394         394         394         394         394
   
  number of gridpoints: 
     atom          C18         C19         C20         C21         C22         H23         H24
  grid # 1          81          79          80          78          81         107         115
  grid # 2         233         243         239         241         233         438         459
  grid # 3           6           6           6           6           6         220         329
  grid # 4        8714        8714        8714        8714        8714        8714        8714
  grid # 5        1192        1192        1192        1192        1192        1192        1192
  grid # 6        5922        5922        5922        5922        5922        5922        5922
  grid # 7       13950       13950       13950       13950       13950       15206       15206
  grid # 8         748         748         748         748         748         786         786
  grid # 9         394         394         394         394         394         420         420
   
  number of gridpoints: 
     atom          H25         H26         H27         H28         H29         H30         H31
  grid # 1         107          98         102         115         118         118         106
  grid # 2         441         400         420         451         467         466         426
  grid # 3         258         137         102         289         426         413         106
  grid # 4        8714        8714        8714        8714        8714        8714        8714
  grid # 5        1192        1192        1192        1192        1192        1192        1192
  grid # 6        5922        5922        5922        5922        5922        5922        5922
  grid # 7       15206       15206       15206       15206       15206       15206       15206
  grid # 8         786         786         786         786         786         786         786
  grid # 9         420         420         420         420         420         420         420
   
  number of gridpoints: 
     atom          H32         H33         H34         H35         H36         H37         H38
  grid # 1         105         109          94         102         101         109          89
  grid # 2         432         446         391         428         420         446         380
  grid # 3         165         270         109         163         146         275          19
  grid # 4        8714        8714        8714        8714        8714        8714        8714
  grid # 5        1192        1192        1192        1192        1192        1192        1192
  grid # 6        5922        5922        5922        5922        5922        5922        5922
  grid # 7       15206       15206       15206       15206       15206       15206       15206
  grid # 8         786         786         786         786         786         786         786
  grid # 9         420         420         420         420         420         420         420
   
  number of gridpoints: 
     atom          H39         H40         H41         H42         H43         H44         H45
  grid # 1         107         104         104         101         109          93         107
  grid # 2         441         442         440         423         446         399         442
  grid # 3         227         201         149         152         260          21         219
  grid # 4        8714        8714        8714        8714        8714        8714        8714
  grid # 5        1192        1192        1192        1192        1192        1192        1192
  grid # 6        5922        5922        5922        5922        5922        5922        5922
  grid # 7       15206       15206       15206       15206       15206       15206       15206
  grid # 8         786         786         786         786         786         786         786
  grid # 9         420         420         420         420         420         420         420
   
  number of gridpoints: 
     atom          H46         H47         H48         H49        N118        H119        H120
  grid # 1         102         102         105         109          99          95          83
  grid # 2         430         428         436         446         311         385         364
  grid # 3         173         162         208         267           6          30          24
  grid # 4        8714        8714        8714        8714        8714        8714        8714
  grid # 5        1192        1192        1192        1192        1192        1192        1192
  grid # 6        5922        5922        5922        5922        5922        5922        5922
  grid # 7       15206       15206       15206       15206       13958       15206       15206
  grid # 8         786         786         786         786         756         786         786
  grid # 9         420         420         420         420         406         420         420
   
  number of gridpoints: 
     atom         C121        C122        C123        C124        C125        C126        H127
  grid # 1          99          96          96          95          96          96         112
  grid # 2         351         323         324         322         323         324         440
  grid # 3          24          36          33          26          35          33         173
  grid # 4        8714        8714        8714        8714        8714        8714        8714
  grid # 5        1192        1192        1192        1192        1192        1192        1192
  grid # 6        5922        5922        5922        5922        5922        5922        5922
  grid # 7       13950       13950       13950       13950       13950       13950       15206
  grid # 8         748         748         748         748         748         748         786
  grid # 9         394         394         394         394         394         394         420
   
  number of gridpoints: 
     atom         H128        H129        H130        H131          O2        C104        C105
  grid # 1          99         118         117         117         116          91          80
  grid # 2         400         466         466         466         445         326         243
  grid # 3         110         405         389         406           8           6           6
  grid # 4        8714        8714        8714        8714        8714        8714        8714
  grid # 5        1192        1192        1192        1192        1192        1192        1192
  grid # 6        5922        5922        5922        5922        5922        5922        5922
  grid # 7       15206       15206       15206       15206       23382       13950       13950
  grid # 8         786         786         786         786         774         748         748
  grid # 9         420         420         420         420         416         394         394
   
  number of gridpoints: 
     atom         C106        C107        H108        H109        H110        H111        H112
  grid # 1          79          81         100         109          99         106         108
  grid # 2         245         237         415         450         407         437         444
  grid # 3           6           6          87         281         139         198         236
  grid # 4        8714        8714        8714        8714        8714        8714        8714
  grid # 5        1192        1192        1192        1192        1192        1192        1192
  grid # 6        5922        5922        5922        5922        5922        5922        5922
  grid # 7       13950       13950       15206       15206       15206       15206       15206
  grid # 8         748         748         786         786         786         786         786
  grid # 9         394         394         420         420         420         420         420
   
  number of gridpoints: 
     atom         H113        H114        H115        H116       total
  grid # 1         109         109         105         108        9942
  grid # 2         449         451         433         449       33435
  grid # 3         280         294         136         240       10924
  grid # 4        8714        8714        8714        8714      766832
  grid # 5        1192        1192        1192        1192      104896
  grid # 6        5922        5922        5922        5922      527556
  grid # 7       15206       15206       15206       15206     1333414
  grid # 8         786         786         786         786       68042
  grid # 9         420         420         420         420       37730
   
  end of program grid
   
 Time(grid)  user:     532.456  user+sys:     532.456  wallclock:      36.176
  
  start of program rwr
  
  end of program rwr
   
 Time(rwr)  user:      85.066  user+sys:      85.066  wallclock:      20.475
  
  start of program scf
  
 number of electrons..........        320
 number of alpha electrons....        160
 number of beta electrons.....        160
 number of orbitals, total....        685
 number of doubly-occ'd orbs..        160
 number of open shell orbs....          0
 number of occupied orbitals..        160
 number of virtual orbitals...        525
 number of hamiltonians.......          1
 number of shells.............          1
 SCF type: DFT=Becke_3_Parameter/HF+Slater+Becke88+PW91+PW-GGAIIC (B3PW91-D3)
 Energy computed using pseudospectral method.
 Convergence Criterion:
    Energy (econv):       1.00E-05
    RMS density (dconv):  5.00E-06
  
       i  u  d  i  g                   
       t  p  i  c  r                                 RMS    maximum
       e  d  i  u  i                       energy  density   DIIS  
       r  t  s  t  d       total energy    change  change    error 
  
etot    1  N  N  5  M   -2091.81579595824           2.0E-03  2.0E-01
etot    2  Y  Y  6  M   -2095.52449346035  3.7E+00  3.4E-03  1.1E-01
etot    3  Y  Y  6  M   -2096.71176185320  1.2E+00  1.2E-03  6.2E-02
etot    4  N  Y  2  U   -2096.94125677760  2.3E-01  9.4E-04  3.1E-02
etot    5  Y  Y  6  M   -2097.07089591141  1.3E-01  5.5E-04  2.1E-02
etot    6  N  Y  2  U   -2097.08602862490  1.5E-02  8.7E-04  1.4E-02
etot    7  Y  Y  6  M   -2097.10792761203  2.2E-02  1.6E-04  8.1E-03
etot    8  N  Y  2  U   -2097.11963306541  1.2E-02  5.8E-05  1.3E-03
etot    9  Y  Y  6  M   -2097.12040678486  7.7E-04  1.7E-05  4.2E-04
etot   10  N  Y  2  U   -2097.12028728905 -1.2E-04  6.8E-06  1.7E-04
etot   11  N  Y  2  U   -2097.12029944724  1.2E-05  2.2E-06  4.3E-05
etot   12  N  N  2  U   -2097.12029959147  1.4E-07  0.0E+00  0.0E+00
 
  Computing the dispersion energy correction and its gradients...
  
  
 Energy components, in hartrees:
   (A)  Nuclear repulsion............    6181.46665038996
   (E)  Total one-electron terms.....  -15226.65545903842
   (F)    Electron-nuclear...........  -17233.63627946258
   (H)    Kinetic....................    2006.98082042416
   (I)  Total two-electron terms.....    6948.06850905699
   (J)    Coulomb....................    7222.96621483401
   (K)    Exchange+Correlation.......    -274.89770577701
   (L)  Electronic energy............   -8278.58694998143  (E+I)
   (N0) D3 correction................      -0.18054872983
   (N)  Total energy.................   -2097.30084832131  (A+L+N0)
   (O)  Gas phase energy.............   -2097.30084832131
  
 SCFE: SCF energy: DFT(b3pw91-d3)     -2097.30084832131 hartrees   iterations:  12
  
 
 HOMO energy:    -0.16962
 LUMO energy:    -0.05056
 
  Orbital energies (hartrees): 
   -77.06468   -24.66202   -19.05466   -14.35517   -10.22643   -10.21629
   -10.21208   -10.20094   -10.19555   -10.19413   -10.19388   -10.18985
   -10.18777   -10.18645   -10.18513   -10.18321   -10.18277   -10.18036
   -10.17766   -10.17646   -10.17384   -10.17336   -10.17278   -10.17250
   -10.17160   -10.17109   -10.16830   -10.16748   -10.16611   -10.15769
   -10.15723   -10.15150   -10.15096   -10.14932   -10.14634   -10.12438
   -10.12003   -10.11808   -10.11297   -10.11279    -6.56667    -4.72485
    -4.72425    -4.72073    -3.33555    -2.06795    -2.06253    -2.03748
    -1.19412    -0.95163    -0.92688    -0.90039    -0.87840    -0.85252
    -0.84218    -0.83456    -0.81286    -0.81208    -0.77028    -0.76350
    -0.75635    -0.74622    -0.74258    -0.73988    -0.72491    -0.71492
    -0.71147    -0.70996    -0.69127    -0.67747    -0.66319    -0.66151
    -0.65369    -0.64506    -0.63481    -0.62448    -0.61238    -0.60464
    -0.59345    -0.58857    -0.57396    -0.56310    -0.54808    -0.54544
    -0.53677    -0.52627    -0.51614    -0.51160    -0.50723    -0.49509
    -0.48548    -0.48262    -0.47294    -0.46999    -0.46959    -0.46138
    -0.45754    -0.45622    -0.44992    -0.44613    -0.44314    -0.43963
    -0.43878    -0.43554    -0.43548    -0.43152    -0.42984    -0.42866
    -0.42507    -0.42320    -0.41723    -0.41199    -0.41085    -0.40978
    -0.40488    -0.40142    -0.39700    -0.39079    -0.38314    -0.38150
    -0.37909    -0.37552    -0.37301    -0.37176    -0.36947    -0.36454
    -0.36197    -0.35746    -0.35710    -0.35500    -0.34942    -0.34848
    -0.34231    -0.34014    -0.33665    -0.33131    -0.33063    -0.32817
    -0.32687    -0.32419    -0.31888    -0.31601    -0.30316    -0.30184
    -0.29543    -0.28585    -0.27957    -0.27241    -0.26481    -0.25851
    -0.25668    -0.25558    -0.24641    -0.23484    -0.22660    -0.20403
    -0.20014    -0.18988    -0.17590    -0.16962    -0.05056    -0.03356
    -0.02976    -0.01275    -0.00881     0.00127     0.00881     0.02133
     0.03188     0.04019
 
  end of program scf
   
 Time(scf)  user:     793.444  user+sys:     793.444  wallclock:      72.985
  
  start of program der1a
  
  end of program der1a
   
 Time(der1a)  user:      21.350  user+sys:      21.350  wallclock:       2.367
  
  start of program rwr
  
  end of program rwr
   
 Time(rwr)  user:      55.057  user+sys:      55.057  wallclock:      19.279
  
  start of program der1b
  
   
  forces (hartrees/bohr) : total     
   
 atom  label           x              y              z
 ---- --------   -------------  -------------  -------------
    1 P1         -1.019986E-02   4.337998E-03  -1.504666E-04
    2 Pd2         3.736624E-03   2.824980E-02   1.950496E-02
    3 C73        -6.722469E-04  -4.534574E-03   1.786502E-03
    4 C74         5.891899E-03   7.534796E-03   9.400663E-04
    5 C75         4.221028E-02   8.823886E-02   5.531068E-02
    6 C76         4.407723E-04  -3.840944E-04   1.807168E-03
    7 C77         1.853184E-03  -2.225559E-03   5.150386E-03
    8 C78        -1.481487E-03   3.852264E-03  -1.084067E-03
    9 F79         2.799219E-04   6.749800E-04  -2.299137E-04
   10 H80        -9.543801E-04  -1.538474E-04   2.248835E-03
   11 H81         1.396312E-02   9.843738E-02   5.573357E-02
   12 H82         4.183141E-04  -4.706697E-04   7.297825E-04
   13 H83        -4.958275E-05  -9.333823E-04  -2.112867E-04
   14 C3         -3.254817E-03   4.186448E-04  -1.152724E-03
   15 C4         -1.658195E-03  -2.481443E-03  -4.339492E-03
   16 C5         -3.451708E-03  -2.350850E-03  -3.541779E-03
   17 C6         -7.122115E-04  -4.163411E-02  -4.754559E-03
   18 C7         -1.611498E-02  -3.809133E-03  -2.465748E-02
   19 C8         -1.030036E-02  -7.087851E-03   1.634823E-02
   20 C9          2.899373E-02  -1.092957E-01  -3.359821E-02
   21 C10        -4.775878E-02  -7.612069E-02  -1.036913E-01
   22 C11        -1.350274E-02  -2.309954E-02   1.108841E-02
   23 C12         2.198884E-03   1.664016E-04   1.211446E-02
   24 C13         2.123360E-03  -2.949627E-03  -5.575424E-03
   25 C14         4.707711E-04   1.633856E-03   2.136676E-03
   26 C15        -2.468311E-04   8.478749E-04  -7.445358E-04
   27 C16        -1.912396E-03  -1.093808E-03   4.138332E-04
   28 C17         6.086557E-03   6.476414E-03  -9.448059E-03
   29 C18         4.155067E-03  -8.046299E-04  -5.900022E-04
   30 C19        -7.682348E-03  -8.514942E-04  -7.617032E-03
   31 C20         2.949604E-04  -6.588196E-04   9.716746E-04
   32 C21        -2.928544E-03   3.620819E-03  -1.397024E-02
   33 C22         2.512724E-03   1.794478E-03  -1.466513E-03
   34 H23         7.743888E-04  -5.103398E-03   1.139281E-05
   35 H24        -8.490805E-04   2.093980E-03   1.673504E-03
   36 H25        -1.462575E-03  -8.036891E-03  -1.367389E-03
   37 H26         1.148474E-02  -1.167900E-02  -7.506592E-03
   38 H27        -5.420432E-04  -5.199973E-03   6.082312E-03
   39 H28        -1.487352E-03   7.513870E-04  -1.126765E-03
   40 H29        -2.248102E-04   2.913293E-04  -1.269091E-04
   41 H30        -1.048253E-04   6.321425E-05   2.547827E-04
   42 H31         7.985466E-04   1.561090E-03  -4.311618E-04
   43 H32         1.937442E-03   8.162814E-04   3.228130E-03
   44 H33         8.664537E-04  -1.511233E-04   1.339571E-03
   45 H34         7.224799E-03  -6.035304E-03  -2.121987E-02
   46 H35        -9.857111E-04  -9.142728E-04  -1.381995E-05
   47 H36         3.130204E-03  -2.698658E-03  -9.241503E-04
   48 H37         3.585064E-04   2.660100E-05  -7.026295E-04
   49 H38        -1.513048E-02   4.260220E-03  -2.065459E-02
   50 H39         9.357649E-04   4.624758E-04   1.030041E-03
   51 H40        -2.931601E-03   8.356461E-04  -7.159520E-04
   52 H41         1.316562E-04  -1.572152E-04   2.179875E-03
   53 H42        -3.068427E-03   1.262301E-03   2.078814E-03
   54 H43         3.900668E-04  -5.594361E-05   9.947902E-04
   55 H44         1.284554E-03  -3.946654E-03  -6.303307E-03
   56 H45        -2.949342E-04  -8.029985E-04  -4.181739E-03
   57 H46        -2.923847E-04  -5.637242E-04  -5.907149E-04
   58 H47         2.217754E-04   2.416454E-04  -1.642390E-03
   59 H48        -1.167418E-05   5.266726E-04   6.256218E-04
   60 H49         1.110082E-04  -2.307867E-04   3.243594E-04
   61 N118        1.825825E-02   1.256055E-02   5.478745E-03
   62 H119        1.327821E-03   7.168078E-03   4.238436E-03
   63 H120       -4.477004E-04   1.170847E-03   1.277826E-02
   64 C121        1.712303E-03   1.323310E-03  -9.801370E-04
   65 C122        1.552357E-04   7.462348E-04   5.470358E-05
   66 C123        1.397387E-04   3.258284E-04   9.574179E-04
   67 C124        7.338177E-03   3.467045E-03   7.751529E-03
   68 C125       -4.112049E-04  -1.405001E-03   1.532548E-03
   69 C126       -5.143728E-04  -4.555819E-04  -4.378817E-04
   70 H127       -6.256940E-04   1.074827E-04   6.666089E-04
   71 H128        1.452069E-02  -8.069812E-04   1.712197E-02
   72 H129       -2.033474E-04  -3.720796E-04   2.040370E-06
   73 H130       -1.512330E-04   2.048979E-04  -4.474460E-04
   74 H131       -2.585597E-04  -3.224438E-04  -3.220742E-04
   75 O2         -5.676360E-03   1.292918E-02   1.702664E-02
   76 C104        1.568754E-03   3.857272E-03   1.163331E-03
   77 C105       -1.058130E-02   1.235386E-02   4.354767E-03
   78 C106       -8.857211E-05  -9.511801E-04   1.091570E-03
   79 C107       -1.082814E-03   7.431641E-04   4.958569E-04
   80 H108       -8.873062E-03   2.743243E-03   6.242761E-05
   81 H109       -2.056628E-04   1.763819E-05  -1.055499E-03
   82 H110       -1.208824E-02   1.341446E-02   4.726710E-03
   83 H111       -6.898799E-04   4.380626E-04  -1.091510E-03
   84 H112       -4.741265E-04  -3.364924E-04   6.990115E-05
   85 H113        6.296930E-04  -4.023528E-04  -1.291242E-04
   86 H114        5.128763E-04  -1.576910E-04  -3.162514E-04
   87 H115        6.423446E-04   2.255300E-04   1.609014E-04
   88 H116       -8.927539E-05  -8.333235E-04  -5.675638E-04
 -------------   -------------  -------------  -------------
     total       -6.428317E-04   7.152125E-04  -3.835777E-03
   
  end of program der1b
   
 Time(der1b)  user:     245.229  user+sys:     245.229  wallclock:      20.834
  
  start of program geopt
  
 ----------------------------------------------------------------------------
  Geometry optimization step  1
  Total energy:     -2097.30084832131 hartrees
 ----------------------------------------------------------------------------
  
  
  Level shifts adjusted to satisfy step-size constraints
   Step size:    0.3001528
   Cos(theta):   0.2884897
   Final level shift:  -9.1509629E-01
  
  gradient maximum:        2.5094E+00 .  (  2.2500E-03 )
  gradient rms:            2.3841E-01 .  (  1.5000E-03 )
  displacement maximum:    7.9582E-02 .  (  9.0000E-03 )
  displacement rms:        1.2804E-02 .  (  6.0000E-03 )
  
  predicted energy change:  -1.8568E-01
  step size:     0.21916
  trust radius:  0.30000
  
  molecular structure not yet converged...
  
  center of mass moved by:
     x:     2.6212E-02     y:    -1.9894E-02     z:     4.5569E-02
  
  new geometry: 
                                   angstroms
  atom               x                 y                 z
  P1           -0.0010753444     -0.0195715110      0.0194641390 
  Pd2           0.0234611358      0.0205729793      2.4649761246 
  C73           0.9002416788      0.0447018244      7.1664285408 
  C74           0.1847974339     -1.0268814578      6.6472964602 
  C75          -0.1356614857     -1.0168153171      5.2883667033 
  C76           0.2826318401      0.0236903926      4.4620878292 
  C77           0.9739807507      1.1034653244      5.0176874165 
  C78           1.2959710419      1.1170543592      6.3793472762 
  F79           1.2218500365      0.0430685950      8.4803837084 
  H80          -0.1246245758     -1.8347868699      7.3065319361 
  H81          -0.6804813954     -1.8613381895      4.8311871686 
  H82           1.2755269234      1.9469001003      4.4003504193 
  H83           1.8357167318      1.9455516226      6.8305206488 
  C3            0.1583804387     -1.7726474791     -0.5410693681 
  C4            1.4960377842      0.8271186981     -0.8129859903 
  C5           -1.6185757649      0.5244960285     -0.8210651163 
  C6            0.2151415612     -2.6661357685      1.8909522942 
  C7            1.1070462745     -3.3525920190      2.7434782099 
  C8            0.7425146072     -3.6656685183      4.0505314336 
  C9           -0.5205115825     -3.3139481399      4.5379084745 
  C10          -1.3939439880     -2.6049065312      3.7334641290 
  C11          -1.0298976136     -2.2485010693      2.4324872726 
  C12           0.3583076132     -2.7961945122      0.4094164977 
  C13           0.6570764746     -4.0950455052     -0.0397952677 
  C14           0.7469029129     -4.3964645290     -1.3934264799 
  C15           0.5306176995     -3.3911634842     -2.3332158151 
  C16           0.2450969921     -2.0997118601     -1.9048410735 
  C17           2.6533537002     -0.1920862136     -0.8456953201 
  C18           1.2600170239      1.3151258010     -2.2467418014 
  C19           1.9109223002      2.0285153865      0.0431849047 
  C20          -1.7386132248      2.0543717189     -0.7581858022 
  C21          -2.7346442465     -0.1161888579      0.0180131199 
  C22          -1.8140693385      0.0693503645     -2.2729612752 
  H23           2.0656498337     -3.6791210958      2.3449979152 
  H24           1.4404755357     -4.1939290249      4.6944536264 
  H25          -0.8053177298     -3.5857422391      5.5505131639 
  H26          -2.3679738398     -2.3085392914      4.1065139760 
  H27          -1.7713513264     -1.8001965183      1.7786515135 
  H28           0.7984289041     -4.8820331701      0.6969845152 
  H29           0.9761192742     -5.4110276372     -1.7109481712 
  H30           0.5945842123     -3.6059873138     -3.3974846399 
  H31           0.1085934373     -1.3300581542     -2.6543238307 
  H32           2.4687998037     -1.0131509446     -1.5441294887 
  H33           3.5726260809      0.3205911139     -1.1586820270 
  H34           2.8440832150     -0.6331135812      0.1378100277 
  H35           0.9914374442      0.5027063238     -2.9280263056 
  H36           0.4884830570      2.0877097861     -2.2995032948 
  H37           2.1900990803      1.7596367419     -2.6277680966 
  H38           2.1571172282      1.7267606212      1.0594216910 
  H39           2.8018726815      2.4898317292     -0.4050372473 
  H40           1.1331916945      2.7937951832      0.1077425174 
  H41          -1.5698587428      2.4361232855      0.2531664413 
  H42          -1.0476432705      2.5529793852     -1.4445876698 
  H43          -2.7559662889      2.3387427030     -1.0591975416 
  H44          -2.6901712932      0.2137193068      1.0621404401 
  H45          -3.7104538009      0.1710652458     -0.3975485201 
  H46          -2.6763817602     -1.2115348598     -0.0099734927 
  H47          -1.0330643227      0.4396129836     -2.9453129027 
  H48          -1.8658102969     -1.0204176288     -2.3572211984 
  H49          -2.7708132807      0.4699339044     -2.6353802934 
  N118          2.1030338792     -0.5328292945      2.5325475924 
  H119          2.0081914327     -1.5364271392      2.7221308854 
  H120          2.4031978082     -0.4593953509      1.5669138131 
  C121          3.1030288097      0.0088770486      3.4113316433 
  C122          4.9976469815      0.9849749861      5.2284048968 
  C123          3.5177427421     -0.7740529607      4.4898424124 
  C124          3.6477671179      1.2841686686      3.2460042254 
  C125          4.5939304203      1.7646358587      4.1469217310 
  C126          4.4535591313     -0.2854853476      5.3966939104 
  H127          3.0720422313     -1.7535901671      4.6394069773 
  H128          3.3063620417      1.9200234618      2.4381890119 
  H129          5.0054834351      2.7622116111      4.0094362497 
  H130          4.7502462276     -0.8990958106      6.2441222783 
  H131          5.7256538190      1.3690936921      5.9391640054 
  O2           -1.9415878839      0.5483516167      2.6391920124 
  C104         -2.7318433245      1.2031451196      3.6086064197 
  C105         -2.9922879246      0.3973504628      4.8905974911 
  C106         -2.1489306494      2.5693150943      3.9954475405 
  C107         -4.0971149993      1.4268093675      2.9293833809 
  H108         -2.0724369654      0.2595761786      5.4603000882 
  H109         -3.7218664265      0.9082614399      5.5335047839 
  H110         -3.3984256626     -0.5858993605      4.6376563234 
  H111         -3.9899685779      2.1060202373      2.0777614529 
  H112         -4.4931109512      0.4740005142      2.5600633520 
  H113         -4.8248091574      1.8631982588      3.6257666717 
  H114         -2.8306426048      3.1261667011      4.6528543001 
  H115         -1.1979213034      2.4392525386      4.5176560456 
  H116         -1.9694006517      3.1671766061      3.0937898123 
   
 
  bond lengths (angstroms):
 
 P1      -Pd2     :   2.445965      P1      -C3      :   1.847403
 P1      -C4      :   1.910813      P1      -C5      :   1.902316
 Pd2     -C76     :   2.013861      Pd2     -N118    :   2.153008
 Pd2     -O2      :   2.042136      C73     -C74     :   1.389118
 C73     -C78     :   1.387818      C73     -F79     :   1.352743
 C74     -C75     :   1.396240      C74     -H80     :   1.087679
 C75     -C76     :   1.392967      C75     -H81     :   1.104111
 C76     -C77     :   1.397343      C77     -C78     :   1.399278
 C77     -H82     :   1.087850      C78     -H83     :   1.086872
 C3      -C12     :   1.411043      C3      -C16     :   1.405121
 C4      -C17     :   1.542475      C4      -C18     :   1.532812
 C4      -C19     :   1.532485      C5      -C20     :   1.535865
 C5      -C21     :   1.536274      C5      -C22     :   1.534072
 C6      -C7      :   1.411919      C6      -C11     :   1.420493
 C6      -C12     :   1.494108      C7      -C8      :   1.392583
 C7      -H23     :   1.088269      C8      -C9      :   1.398742
 C8      -H24     :   1.086667      C9      -C10     :   1.383024
 C9      -H25     :   1.086441      C10     -C11     :   1.397174
 C10     -H26     :   1.084313      C11     -H27     :   1.085464
 C12     -C13     :   1.406438      C13     -C14     :   1.389690
 C13     -H28     :   1.087279      C14     -C15     :   1.393059
 C14     -H29     :   1.087519      C15     -C16     :   1.390278
 C15     -H30     :   1.087616      C16     -H31     :   1.082924
 C17     -H32     :   1.093626      C17     -H33     :   1.098117
 C17     -H34     :   1.094608      C18     -H35     :   1.093759
 C18     -H36     :   1.093131      C18     -H37     :   1.099010
 C19     -H38     :   1.088304      C19     -H39     :   1.098867
 C19     -H40     :   1.093017      C20     -H41     :   1.094096
 C20     -H42     :   1.094165      C20     -H43     :   1.098400
 C21     -H44     :   1.095910      C21     -H45     :   1.098822
 C21     -H46     :   1.097251      C22     -H47     :   1.095043
 C22     -H48     :   1.094245      C22     -H49     :   1.098715
 N118    -H119    :   1.025741      N118    -H120    :   1.013874
 N118    -C121    :   1.437253      C121    -C123    :   1.395762
 C121    -C124    :   1.396582      C122    -C125    :   1.393005
 C122    -C126    :   1.392272      C122    -H131    :   1.087529
 C123    -C126    :   1.391700      C123    -H127    :   1.086514
 C124    -C125    :   1.392022      C124    -H128    :   1.083252
 C125    -H129    :   1.087858      C126    -H130    :   1.087509
 O2      -C104    :   1.411744      C104    -C105    :   1.536437
 C104    -C106    :   1.534879      C104    -C107    :   1.541213
 C105    -H108    :   1.090719      C105    -H109    :   1.098474
 C105    -H110    :   1.093484      C106    -H114    :   1.098635
 C106    -H115    :   1.092720      C106    -H116    :   1.096657
 C107    -H111    :   1.094563      C107    -H112    :   1.095926
 C107    -H113    :   1.097690
 
  bond angles:
 
 C3      -P1      -Pd2     : 108.546216  C4      -P1      -Pd2     : 114.862354
 C4      -P1      -C3      : 102.748361  C5      -P1      -Pd2     : 116.461665
 C5      -P1      -C3      : 102.164948  C5      -P1      -C4      : 110.302103
 C76     -Pd2     -P1      : 173.128088  N118    -Pd2     -P1      :  92.111799
 N118    -Pd2     -C76     :  81.081478  O2      -Pd2     -P1      :  94.581888
 O2      -Pd2     -C76     :  92.225604  O2      -Pd2     -N118    : 173.306307
 C78     -C73     -C74     : 122.071415  F79     -C73     -C74     : 118.980612
 F79     -C73     -C78     : 118.947970  C75     -C74     -C73     : 118.448864
 H80     -C74     -C73     : 119.538009  H80     -C74     -C75     : 122.002803
 C76     -C75     -C74     : 120.916762  H81     -C75     -C74     : 120.713465
 H81     -C75     -C76     : 118.288344  C75     -C76     -Pd2     : 123.260329
 C77     -C76     -Pd2     : 117.333758  C77     -C76     -C75     : 119.335724
 C78     -C77     -C76     : 120.549079  H82     -C77     -C76     : 120.705483
 H82     -C77     -C78     : 118.744986  C77     -C78     -C73     : 118.605078
 H83     -C78     -C73     : 119.681817  H83     -C78     -C77     : 121.710611
 C12     -C3      -P1      : 119.748375  C16     -C3      -P1      : 121.378958
 C16     -C3      -C12     : 118.437114  C17     -C4      -P1      : 107.716525
 C18     -C4      -P1      : 115.336264  C18     -C4      -C17     : 107.822142
 C19     -C4      -P1      : 108.426964  C19     -C4      -C17     : 109.070181
 C19     -C4      -C18     : 108.341089  C20     -C5      -P1      : 109.466311
 C21     -C5      -P1      : 104.898588  C21     -C5      -C20     : 109.649914
 C22     -C5      -P1      : 116.210938  C22     -C5      -C20     : 108.924495
 C22     -C5      -C21     : 107.494270  C11     -C6      -C7      : 117.802462
 C12     -C6      -C7      : 119.727436  C12     -C6      -C11     : 119.182948
 C8      -C7      -C6      : 120.708308  H23     -C7      -C6      : 118.765058
 H23     -C7      -C8      : 120.450472  C9      -C8      -C7      : 120.455950
 H24     -C8      -C7      : 119.823562  H24     -C8      -C9      : 119.718646
 C10     -C9      -C8      : 119.769010  H25     -C9      -C8      : 119.905001
 H25     -C9      -C10     : 120.319801  C11     -C10     -C9      : 120.519645
 H26     -C10     -C9      : 120.485290  H26     -C10     -C11     : 118.992244
 C10     -C11     -C6      : 120.554619  H27     -C11     -C6      : 119.373127
 H27     -C11     -C10     : 119.226001  C6      -C12     -C3      : 126.243440
 C13     -C12     -C3      : 119.002353  C13     -C12     -C6      : 114.673894
 C14     -C13     -C12     : 121.677997  H28     -C13     -C12     : 118.661066
 H28     -C13     -C14     : 119.647167  C15     -C14     -C13     : 119.377322
 H29     -C14     -C13     : 120.023987  H29     -C14     -C15     : 120.596794
 C16     -C15     -C14     : 119.628332  H30     -C15     -C14     : 120.562016
 H30     -C15     -C16     : 119.805901  C15     -C16     -C3      : 121.866960
 H31     -C16     -C3      : 119.901806  H31     -C16     -C15     : 118.218538
 H32     -C17     -C4      : 112.520086  H33     -C17     -C4      : 109.005361
 H33     -C17     -H32     : 108.044577  H34     -C17     -C4      : 112.204165
 H34     -C17     -H32     : 107.501472  H34     -C17     -H33     : 107.357414
 H35     -C18     -C4      : 112.579198  H36     -C18     -C4      : 112.261888
 H36     -C18     -H35     : 108.759033  H37     -C18     -C4      : 108.829586
 H37     -C18     -H35     : 106.994863  H37     -C18     -H36     : 107.140699
 H38     -C19     -C4      : 111.442165  H39     -C19     -C4      : 108.707155
 H39     -C19     -H38     : 108.292577  H40     -C19     -C4      : 112.907923
 H40     -C19     -H38     : 107.454273  H40     -C19     -H39     : 107.882935
 H41     -C20     -C5      : 111.922273  H42     -C20     -C5      : 112.264362
 H42     -C20     -H41     : 108.873551  H43     -C20     -C5      : 108.605834
 H43     -C20     -H41     : 107.809112  H43     -C20     -H42     : 107.158328
 H44     -C21     -C5      : 111.428848  H45     -C21     -C5      : 109.242591
 H45     -C21     -H44     : 108.521439  H46     -C21     -C5      : 111.334253
 H46     -C21     -H44     : 108.823816  H46     -C21     -H45     : 107.365977
 H47     -C22     -C5      : 112.948142  H48     -C22     -C5      : 111.986064
 H48     -C22     -H47     : 108.855808  H49     -C22     -C5      : 108.359859
 H49     -C22     -H47     : 107.172558  H49     -C22     -H48     : 107.249106
 H119    -N118    -Pd2     :  99.670393  H120    -N118    -Pd2     : 103.736103
 H120    -N118    -H119    : 105.918591  C121    -N118    -Pd2     : 126.466178
 C121    -N118    -H119    : 108.668439  C121    -N118    -H120    : 110.429568
 C123    -C121    -N118    : 117.889483  C124    -C121    -N118    : 122.899976
 C124    -C121    -C123    : 119.195880  C126    -C122    -C125    : 119.426890
 H131    -C122    -C125    : 120.246314  H131    -C122    -C126    : 120.325007
 C126    -C123    -C121    : 120.422878  H127    -C123    -C121    : 119.352963
 H127    -C123    -C126    : 120.174311  C125    -C124    -C121    : 120.244104
 H128    -C124    -C121    : 120.089818  H128    -C124    -C125    : 119.620644
 C124    -C125    -C122    : 120.415764  H129    -C125    -C122    : 120.114104
 H129    -C125    -C124    : 119.462944  C123    -C126    -C122    : 120.288804
 H130    -C126    -C122    : 120.161911  H130    -C126    -C123    : 119.546532
[...]
    H27      Y     0.05209  -0.00019   0.00091  -0.48973  -0.00009   0.00011
    H27      Z    -0.04960   0.00018  -0.00100   0.49912   0.00030   0.00006
    H28      X     0.00018  -0.00000  -0.00046  -0.00004   0.00001   0.00003
    H28      Y     0.00484   0.00010  -0.01124   0.00050  -0.00036  -0.00069
    H28      Z    -0.00314  -0.00005   0.00733  -0.00043   0.00006   0.00019
    H29      X    -0.00094   0.00002   0.00351  -0.00024  -0.00005  -0.00001
    H29      Y     0.00381  -0.00008  -0.01533   0.00063   0.00021   0.00007
    H29      Z     0.00192  -0.00004  -0.00616   0.00037   0.00013   0.00006
    H30      X    -0.00029  -0.00001   0.02815   0.00007  -0.00005   0.00007
    H30      Y    -0.00003   0.00001  -0.00395  -0.00003  -0.00005  -0.00002
    H30      Z     0.00124   0.00003  -0.11875  -0.00025   0.00007  -0.00001
    H31      X    -0.00000   0.00000   0.00637   0.00004  -0.00001   0.00002
    H31      Y     0.00121  -0.00037   0.79435   0.00168  -0.00015  -0.00005
    H31      Z    -0.00072   0.00025  -0.51214  -0.00101   0.00023   0.00010
    H32      X     0.00004  -0.00020   0.00155   0.00002   0.00003   0.00006
    H32      Y    -0.00020   0.00554  -0.00214   0.00000  -0.00008  -0.00017
    H32      Z    -0.00023   0.00528  -0.00124  -0.00003  -0.00042  -0.00009
    H33      X    -0.00021  -0.00861  -0.00049  -0.00002  -0.00030   0.00003
    H33      Y    -0.00019  -0.00634  -0.00068   0.00001  -0.00092   0.00097
    H33      Z     0.00004   0.00140  -0.00010   0.00002   0.00082  -0.00106
    H34      X     0.00003   0.00668  -0.00032  -0.00001   0.00124  -0.00179
    H34      Y    -0.00001  -0.01658   0.00069   0.00002   0.00067  -0.00065
    H34      Z     0.00008   0.04056  -0.00281  -0.00000   0.00261  -0.00325
    H35      X    -0.00001  -0.00001  -0.00363   0.00002  -0.00002   0.00007
    H35      Y    -0.00026   0.00013  -0.03345  -0.00024  -0.00022  -0.00007
    H35      Z    -0.00028   0.00013  -0.02592  -0.00022  -0.00035  -0.00002
    H36      X     0.00029   0.00056   0.00675  -0.00017   0.00024  -0.00035
    H36      Y    -0.00019  -0.00042  -0.00345   0.00020  -0.00018   0.00031
    H36      Z     0.00004   0.00004   0.00142  -0.00004   0.00016  -0.00026
    H37      X    -0.00012  -0.00017  -0.00123  -0.00010  -0.00000  -0.00017
    H37      Y    -0.00010  -0.00019   0.00027   0.00002   0.00006  -0.00025
    H37      Z     0.00005   0.00010   0.00113  -0.00011  -0.00006   0.00016
    H38      X    -0.00002   0.00388  -0.00022  -0.00015  -0.00016   0.00001
    H38      Y     0.00005  -0.00471   0.00070   0.00005   0.00025   0.00006
    H38      Z    -0.00010   0.01204  -0.00139  -0.00031  -0.00134  -0.00001
    H39      X    -0.00002  -0.00385   0.00029   0.00011   0.00010  -0.00010
    H39      Y    -0.00003  -0.00314   0.00024   0.00010   0.00006  -0.00017
    H39      Z    -0.00002   0.00121  -0.00017  -0.00011  -0.00017   0.00003
    H40      X     0.00016   0.00102   0.00023  -0.00003  -0.00002  -0.00018
    H40      Y    -0.00011  -0.00079  -0.00032   0.00005  -0.00007   0.00023
    H40      Z     0.00001   0.00002  -0.00009   0.00004  -0.00015   0.00009
    H41      X     0.00003  -0.00001   0.00003   0.00027   0.00008   0.00002
    H41      Y     0.00007  -0.00000  -0.00021   0.00030   0.00003  -0.00001
    H41      Z     0.00040  -0.00002  -0.00007   0.00161   0.00087  -0.00004
    H42      X    -0.00000  -0.00006  -0.00015  -0.00101  -0.00006  -0.00005
    H42      Y     0.00004  -0.00007  -0.00014  -0.00138  -0.00007  -0.00013
    H42      Z    -0.00002   0.00005   0.00020   0.00090  -0.00000   0.00009
    H43      X     0.00018  -0.00001  -0.00043  -0.00006   0.00003  -0.00015
    H43      Y    -0.00008  -0.00000   0.00024   0.00020  -0.00006   0.00003
    H43      Z     0.00005  -0.00000  -0.00006  -0.00007  -0.00000  -0.00006
    H44      X     0.00007  -0.00000   0.00004  -0.00103   0.00013   0.00001
    H44      Y    -0.00074  -0.00003  -0.00014   0.00822   0.00039   0.00020
    H44      Z    -0.00130  -0.00011  -0.00063   0.01498   0.00073   0.00035
    H45      X     0.00042  -0.00002  -0.00051   0.00220   0.00015  -0.00003
    H45      Y    -0.00013   0.00000   0.00021  -0.00158  -0.00010  -0.00008
    H45      Z     0.00012  -0.00000  -0.00019   0.00181   0.00007   0.00007
    H46      X     0.00043  -0.00000   0.00009  -0.00252   0.00002   0.00004
    H46      Y    -0.00287   0.00002  -0.00032   0.00616  -0.00059  -0.00036
    H46      Z     0.00005   0.00001   0.00005  -0.00505  -0.00025  -0.00017
    H47      X     0.00022  -0.00008   0.00570  -0.00118   0.00005  -0.00006
    H47      Y     0.00017  -0.00006   0.00220  -0.00082   0.00006  -0.00006
    H47      Z    -0.00022   0.00007  -0.00272   0.00134  -0.00004   0.00011
    H48      X    -0.00002   0.00000  -0.00015   0.00007  -0.00004   0.00002
    H48      Y    -0.00035  -0.00005  -0.01395   0.00016  -0.00033  -0.00000
    H48      Z    -0.00010  -0.00001  -0.00243   0.00005  -0.00010  -0.00001
    H49      X     0.00033   0.00000   0.00477  -0.00062   0.00008  -0.00010
    H49      Y    -0.00012  -0.00000  -0.00259   0.00022  -0.00007   0.00005
    H49      Z     0.00011   0.00001   0.00071  -0.00039  -0.00009  -0.00000
    N118     X     0.00007  -0.00022   0.00000   0.00001  -0.01021  -0.02828
    N118     Y     0.00019  -0.00030  -0.00001   0.00004  -0.05518  -0.01562
    N118     Z    -0.00010   0.00004   0.00000  -0.00002  -0.01126   0.06994
    H119     X    -0.00057  -0.00125   0.00004   0.00013   0.27754   0.19536
    H119     Y    -0.00226  -0.00059   0.00014  -0.00044   0.60210   0.46505
    H119     Z     0.00173  -0.00117  -0.00019   0.00060  -0.39530  -0.27924
    H120     X     0.00025  -0.00146  -0.00016   0.00015  -0.15425   0.19935
    H120     Y    -0.00012  -0.00133  -0.00011   0.00003   0.16892  -0.24412
    H120     Z    -0.00046   0.00010   0.00010  -0.00027   0.54632  -0.69135
    C121     X     0.00001   0.00253  -0.00001  -0.00000   0.00053  -0.00041
    C121     Y     0.00001   0.00275  -0.00000  -0.00001  -0.00056  -0.00020
    C121     Z     0.00001  -0.00080  -0.00001   0.00000   0.00035   0.00013
    C122     X     0.00005  -0.00191  -0.00001  -0.00000   0.00007  -0.00001
    C122     Y     0.00003  -0.00060  -0.00000  -0.00000   0.00002   0.00006
    C122     Z     0.00003  -0.00217  -0.00001  -0.00000   0.00008  -0.00013
    C123     X    -0.00009   0.00010  -0.00000  -0.00001   0.00072   0.00016
    C123     Y    -0.00011   0.00049  -0.00001  -0.00001   0.00050   0.00044
    C123     Z     0.00005  -0.00075   0.00001   0.00000   0.00001  -0.00022
    C124     X    -0.00000   0.01812   0.00002  -0.00001   0.00048   0.00020
    C124     Y    -0.00001  -0.02895  -0.00002   0.00001   0.00046   0.00006
    C124     Z     0.00002   0.07448   0.00005  -0.00003   0.00011  -0.00002
    C125     X     0.00002  -0.00896  -0.00001  -0.00000  -0.00018   0.00016
    C125     Y     0.00002  -0.01013  -0.00001  -0.00000  -0.00009   0.00002
    C125     Z    -0.00002   0.00350   0.00000   0.00000  -0.00003   0.00012
    C126     X     0.00003  -0.00021  -0.00000   0.00000  -0.00013  -0.00010
    C126     Y    -0.00004   0.00068   0.00000   0.00000   0.00005  -0.00010
    C126     Z     0.00011  -0.00166  -0.00001  -0.00000  -0.00008  -0.00000
    H127     X     0.00098  -0.00347   0.00008   0.00007  -0.00235  -0.00160
    H127     Y     0.00123  -0.00450   0.00012   0.00010  -0.00304  -0.00124
    H127     Z    -0.00065   0.00313  -0.00008  -0.00006   0.00054   0.00009
    H128     X    -0.00005  -0.21188  -0.00016   0.00006  -0.00003   0.00011
    H128     Y     0.00012   0.33049   0.00026  -0.00011  -0.00079   0.00093
    H128     Z    -0.00025  -0.85626  -0.00050   0.00031   0.00026   0.00009
    H129     X    -0.00021   0.07614   0.00012   0.00001   0.00079   0.00002
    H129     Y    -0.00028   0.10021   0.00016   0.00002   0.00089   0.00004
    H129     Z     0.00016  -0.05369  -0.00008  -0.00001  -0.00049  -0.00006
    H130     X    -0.00027   0.00325   0.00001  -0.00000   0.00041   0.00015
    H130     Y     0.00044  -0.00602  -0.00002  -0.00000  -0.00036   0.00005
    H130     Z    -0.00128   0.01711   0.00006   0.00001   0.00125   0.00010
    H131     X    -0.00057   0.01962   0.00007   0.00002   0.00007   0.00003
    H131     Y    -0.00031   0.01006   0.00004   0.00001  -0.00023   0.00016
    H131     Z    -0.00039   0.01467   0.00005   0.00002  -0.00011   0.00009
    O2       X     0.00000   0.00000  -0.00001  -0.00006  -0.00011  -0.00005
    O2       Y     0.00001   0.00001   0.00000   0.00002   0.00002   0.00003
    O2       Z    -0.00000  -0.00000   0.00000  -0.00004   0.00001   0.00002
    C104     X     0.00002  -0.00000   0.00001   0.00003   0.00005   0.00002
    C104     Y    -0.00000   0.00000  -0.00000  -0.00002  -0.00000   0.00000
    C104     Z    -0.00001   0.00000  -0.00001  -0.00003  -0.00014  -0.00002
    C105     X     0.00108   0.00000   0.00002   0.00015  -0.00000  -0.00001
    C105     Y    -0.00036  -0.00000  -0.00001  -0.00001   0.00003   0.00002
    C105     Z     0.00055   0.00000  -0.00000   0.00011   0.00003   0.00001
    C106     X     0.00005  -0.00000   0.00001   0.00002   0.00002   0.00000
    C106     Y    -0.00006  -0.00001  -0.00001  -0.00001  -0.00001  -0.00000
    C106     Z     0.00006   0.00001   0.00000   0.00001  -0.00000   0.00000
    C107     X    -0.00002  -0.00000   0.00000   0.00002   0.00000   0.00001
    C107     Y    -0.00002  -0.00000  -0.00000   0.00007   0.00000   0.00000
    C107     Z    -0.00001   0.00000   0.00000   0.00009   0.00004   0.00000
    H108     X    -0.01108  -0.00004  -0.00011  -0.00144   0.00031   0.00023
    H108     Y     0.00741   0.00002   0.00006   0.00088  -0.00001  -0.00000
    H108     Z    -0.00763  -0.00001  -0.00010  -0.00116   0.00021   0.00022
    H109     X    -0.00276   0.00003  -0.00012  -0.00043  -0.00020  -0.00001
    H109     Y     0.00095  -0.00000   0.00003   0.00020  -0.00006  -0.00006
    H109     Z     0.00241  -0.00002   0.00010   0.00037   0.00017   0.00002
    H110     X    -0.00034  -0.00000   0.00002  -0.00003  -0.00027  -0.00019
    H110     Y     0.00030   0.00000   0.00000  -0.00071  -0.00031  -0.00016
    H110     Z    -0.00113   0.00001   0.00001  -0.00056  -0.00048  -0.00028
    H111     X     0.00009   0.00000   0.00002  -0.00000   0.00007  -0.00000
    H111     Y     0.00023   0.00002   0.00005   0.00003  -0.00001  -0.00011
    H111     Z    -0.00011  -0.00001  -0.00003   0.00000   0.00001   0.00005
    H112     X     0.00005   0.00000  -0.00001  -0.00043  -0.00006  -0.00001
    H112     Y     0.00012   0.00001  -0.00004  -0.00082  -0.00017  -0.00002
    H112     Z     0.00014   0.00000  -0.00004  -0.00081  -0.00017  -0.00005
    H113     X     0.00004   0.00002  -0.00009   0.00007  -0.00043  -0.00008
    H113     Y     0.00000  -0.00001   0.00003  -0.00005   0.00018   0.00003
    H113     Z    -0.00004  -0.00001   0.00005  -0.00020   0.00010   0.00004
    H114     X    -0.00011   0.00004  -0.00011  -0.00012  -0.00028  -0.00006
    H114     Y     0.00005  -0.00001   0.00005   0.00006   0.00016   0.00005
    H114     Z     0.00006  -0.00003   0.00008   0.00010   0.00021   0.00005
    H115     X    -0.00065  -0.00008  -0.00005  -0.00018   0.00005  -0.00001
    H115     Y     0.00032   0.00004   0.00003   0.00009   0.00003   0.00003
    H115     Z    -0.00062  -0.00007  -0.00006  -0.00020  -0.00005  -0.00002
    H116     X     0.00012   0.00006   0.00002   0.00006  -0.00004  -0.00004
    H116     Y     0.00022   0.00013   0.00001   0.00007  -0.00015  -0.00011
    H116     Z    -0.00019  -0.00008  -0.00001  -0.00004   0.00002   0.00002
  
  Number of imaginary frequencies:   0
   
  Writing vibrational animation data to L_Ar_OtBu_N_Ar_trans_PL139.vib
  Writing IR vibrational spectrum data to L_Ar_OtBu_N_Ar_trans_PL139_vib.spm
  rotational symmetry number:  1

  rotational temperatures (K):      0.005398      0.003416      0.003090
   
  The Quasi-Harmonic approximation will be applied to compute
  vibrational constributions to thermodynamic properties.
  Frequencies will be adjusted to a minimum value of  100.00 cm^-1.

  vibrational temperatures:
       mode:      1        2        3        4        5        6
  temp. (K):   143.88   143.88   143.88   143.88   143.88   143.88
   
       mode:      7        8        9       10       11       12
  temp. (K):   143.88   143.88   143.88   143.88   143.88   143.88
   
       mode:     13       14       15       16       17       18
  temp. (K):   146.17   151.08   160.38   164.18   176.47   182.94
   
       mode:     19       20       21       22       23       24
  temp. (K):   185.71   198.64   209.63   225.91   239.23   249.25
   
       mode:     25       26       27       28       29       30
  temp. (K):   262.31   266.33   298.34   307.67   319.33   339.08
   
       mode:     31       32       33       34       35       36
  temp. (K):   346.09   352.20   360.97   364.97   377.24   383.42
   
       mode:     37       38       39       40       41       42
  temp. (K):   407.46   410.38   426.54   444.83   448.36   459.73
   
       mode:     43       44       45       46       47       48
  temp. (K):   461.68   468.79   479.34   503.81   514.41   520.51
   
       mode:     49       50       51       52       53       54
  temp. (K):   534.70   549.98   556.24   564.54   568.21   583.54
   
       mode:     55       56       57       58       59       60
  temp. (K):   586.12   590.06   599.79   606.70   608.54   612.17
   
       mode:     61       62       63       64       65       66
  temp. (K):   616.40   631.21   680.80   689.90   698.06   725.93
   
       mode:     67       68       69       70       71       72
  temp. (K):   746.10   760.83   771.54   777.99   796.42   826.01
   
       mode:     73       74       75       76       77       78
  temp. (K):   830.78   839.07   843.16   875.03   895.00   900.16
   
       mode:     79       80       81       82       83       84
  temp. (K):   910.87   915.01   919.60   989.19  1023.89  1032.80
   
       mode:     85       86       87       88       89       90
  temp. (K):  1049.59  1099.41  1110.29  1111.28  1116.18  1123.52
   
       mode:     91       92       93       94       95       96
  temp. (K):  1162.35  1186.06  1191.10  1191.90  1196.24  1200.32
   
       mode:     97       98       99      100      101      102
  temp. (K):  1203.52  1215.77  1260.07  1309.37  1311.60  1318.09
   
       mode:    103      104      105      106      107      108
  temp. (K):  1320.59  1355.80  1362.65  1366.21  1377.31  1378.58
   
       mode:    109      110      111      112      113      114
  temp. (K):  1384.94  1387.00  1395.59  1400.30  1417.68  1428.14
   
       mode:    115      116      117      118      119      120
  temp. (K):  1433.01  1433.77  1440.93  1451.24  1466.73  1469.04
   
       mode:    121      122      123      124      125      126
  temp. (K):  1469.30  1469.88  1478.78  1482.52  1501.15  1512.74
   
       mode:    127      128      129      130      131      132
  temp. (K):  1513.95  1520.84  1522.53  1532.63  1533.17  1543.22
   
       mode:    133      134      135      136      137      138
  temp. (K):  1546.26  1557.99  1605.68  1608.51  1611.79  1615.05
   
       mode:    139      140      141      142      143      144
  temp. (K):  1622.58  1677.55  1720.19  1723.67  1733.75  1733.86
   
       mode:    145      146      147      148      149      150
  temp. (K):  1738.62  1746.31  1757.26  1761.05  1767.12  1771.10
   
       mode:    151      152      153      154      155      156
  temp. (K):  1773.94  1784.79  1794.43  1811.40  1813.14  1817.72
   
       mode:    157      158      159      160      161      162
  temp. (K):  1828.22  1834.57  1851.22  1877.35  1899.42  1928.16
   
       mode:    163      164      165      166      167      168
  temp. (K):  1936.73  1948.14  1983.50  1984.97  2008.79  2023.69
   
       mode:    169      170      171      172      173      174
  temp. (K):  2025.45  2032.33  2049.46  2053.42  2053.81  2055.56
   
       mode:    175      176      177      178      179      180
  temp. (K):  2062.73  2090.31  2105.53  2111.34  2142.29  2153.76
   
       mode:    181      182      183      184      185      186
  temp. (K):  2155.65  2162.28  2170.16  2170.79  2173.37  2173.82
   
       mode:    187      188      189      190      191      192
  temp. (K):  2181.46  2186.29  2186.76  2188.28  2193.21  2198.15
   
       mode:    193      194      195      196      197      198
  temp. (K):  2199.34  2202.48  2211.03  2215.57  2219.86  2225.37
   
       mode:    199      200      201      202      203      204
  temp. (K):  2227.50  2234.72  2238.54  2258.87  2332.44  2359.74
   
       mode:    205      206      207      208      209      210
  temp. (K):  2360.87  2373.76  2384.44  2393.83  2398.38  2414.60
   
       mode:    211      212      213      214      215      216
  temp. (K):  2420.54  4361.10  4366.99  4367.78  4369.96  4373.78
   
       mode:    217      218      219      220      221      222
  temp. (K):  4382.90  4384.30  4387.11  4394.01  4458.50  4470.59
   
       mode:    223      224      225      226      227      228
  temp. (K):  4476.77  4480.08  4483.05  4489.28  4496.56  4497.52
   
       mode:    229      230      231      232      233      234
  temp. (K):  4506.29  4511.52  4532.67  4535.14  4538.16  4541.89
   
       mode:    235      236      237      238      239      240
  temp. (K):  4553.54  4560.30  4566.14  4581.87  4582.36  4585.62
   
       mode:    241      242      243      244      245      246
  temp. (K):  4587.97  4589.98  4596.80  4598.73  4598.96  4605.06
   
       mode:    247      248      249      250      251      252
  temp. (K):  4613.80  4617.47  4621.32  4623.09  4624.90  4627.89
   
       mode:    253      254      255      256      257      258
  temp. (K):  4643.96  4680.08  4697.22  4728.44  5024.26  5130.72
   
   
  Thermodynamic properties calculated assuming an ideal gas

  In the table below, the units for temperature
  are kelvins, the units for U, H, and G are
  kcal/mol and the units for Cv and S are cal/(mol K)

  The zero point energy (ZPE):    474.839 kcal/mol
  is not included in U, H, or G in the table below
  
 
  =============================================================================
  Thermodynamic properties for P = 1.00E+00 atm, calculated at   1 temperatures


  T =   298.15 K, P = 1.00E+00 atm
   
                  U         Cv          S          H          G        ln(Q)
              =========  =========  =========  =========  =========  =========
  trans.          0.889      2.981     45.367      1.481    -12.045   20.32935
  rot.            0.889      2.981     37.676      0.889    -10.344   17.45904
  vib.           24.512    163.473    147.263     24.512    -19.394   32.73319
  elec.           0.000      0.000      0.000      0.000      0.000    0.00000
  ----------------------------------------------------------------------------
  total          26.290    169.435    230.305     26.882    -41.783   70.52158
   
   Total internal energy, Utot(SCFE + ZPE + U):   -2096.794207 hartrees
   Total enthalpy, Htot (Utot + nRT), with n=1:   -2096.793263 hartrees
    Total Gibbs free energy, Gtot (Htot - T*S):   -2096.902688 hartrees
   
  end of program freq
   
 Time(freq)  user:       1.339  user+sys:       1.339  wallclock:       0.693
  
  start of program post
  
  Writing input files for PBF
  end of program post
   
 Time(post)  user:       0.256  user+sys:       0.256  wallclock:       0.102

 Total cpu seconds     user:  152316.528   user+sys:  152316.528
  
 Total elapsed time:    18060 seconds

Job L_Ar_OtBu_N_Ar_trans_PL139 completed on bp1-compute147.data.bp.acrc.priv at Tue Nov 25 18:37:19 2025
