Job L_Ar_OtBu_PL139 started on bp1-compute147.data.bp.acrc.priv at Tue Nov 25 18:39:05 2025
jobid: bp1-compute147-0-6925f7af

  +--------------------------------------------------------------------+
  |  Jaguar version 12.5, release 138                                  |
  |                                                                    |
  |  Copyright Schrodinger, Inc.                                       |
  |  All Rights Reserved.                                              |
  |                                                                    |
  |  The following have contributed to Jaguar (listed alphabetically): |
  |  Ty Balduf, Mike Beachy, Chandler Bennett, Art Bochevarov,         |
  |  Dale Braden, Yixiang Cao, Alan Chien, Chris Cortis,               |
  |  Rich Friesner, Jim Furness, Bill Goddard, Hod Greeley,            |
  |  Tom Hughes, Leif Jacobson, Jean-Marc Langlois, Daniel Levine,     |
  |  Rob Murphy, Dean Philipp, Tom Pollard, Murco Ringnalda,           |
  |  Daniel Mainz, Pablo Videla, Mark Watson, Haoyu Yu.                |
  |                                                                    |
  |  Use of this program should be acknowledged in publications as:    |
  |                                                                    |
  |  Jaguar, version 12.5, Schrodinger, Inc., New York, NY, 2024.      |
  |                                                                    |
  |  A. D. Bochevarov, E. Harder, T. F. Hughes, J. R. Greenwood,       |
  |  D. A. Braden, D. M. Philipp, D. Rinaldo, M. D. Halls,             |
  |  J. Zhang, R. A. Friesner, "Jaguar: A High-Performance Quantum     |
  |  Chemistry Software Program with Strengths in Life and Materials   |
  |  Sciences", Int. J. Quantum Chem., 2013, 113(18), 2110-2142.       |
  +--------------------------------------------------------------------+
  
  start of program pre
  
  Job name: L_Ar_OtBu_PL139
  Executables used: /software/local/apps/schrodinger2024-3/jaguar-v12.5/bin/Linux-x86_64
  Temporary files : /tmp/ar21627/L_Ar_OtBu_PL139#bp1-compute147-0-6925f7af
  Basis file : using default basis file from /software/local/apps/schrodinger2024-3
  Maestro file (input):  L_Ar_OtBu_PL139.mae
  Maestro file (output): L_Ar_OtBu_PL139.01.mae
  
 Contents of input file: &gen and (if present) &atomic sections only
 ----------------Contents start----------------
&gen
dftname=b3pw91-d3
basis=6-31G*
numd=5
ip11=2
iaccg=3
isolv=2
igeopt=1
solvent=benzene
ifreq=1
&
&atomic
atom basis
Pd2 lacv3p*
&
 -----------------Contents end-----------------
 
  PS calculation requested. Using PS version of 6-31g*
  basis set:               non_standard                    
  net molecular charge:    0
  multiplicity:            1
  
  Using up to  18 threads per process
  
  This run will use ECP on 1 atom
  number of basis functions....          577
  
 Input geometry:
                                   angstroms
  atom               x                 y                 z
  P1            0.0000000000      0.0000000000      0.0000000000 
  Pd2           0.0000000000      0.0000000000      2.2637889133 
  C73           4.6239275840      0.0000000000      3.0871419542 
  C74           3.8773244378      1.1347339905      2.8016270008 
  C75           2.5357067483      0.9760674746      2.4449804961 
  C76           1.9491891630     -0.2968617969      2.4088933252 
  C77           2.7339410393     -1.4192860585      2.6738420525 
  C78           4.0781337536     -1.2747174132      3.0212171169 
  F79           5.9223704668      0.1379846375      3.4230940255 
  H80           4.3428981675      2.1155071832      2.8456150431 
  H81           1.9523868604      1.8669685428      2.2074907762 
  H82           2.3172842998     -2.4170812780      2.6031485095 
  H83           4.7016366658     -2.1374380631      3.2397644848 
  C3           -1.6783405469      0.2459261898     -0.7415223956 
  C4            0.8001264287     -1.6111986878     -0.7102616146 
  C5            0.9798050045      1.5337297933     -0.6276265491 
  C6           -2.9848687737      0.9553205404      1.4083120239 
  C7           -4.0163203620      0.2720704218      2.0723154407 
  C8           -4.2036020791      0.4047506101      3.4444791599 
  C9           -3.3701283552      1.2406779257      4.1865760864 
  C10          -2.3666943149      1.9567929540      3.5394671604 
  C11          -2.1771419857      1.8169322856      2.1619543631 
  C12          -2.8339310234      0.7204635286     -0.0573470454 
  C13          -4.0109646436      0.9084163415     -0.8082843786 
  C14          -4.0901278375      0.6371797797     -2.1680032895 
  C15          -2.9655952717      0.1515490620     -2.8292194619 
  C16          -1.7872981976     -0.0318264702     -2.1167049410 
  C17          -0.2490261200     -2.7278810608     -0.8305899638 
  C18           1.5025663908     -1.4736827810     -2.0730790512 
  C19           1.8605023193     -2.0494062030      0.3206274443 
  C20           2.4477870505      1.4071473050     -0.1954125697 
  C21           0.3831085274      2.7937004955      0.0170820558 
  C22           0.8802898960      1.7430444572     -2.1494723262 
  H23          -4.6540739468     -0.4057570369      1.5091738419 
  H24          -4.9937811873     -0.1585391742      3.9355482448 
  H25          -3.5055273548      1.3370656110      5.2613788548 
  H26          -1.7064220098      2.6157013223      4.0962058728 
  H27          -1.4291417419      2.4265716127      1.6757963758 
  H28          -4.8871551607      1.2902430714     -0.2895799849 
  H29          -5.0220186294      0.8039442315     -2.7031601767 
  H30          -2.9966379891     -0.0772306857     -3.8918669941 
  H31          -0.9211217327     -0.3978194281     -2.6544141902 
  H32          -1.0530217952     -2.4828134353     -1.5317007749 
  H33           0.2535250918     -3.6309374852     -1.2023553999 
  H34          -0.6939429367     -2.9761122699      0.1334920832 
  H35           0.8232983565     -1.2137632137     -2.8904371521 
  H36           2.3272653681     -0.7576803054     -2.0609339571 
  H37           1.9329282856     -2.4521736704     -2.3238329621 
  H38           1.4019925642     -2.3225931825      1.2752719085 
  H39           2.3836048388     -2.9326687971     -0.0693351739 
  H40           2.6084631638     -1.2740074867      0.5139149550 
  H41           2.5393875940      1.2510936402      0.8839120177 
  H42           2.9750770055      0.6041259486     -0.7177217327 
  H43           2.9646528144      2.3454170205     -0.4356326949 
  H44           0.5009756782      2.7983826913      1.1030790334 
  H45           0.9226303153      3.6670619986     -0.3718317362 
  H46          -0.6724070993      2.9202199928     -0.2481064383 
  H47           1.2645092689      0.9145073024     -2.7430739987 
  H48          -0.1463726677      1.9530014975     -2.4639173292 
  H49           1.4840924606      2.6254401535     -2.3999404832 
  O3           -0.0327999077     -0.2657265772      4.3137415049 
  C105          0.4644875224      0.5808227558      5.3128822524 
  C106         -0.3708122586      0.2785419354      6.5684105024 
  C107          1.9401843581      0.2992697586      5.6555837729 
  C108          0.2770298389      2.0611501392      4.9502521490 
  H109         -0.0144728216      0.8393540763      7.4426340297 
  H110         -1.4123529958      0.5444312858      6.3833384778 
  H111         -0.3251466514     -0.7931591494      6.7940886678 
  H112          0.5786884214      2.7280447180      5.7699223577 
  H113          0.8722007921      2.3124932762      4.0658131902 
  H114         -0.7778155424      2.2444520796      4.7146055672 
  H115          2.2374995148      0.8191055790      6.5769206349 
  H116          2.0748346913     -0.7780324622      5.8041215146 
  H117          2.6127958773      0.6140497774      4.8564082705 
   
  principal moments of inertia:
        amu*angstrom^2:              3301.70486              4719.87847              6647.25427
                g*cm^2:          5.48260923E-37          7.83754161E-37          1.10380240E-36
   
  rotational constants:
               cm^(-1):      0.00510573      0.00357162      0.00253603
                   GHz:      0.15306608      0.10707458      0.07602823
   
  Molecular weight:     572.18 amu
   
  Stoichiometry: PdC30PH40OF
  Molecular Point Group: C1      
  Point Group used: C1
  
 
Number of optimization coordinates:   240
Number of independent coordinates:    240
Number of non-redundant coordinates:  216
Number of frozen coordinates:           0
Number of harmonic constraints:         0
 
Number of geometric degrees of freedom:   216
Maximum geometric degrees of freedom:     216
 " " " " " excluding dummy atoms:         216
 
 
  bond lengths (angstroms):
 
 P1      -Pd2     :   2.263789      P1      -C3      :   1.851260
 P1      -C4      :   1.934072      P1      -C5      :   1.925165
 Pd2     -C76     :   1.976998      Pd2     -O3      :   2.067364
 C73     -C74     :   1.388004      C73     -C78     :   1.388215
 C73     -F79     :   1.348279      C74     -C75     :   1.397251
 C74     -H80     :   1.086559      C75     -C76     :   1.402018
 C75     -H81     :   1.091040      C76     -C77     :   1.394944
 C77     -C78     :   1.395859      C77     -H82     :   1.083603
 C78     -H83     :   1.086649      C3      -C12     :   1.424314
 C3      -C16     :   1.407176      C4      -C17     :   1.536938
 C4      -C18     :   1.539352      C4      -C19     :   1.542451
 C5      -C20     :   1.535514      C5      -C21     :   1.535976
 C5      -C22     :   1.539393      C6      -C7      :   1.404145
 C6      -C11     :   1.400990      C6      -C12     :   1.492011
 C7      -C8      :   1.391227      C7      -H23     :   1.087800
 C8      -C9      :   1.394332      C8      -H24     :   1.087579
 C9      -C10     :   1.392283      C9      -H25     :   1.087577
 C10     -C11     :   1.397509      C10     -H26     :   1.086314
 C11     -H27     :   1.080516      C12     -C13     :   1.408773
 C13     -C14     :   1.388766      C13     -H28     :   1.087454
 C14     -C15     :   1.391983      C14     -H29     :   1.087485
 C15     -C16     :   1.389132      C15     -H30     :   1.087439
 C16     -H31     :   1.083210      C17     -H32     :   1.094543
 C17     -H33     :   1.098307      C17     -H34     :   1.090424
 C18     -H35     :   1.094092      C18     -H36     :   1.092216
 C18     -H37     :   1.097968      C19     -H38     :   1.093713
 C19     -H39     :   1.098117      C19     -H40     :   1.094554
 C20     -H41     :   1.094388      C20     -H42     :   1.093474
 C20     -H43     :   1.097819      C21     -H44     :   1.092385
 C21     -H45     :   1.097770      C21     -H46     :   1.095648
 C22     -H47     :   1.089248      C22     -H48     :   1.094072
 C22     -H49     :   1.098150      O3      -C105    :   1.400794
 C105    -C106    :   1.538002      C105    -C107    :   1.540908
 C105    -C108    :   1.535581      C106    -H109    :   1.098069
 C106    -H110    :   1.090759      C106    -H111    :   1.096157
 C107    -H115    :   1.098857      C107    -H116    :   1.095798
 C107    -H117    :   1.090951      C108    -H112    :   1.098911
 C108    -H113    :   1.095278      C108    -H114    :   1.096279
 
  bond angles:
 
 C3      -P1      -Pd2     : 113.612578  C4      -P1      -Pd2     : 111.545277
 C4      -P1      -C3      : 109.793279  C5      -P1      -Pd2     : 109.026888
 C5      -P1      -C3      : 103.002342  C5      -P1      -C4      : 109.475473
 C76     -Pd2     -P1      :  94.209085  O3      -Pd2     -P1      : 172.558750
 O3      -Pd2     -C76     :  85.616252  C78     -C73     -C74     : 121.967640
 F79     -C73     -C74     : 119.051949  F79     -C73     -C78     : 118.975572
 C75     -C74     -C73     : 118.434217  H80     -C74     -C73     : 119.942306
 H80     -C74     -C75     : 121.618309  C76     -C75     -C74     : 120.753943
 H81     -C75     -C74     : 118.437076  H81     -C75     -C76     : 120.804628
 C75     -C76     -Pd2     : 106.141509  C77     -C76     -Pd2     : 133.584105
 C77     -C76     -C75     : 119.361542  C78     -C77     -C76     : 120.376302
 H82     -C77     -C76     : 120.811504  H82     -C77     -C78     : 118.808379
 C77     -C78     -C73     : 119.047187  H83     -C78     -C73     : 119.595665
 H83     -C78     -C77     : 121.357148  C12     -C3      -P1      : 125.972783
 C16     -C3      -P1      : 115.812015  C16     -C3      -C12     : 118.188465
 C17     -C4      -P1      : 110.586417  C18     -C4      -P1      : 116.070809
 C18     -C4      -C17     : 107.883996  C19     -C4      -P1      : 105.999774
 C19     -C4      -C17     : 108.372203  C19     -C4      -C18     : 107.660370
 C20     -C5      -P1      : 109.215503  C21     -C5      -P1      : 108.600149
 C21     -C5      -C20     : 108.715597  C22     -C5      -P1      : 113.435731
 C22     -C5      -C20     : 110.565719  C22     -C5      -C21     : 106.158878
 C11     -C6      -C7      : 117.929587  C12     -C6      -C7      : 117.532633
 C12     -C6      -C11     : 124.535491  C8      -C7      -C6      : 121.257695
 H23     -C7      -C6      : 119.279050  H23     -C7      -C8      : 119.412830
 C9      -C8      -C7      : 120.108494  H24     -C8      -C7      : 119.587286
 H24     -C8      -C9      : 120.297963  C10     -C9      -C8      : 119.459141
 H25     -C9      -C8      : 120.310581  H25     -C9      -C10     : 120.229489
 C11     -C10     -C9      : 120.292302  H26     -C10     -C9      : 120.785938
 H26     -C10     -C11     : 118.909768  C10     -C11     -C6      : 120.903071
 H27     -C11     -C6      : 120.269892  H27     -C11     -C10     : 118.745742
 C6      -C12     -C3      : 127.329058  C13     -C12     -C3      : 117.792427
 C13     -C12     -C6      : 114.715019  C14     -C13     -C12     : 122.919698
 H28     -C13     -C12     : 117.760421  H28     -C13     -C14     : 119.318308
 C15     -C14     -C13     : 119.154737  H29     -C14     -C13     : 120.046907
 H29     -C14     -C15     : 120.798350  C16     -C15     -C14     : 119.186797
 H30     -C15     -C14     : 120.965655  H30     -C15     -C16     : 119.845893
 C15     -C16     -C3      : 122.743628  H31     -C16     -C3      : 119.333523
 H31     -C16     -C15     : 117.921443  H32     -C17     -C4      : 112.885703
 H33     -C17     -C4      : 108.152753  H33     -C17     -H32     : 107.660915
 H34     -C17     -C4      : 112.006127  H34     -C17     -H32     : 108.517346
 H34     -C17     -H33     : 107.385053  H35     -C18     -C4      : 113.534790
 H36     -C18     -C4      : 113.158312  H36     -C18     -H35     : 108.744949
 H37     -C18     -C4      : 107.543960  H37     -C18     -H35     : 106.526014
 H37     -C18     -H36     : 106.905646  H38     -C19     -C4      : 111.476832
 H39     -C19     -C4      : 108.581407  H39     -C19     -H38     : 107.984474
 H40     -C19     -C4      : 112.739310  H40     -C19     -H38     : 108.016224
 H40     -C19     -H39     : 107.878397  H41     -C20     -C5      : 111.677271
 H42     -C20     -C5      : 112.773923  H42     -C20     -H41     : 109.026551
 H43     -C20     -C5      : 108.545492  H43     -C20     -H41     : 107.353592
 H43     -C20     -H42     : 107.223221  H44     -C21     -C5      : 112.264557
 H45     -C21     -C5      : 108.239362  H45     -C21     -H44     : 107.203449
 H46     -C21     -C5      : 111.554274  H46     -C21     -H44     : 110.125305
 H46     -C21     -H45     : 107.208595  H47     -C22     -C5      : 114.363387
 H48     -C22     -C5      : 111.770403  H48     -C22     -H47     : 108.684073
 H49     -C22     -C5      : 107.409267  H49     -C22     -H47     : 107.035261
 H49     -C22     -H48     : 107.229844  C105    -O3      -Pd2     : 128.605205
 C106    -C105    -O3      : 105.705021  C107    -C105    -O3      : 112.841871
 C107    -C105    -C106    : 107.617180  C108    -C105    -O3      : 111.765779
 C108    -C105    -C106    : 108.418066  C108    -C105    -C107    : 110.216880
 H109    -C106    -C105    : 111.919221  H110    -C106    -C105    : 109.401162
 H110    -C106    -H109    : 108.690658  H111    -C106    -C105    : 109.730673
 H111    -C106    -H109    : 108.777906  H111    -C106    -H110    : 108.242487
 H115    -C107    -C105    : 111.048107  H116    -C107    -C105    : 109.114701
 H116    -C107    -H115    : 108.553124  H117    -C107    -C105    : 112.012146
 H117    -C107    -H115    : 108.113053  H117    -C107    -H116    : 107.890948
 H112    -C108    -C105    : 112.047636  H113    -C108    -C105    : 110.217128
 H113    -C108    -H112    : 108.293231  H114    -C108    -C105    : 109.233007
 H114    -C108    -H112    : 108.843958  H114    -C108    -H113    : 108.114458
 
  torsional angles:
 
 P1      -Pd2     -C76     -C75     :  90.319049
 P1      -Pd2     -C76     -C77     :-101.120570
 P1      -Pd2     -O3      -C105    : 159.137813
 P1      -C3      -C12     -C6      :  -8.137436
 P1      -C3      -C12     -C13     : 176.781218
 P1      -C3      -C16     -C15     :-177.521632
 P1      -C3      -C16     -H31     :   2.037844
 P1      -C4      -C17     -H32     :  62.972465
 P1      -C4      -C17     -H33     :-178.018035
 P1      -C4      -C17     -H34     : -59.875938
 P1      -C4      -C18     -H35     : -64.395787
 P1      -C4      -C18     -H36     :  60.182148
 P1      -C4      -C18     -H37     : 178.017854
 P1      -C4      -C19     -H38     :  64.378656
 P1      -C4      -C19     -H39     :-176.784912
 P1      -C4      -C19     -H40     : -57.307950
 P1      -C5      -C20     -H41     : -54.136107
 P1      -C5      -C20     -H42     :  69.049618
 P1      -C5      -C20     -H43     :-172.293550
 P1      -C5      -C21     -H44     :  63.845273
 P1      -C5      -C21     -H45     :-178.028361
 P1      -C5      -C21     -H46     : -60.311984
 P1      -C5      -C22     -H47     : -60.397404
 P1      -C5      -C22     -H48     :  63.625909
 P1      -C5      -C22     -H49     :-179.019699
 Pd2     -P1      -C3      -C12     :  15.187706
 Pd2     -P1      -C3      -C16     :-166.737517
 Pd2     -P1      -C4      -C17     :  86.652955
 Pd2     -P1      -C4      -C18     :-150.050927
 Pd2     -P1      -C4      -C19     : -30.602457
 Pd2     -P1      -C5      -C20     :  64.182416
 Pd2     -P1      -C5      -C21     : -54.230774
 Pd2     -P1      -C5      -C22     :-172.000787
 Pd2     -C76     -C75     -C74     : 167.588108
 Pd2     -C76     -C75     -H81     : -11.641067
 Pd2     -C76     -C77     -C78     :-164.964592
 Pd2     -C76     -C77     -H82     :  15.754459
 Pd2     -O3      -C105    -C106    : 153.705005
 Pd2     -O3      -C105    -C107    : -88.934655
 Pd2     -O3      -C105    -C108    :  35.951739
 C73     -C74     -C75     -C76     :   1.563624
 C73     -C74     -C75     -H81     :-179.189298
 C73     -C78     -C77     -C76     :  -0.569962
 C73     -C78     -C77     -H82     : 178.725249
 C74     -C73     -C78     -C77     :  -0.822178
 C74     -C73     -C78     -H83     : 179.176538
 C74     -C75     -C76     -C77     :  -2.923851
 C75     -C74     -C73     -C78     :   0.325901
 C75     -C74     -C73     -F79     : 179.517055
 C75     -C76     -Pd2     -O3      : -97.141147
 C75     -C76     -C77     -C78     :   2.408789
 C75     -C76     -C77     -H82     :-176.872160
 C76     -Pd2     -P1      -C3      : 179.676580
 C76     -Pd2     -P1      -C4      :  54.931247
 C76     -Pd2     -P1      -C5      : -66.087621
 C76     -Pd2     -O3      -C105    :  70.201046
 C76     -C75     -C74     -H80     :-179.264184
 C76     -C77     -C78     -H83     : 179.431346
 C77     -C76     -Pd2     -O3      :  71.419233
 C77     -C76     -C75     -H81     : 177.846973
 C77     -C78     -C73     -F79     : 179.986070
 C78     -C73     -C74     -H80     :-178.860592
 F79     -C73     -C74     -H80     :   0.330562
 F79     -C73     -C78     -H83     :  -0.015214
 H80     -C74     -C75     -H81     :  -0.017106
 H82     -C77     -C78     -H83     :  -1.273443
 C3      -P1      -Pd2     -O3      :  91.299491
 C3      -P1      -C4      -C17     : -40.200646
 C3      -P1      -C4      -C18     :  83.095472
 C3      -P1      -C4      -C19     :-157.456058
 C3      -P1      -C5      -C20     :-174.855005
 C3      -P1      -C5      -C21     :  66.731806
 C3      -P1      -C5      -C22     : -51.038207
 C3      -C12     -C6      -C7      :-122.679077
 C3      -C12     -C6      -C11     :  57.884212
 C3      -C12     -C13     -C14     :   0.776624
 C3      -C12     -C13     -H28     :-178.763369
 C3      -C16     -C15     -C14     :   0.386096
 C3      -C16     -C15     -H30     : 179.922753
 C4      -P1      -Pd2     -O3      : -33.445842
 C4      -P1      -C3      -C12     : 140.869577
 C4      -P1      -C3      -C16     : -41.055646
 C4      -P1      -C5      -C20     : -58.092825
 C4      -P1      -C5      -C21     :-176.506014
 C4      -P1      -C5      -C22     :  65.723973
 C5      -P1      -Pd2     -O3      :-154.464710
 C5      -P1      -C3      -C12     :-102.594174
 C5      -P1      -C3      -C16     :  75.480603
 C5      -P1      -C4      -C17     :-152.590068
 C5      -P1      -C4      -C18     : -29.293951
 C5      -P1      -C4      -C19     :  90.154520
 C6      -C7      -C8      -C9      :   0.790764
 C6      -C7      -C8      -H24     :-178.302058
 C6      -C11     -C10     -C9      :  -0.207439
 C6      -C11     -C10     -H26     : 178.542823
 C6      -C12     -C3      -C16     : 173.828931
 C6      -C12     -C13     -C14     :-174.919075
 C6      -C12     -C13     -H28     :   5.540932
 C7      -C6      -C11     -C10     :   2.040474
 C7      -C6      -C11     -H27     :-174.639804
 C7      -C6      -C12     -C13     :  52.531204
 C7      -C8      -C9      -C10     :   1.104693
 C7      -C8      -C9      -H25     :-179.217549
 C8      -C7      -C6      -C11     :  -2.337504
 C8      -C7      -C6      -C12     : 178.187690
 C8      -C9      -C10     -C11     :  -1.392881
 C8      -C9      -C10     -H26     : 179.880568
 C9      -C8      -C7      -H23     : 178.189248
 C9      -C10     -C11     -H27     : 176.522502
 C10     -C9      -C8      -H24     :-179.808991
 C10     -C11     -C6      -C12     :-178.524870
 C11     -C6      -C7      -H23     :-179.739404
 C11     -C6      -C12     -C13     :-126.905508
 C11     -C10     -C9      -H25     : 178.929094
 C12     -C3      -C16     -C15     :   0.710689
 C12     -C3      -C16     -H31     :-179.729834
 C12     -C6      -C7      -H23     :   0.785791
 C12     -C6      -C11     -H27     :   4.794852
 C12     -C13     -C14     -C15     :   0.315150
 C12     -C13     -C14     -H29     :-179.709809
 C13     -C12     -C3      -C16     :  -1.252415
 C13     -C14     -C15     -C16     :  -0.896212
 C13     -C14     -C15     -H30     : 179.572476
 C14     -C15     -C16     -H31     :-179.179268
 C15     -C14     -C13     -H28     : 179.848290
 C16     -C15     -C14     -H29     : 179.128940
 C17     -C4      -C18     -H35     :  60.298740
 C17     -C4      -C18     -H36     :-175.123325
 C17     -C4      -C18     -H37     : -57.287619
 C17     -C4      -C19     -H38     : -54.350318
 C17     -C4      -C19     -H39     :  64.486114
 C17     -C4      -C19     -H40     :-176.036924
 C18     -C4      -C17     -H32     : -64.942920
 C18     -C4      -C17     -H33     :  54.066580
 C18     -C4      -C17     -H34     : 172.208677
 C18     -C4      -C19     -H38     :-170.794610
 C18     -C4      -C19     -H39     : -51.958178
 C18     -C4      -C19     -H40     :  67.518784
 C19     -C4      -C17     -H32     : 178.757361
 C19     -C4      -C17     -H33     : -62.233139
 C19     -C4      -C17     -H34     :  55.908958
 C19     -C4      -C18     -H35     : 177.062164
 C19     -C4      -C18     -H36     : -58.359901
 C19     -C4      -C18     -H37     :  59.475805
 C20     -C5      -C21     -H44     : -54.883393
 C20     -C5      -C21     -H45     :  63.242973
 C20     -C5      -C21     -H46     :-179.040650
 C20     -C5      -C22     -H47     :  62.679810
 C20     -C5      -C22     -H48     :-173.296878
 C20     -C5      -C22     -H49     : -55.942486
 C21     -C5      -C20     -H41     :  64.204917
 C21     -C5      -C20     -H42     :-172.609358
 C21     -C5      -C20     -H43     : -53.952526
 C21     -C5      -C22     -H47     :-179.576333
 C21     -C5      -C22     -H48     : -55.553021
 C21     -C5      -C22     -H49     :  61.801372
 C22     -C5      -C20     -H41     :-179.630588
 C22     -C5      -C20     -H42     : -56.444862
 C22     -C5      -C20     -H43     :  62.211969
 C22     -C5      -C21     -H44     :-173.850735
 C22     -C5      -C21     -H45     : -55.724369
 C22     -C5      -C21     -H46     :  61.992008
 H23     -C7      -C8      -H24     :  -0.903574
 H24     -C8      -C9      -H25     :  -0.131232
 H25     -C9      -C10     -H26     :   0.202544
 H26     -C10     -C11     -H27     :  -4.727236
 H28     -C13     -C14     -H29     :  -0.176669
 H29     -C14     -C15     -H30     :  -0.402372
 H30     -C15     -C16     -H31     :   0.357389
 O3      -C105    -C106    -H109    : 175.794383
 O3      -C105    -C106    -H110    : -63.679101
 O3      -C105    -C106    -H111    :  54.934236
 O3      -C105    -C107    -H115    :-167.768189
 O3      -C105    -C107    -H116    : -48.151558
 O3      -C105    -C107    -H117    :  71.241942
 O3      -C105    -C108    -H112    : 174.640472
 O3      -C105    -C108    -H113    : -64.694059
 O3      -C105    -C108    -H114    :  53.952009
 C106    -C105    -C107    -H115    : -51.541110
 C106    -C105    -C107    -H116    :  68.075521
 C106    -C105    -C107    -H117    :-172.530979
 C106    -C105    -C108    -H112    :  58.526247
 C106    -C105    -C108    -H113    : 179.191716
 C106    -C105    -C108    -H114    : -62.162215
 C107    -C105    -C106    -H109    :  54.972245
 C107    -C105    -C106    -H110    : 175.498761
 C107    -C105    -C106    -H111    : -65.887901
 C107    -C105    -C108    -H112    : -59.026999
 C107    -C105    -C108    -H113    :  61.638470
 C107    -C105    -C108    -H114    :-179.715462
 C108    -C105    -C106    -H109    : -64.230444
 C108    -C105    -C106    -H110    :  56.296072
 C108    -C105    -C106    -H111    : 174.909409
 C108    -C105    -C107    -H115    :  66.506211
 C108    -C105    -C107    -H116    :-173.877158
 C108    -C105    -C107    -H117    : -54.483659
 
  nuclear repulsion energy.......          4525.876695397 hartrees
  
  Detected an organometallic with only one TM atom. 
  
  Oxidation state on metal       2 is     2
  Formal multiplet on metal      2 is     1
  Formal charge on ligand        3 is    -1
  Formal multiplet on ligand     3 is     1
  Formal charge on ligand        4 is    -1
  Formal multiplet on ligand     4 is     1
  
 
  Will use High-Quality Initial guess for organometallics
       including d-d repulsion (iguess=30)
 
 Non-default options chosen:
   SCF calculation type: DFT(b3pw91-d3)              
   DFT=Becke_3_Parameter/HF+Slater+Becke88+PW91+PW-GGAIIC (B3PW91-D3)
   Geometry will be optimized in redundant internal coordinates
   Solvation energy will be computed using PBF
     -solute cavity energy will not be included
     -surface area terms will not be included
   Vibrational frequencies and related properties will be computed
      from analytic second derivatives
   IR intensities will be computed
   Thermochemical properties will be computed
   Maximum number of geometry steps: 100
   Scaling standard convergence criteria by a factor of   5.00
   Solvent: benzene                                                         
   Internal dielectric constant:    1.000
   Continuum dielectric constant:   2.283
   Solvent probe molecule radius:   2.600
  
 Non-default print settings:
     11=  2
  
 Temporary integer options set:
     21= -1  73=  2
  
  atom       vdw   vdw2    cov     mass  grid  daf  charge   basis
  P1        2.147  2.074  1.060   30.974    Y    Y      Y    ps_6-31g*
  Pd2       1.450  1.450  1.280  105.903    Y    Y      Y    lacv3p*
  C73       1.949  1.900  0.770   12.000    Y    Y      Y    ps_6-31g*
  C74       1.949  1.900  0.770   12.000    Y    Y      Y    ps_6-31g*
  C75       1.949  1.900  0.770   12.000    Y    Y      Y    ps_6-31g*
  C76       1.949  1.900  0.770   12.000    Y    Y      Y    ps_6-31g*
  C77       1.949  1.900  0.770   12.000    Y    Y      Y    ps_6-31g*
  C78       1.949  1.900  0.770   12.000    Y    Y      Y    ps_6-31g*
  F79       1.736  1.682  0.720   18.998    Y    Y      Y    ps_6-31g*
  H80       1.597  1.150  0.320    1.008    Y    Y      Y    ps_6-31g*
  H81       1.597  1.150  0.320    1.008    Y    Y      Y    ps_6-31g*
  H82       1.597  1.150  0.320    1.008    Y    Y      Y    ps_6-31g*
  H83       1.597  1.150  0.320    1.008    Y    Y      Y    ps_6-31g*
  C3        1.949  1.900  0.770   12.000    Y    Y      Y    ps_6-31g*
  C4        1.949  1.900  0.770   12.000    Y    Y      Y    ps_6-31g*
  C5        1.949  1.900  0.770   12.000    Y    Y      Y    ps_6-31g*
  C6        1.949  1.900  0.770   12.000    Y    Y      Y    ps_6-31g*
  C7        1.949  1.900  0.770   12.000    Y    Y      Y    ps_6-31g*
  C8        1.949  1.900  0.770   12.000    Y    Y      Y    ps_6-31g*
  C9        1.949  1.900  0.770   12.000    Y    Y      Y    ps_6-31g*
  C10       1.949  1.900  0.770   12.000    Y    Y      Y    ps_6-31g*
  C11       1.949  1.900  0.770   12.000    Y    Y      Y    ps_6-31g*
  C12       1.949  1.900  0.770   12.000    Y    Y      Y    ps_6-31g*
  C13       1.949  1.900  0.770   12.000    Y    Y      Y    ps_6-31g*
  C14       1.949  1.900  0.770   12.000    Y    Y      Y    ps_6-31g*
  C15       1.949  1.900  0.770   12.000    Y    Y      Y    ps_6-31g*
  C16       1.949  1.900  0.770   12.000    Y    Y      Y    ps_6-31g*
  C17       1.949  1.900  0.770   12.000    Y    Y      Y    ps_6-31g*
  C18       1.949  1.900  0.770   12.000    Y    Y      Y    ps_6-31g*
  C19       1.949  1.900  0.770   12.000    Y    Y      Y    ps_6-31g*
  C20       1.949  1.900  0.770   12.000    Y    Y      Y    ps_6-31g*
  C21       1.949  1.900  0.770   12.000    Y    Y      Y    ps_6-31g*
  C22       1.949  1.900  0.770   12.000    Y    Y      Y    ps_6-31g*
  H23       1.597  1.150  0.320    1.008    Y    Y      Y    ps_6-31g*
  H24       1.597  1.150  0.320    1.008    Y    Y      Y    ps_6-31g*
  H25       1.597  1.150  0.320    1.008    Y    Y      Y    ps_6-31g*
  H26       1.597  1.150  0.320    1.008    Y    Y      Y    ps_6-31g*
  H27       1.597  1.150  0.320    1.008    Y    Y      Y    ps_6-31g*
  H28       1.597  1.150  0.320    1.008    Y    Y      Y    ps_6-31g*
  H29       1.597  1.150  0.320    1.008    Y    Y      Y    ps_6-31g*
  H30       1.597  1.150  0.320    1.008    Y    Y      Y    ps_6-31g*
  H31       1.597  1.150  0.320    1.008    Y    Y      Y    ps_6-31g*
  H32       1.597  1.150  0.320    1.008    Y    Y      Y    ps_6-31g*
  H33       1.597  1.150  0.320    1.008    Y    Y      Y    ps_6-31g*
  H34       1.597  1.150  0.320    1.008    Y    Y      Y    ps_6-31g*
  H35       1.597  1.150  0.320    1.008    Y    Y      Y    ps_6-31g*
  H36       1.597  1.150  0.320    1.008    Y    Y      Y    ps_6-31g*
  H37       1.597  1.150  0.320    1.008    Y    Y      Y    ps_6-31g*
  H38       1.597  1.150  0.320    1.008    Y    Y      Y    ps_6-31g*
  H39       1.597  1.150  0.320    1.008    Y    Y      Y    ps_6-31g*
  H40       1.597  1.150  0.320    1.008    Y    Y      Y    ps_6-31g*
  H41       1.597  1.150  0.320    1.008    Y    Y      Y    ps_6-31g*
  H42       1.597  1.150  0.320    1.008    Y    Y      Y    ps_6-31g*
  H43       1.597  1.150  0.320    1.008    Y    Y      Y    ps_6-31g*
  H44       1.597  1.150  0.320    1.008    Y    Y      Y    ps_6-31g*
  H45       1.597  1.150  0.320    1.008    Y    Y      Y    ps_6-31g*
  H46       1.597  1.150  0.320    1.008    Y    Y      Y    ps_6-31g*
  H47       1.597  1.150  0.320    1.008    Y    Y      Y    ps_6-31g*
  H48       1.597  1.150  0.320    1.008    Y    Y      Y    ps_6-31g*
  H49       1.597  1.150  0.320    1.008    Y    Y      Y    ps_6-31g*
  O3        1.702  1.600  0.730   15.995    Y    Y      Y    ps_6-31g*
  C105      1.949  1.900  0.770   12.000    Y    Y      Y    ps_6-31g*
  C106      1.949  1.900  0.770   12.000    Y    Y      Y    ps_6-31g*
  C107      1.949  1.900  0.770   12.000    Y    Y      Y    ps_6-31g*
  C108      1.949  1.900  0.770   12.000    Y    Y      Y    ps_6-31g*
  H109      1.597  1.150  0.320    1.008    Y    Y      Y    ps_6-31g*
  H110      1.597  1.150  0.320    1.008    Y    Y      Y    ps_6-31g*
  H111      1.597  1.150  0.320    1.008    Y    Y      Y    ps_6-31g*
  H112      1.597  1.150  0.320    1.008    Y    Y      Y    ps_6-31g*
  H113      1.597  1.150  0.320    1.008    Y    Y      Y    ps_6-31g*
  H114      1.597  1.150  0.320    1.008    Y    Y      Y    ps_6-31g*
  H115      1.597  1.150  0.320    1.008    Y    Y      Y    ps_6-31g*
  H116      1.597  1.150  0.320    1.008    Y    Y      Y    ps_6-31g*
  H117      1.597  1.150  0.320    1.008    Y    Y      Y    ps_6-31g*
 
  atom      formal  2spin      esp    mulk    frag
  P1           0       0        Y    0.000       0
  Pd2          2       0        Y    0.000       0
  C73         -1       0        Y    0.000       0
  O3          -1       0        Y    0.000       0
  
  end of program pre
   
 Time(pre)  user:       4.086  user+sys:       4.086  wallclock:       1.143
  
  start of program onee
  
  smallest eigenvalue of S:    4.144E-04
  number of canonical orbitals.....          575
  end of program onee
   
 Time(onee)  user:       5.867  user+sys:       5.867  wallclock:       1.016
  
  start of program hfig
  
  initial wavefunction generated automatically from atomic wavefunctions
  Only one state below 0.010000
  Skip d-d repulsion considerations 
 
  Irreducible     Total no   No of occupied orbitals 
  representation  orbitals   Shell_1  Shell_2    ...
  No Symm          575        135
  ------------------------
  Orbital occupation/shell    1.000
 
  end of program hfig
   
 Time(hfig)  user:       2.528  user+sys:       2.528  wallclock:       1.242
  
  start of program probe
  
  end of program probe
   
 Time(probe)  user:       1.233  user+sys:       1.233  wallclock:       0.318
  
  start of program grid
  
   grid     grid set  grid #  grid sym
  ------    --------  ------  --------
  coarse        0        0        1
  medium        2        1        1
  fine          0        0        1
  ultrafine     4        2        1
  charge       -1        3        1
  gradient      4        2        1
  density       0        0        1
  DFT-fine    -11        4        1
  DFT-med.    -10        5        1
  DFT-grad    -12        6        1
  DFT-der2     -8        7        1
  DFT-cphf     -9        8        1
  LMP2-enrg     4        2        1
  LMP2-grad     2        1        1
  DFT-cphf2   -15        9        1
  PBF-dens      0        0        1
  plotting      0        0        1
  Rel-grad    -17        0        1
  
  number of gridpoints: 
     atom           P1         Pd2         C73         C74         C75         C76         C77
  grid # 1         611         358          78          92          92         100          94
  grid # 2         429         309         330         316         298         380         316
  grid # 3           8         231          23          10           6           6           6
  grid # 4        8714        8714        8714        8714        8714        8714        8714
  grid # 5        1192        1192        1192        1192        1192        1192        1192
  grid # 6        9132        9132        5922        5922        5922        5922        5922
  grid # 7       23034       32968       13950       13950       13950       13950       13950
  grid # 8         722        1150         748         748         748         748         748
  grid # 9         366        2198         394         394         394         394         394
   
  number of gridpoints: 
     atom          C78         F79         H80         H81         H82         H83          C3
  grid # 1          92         584         114          99         106         115          95
  grid # 2         319         566         462         405         437         463         382
  grid # 3          13         359         363          56         223         394          14
  grid # 4        8714        8714        8714        8714        8714        8714        8714
  grid # 5        1192        1192        1192        1192        1192        1192        1192
  grid # 6        5922        5922        5922        5922        5922        5922        5922
  grid # 7       13950       23190       15206       15206       15206       15206       13950
  grid # 8         748         770         786         786         786         786         748
  grid # 9         394         420         420         420         420         420         394
   
  number of gridpoints: 
     atom           C4          C5          C6          C7          C8          C9         C10
  grid # 1          88          91          98          95          96          96          96
  grid # 2         372         363         357         328         324         323         323
  grid # 3           6           6          17          23          40          33          30
  grid # 4        8714        8714        8714        8714        8714        8714        8714
  grid # 5        1192        1192        1192        1192        1192        1192        1192
  grid # 6        5922        5922        5922        5922        5922        5922        5922
  grid # 7       13950       13950       13950       13950       13950       13950       13950
  grid # 8         748         748         748         748         748         748         748
  grid # 9         394         394         394         394         394         394         394
   
  number of gridpoints: 
     atom          C11         C12         C13         C14         C15         C16         C17
  grid # 1          96         100          94          97          95          93          81
  grid # 2         326         362         327         324         324         324         235
  grid # 3          27          21          31          48          32          12           6
  grid # 4        8714        8714        8714        8714        8714        8714        8714
  grid # 5        1192        1192        1192        1192        1192        1192        1192
  grid # 6        5922        5922        5922        5922        5922        5922        5922
  grid # 7       13950       13950       13950       13950       13950       13950       13950
  grid # 8         748         748         748         748         748         748         748
  grid # 9         394         394         394         394         394         394         394
   
  number of gridpoints: 
     atom          C18         C19         C20         C21         C22         H23         H24
  grid # 1          81          80          82          81          81         115         118
  grid # 2         236         238         234         236         236         452         467
  grid # 3           6           6           6           6           6         307         417
  grid # 4        8714        8714        8714        8714        8714        8714        8714
  grid # 5        1192        1192        1192        1192        1192        1192        1192
  grid # 6        5922        5922        5922        5922        5922        5922        5922
  grid # 7       13950       13950       13950       13950       13950       15206       15206
  grid # 8         748         748         748         748         748         786         786
  grid # 9         394         394         394         394         394         420         420
   
  number of gridpoints: 
     atom          H25         H26         H27         H28         H29         H30         H31
  grid # 1         114          94         105         115         118         118         101
  grid # 2         454         396         429         453         468         466         421
  grid # 3         298         182         121         312         425         412          83
  grid # 4        8714        8714        8714        8714        8714        8714        8714
  grid # 5        1192        1192        1192        1192        1192        1192        1192
  grid # 6        5922        5922        5922        5922        5922        5922        5922
  grid # 7       15206       15206       15206       15206       15206       15206       15206
  grid # 8         786         786         786         786         786         786         786
  grid # 9         420         420         420         420         420         420         420
   
  number of gridpoints: 
     atom          H32         H33         H34         H35         H36         H37         H38
  grid # 1         106         108         106         100         100         109          97
  grid # 2         440         447         448         427         421         444         405
  grid # 3         204         269         255         168         147         257          70
  grid # 4        8714        8714        8714        8714        8714        8714        8714
  grid # 5        1192        1192        1192        1192        1192        1192        1192
  grid # 6        5922        5922        5922        5922        5922        5922        5922
  grid # 7       15206       15206       15206       15206       15206       15206       15206
  grid # 8         786         786         786         786         786         786         786
  grid # 9         420         420         420         420         420         420         420
   
  number of gridpoints: 
     atom          H39         H40         H41         H42         H43         H44         H45
  grid # 1         107         100          95         101         108         100         109
  grid # 2         445         416         393         425         445         417         445
  grid # 3         243          72          30         148         243          98         262
  grid # 4        8714        8714        8714        8714        8714        8714        8714
  grid # 5        1192        1192        1192        1192        1192        1192        1192
  grid # 6        5922        5922        5922        5922        5922        5922        5922
  grid # 7       15206       15206       15206       15206       15206       15206       15206
  grid # 8         786         786         786         786         786         786         786
  grid # 9         420         420         420         420         420         420         420
   
  number of gridpoints: 
     atom          H46         H47         H48         H49          O3        C105        C106
  grid # 1         102         101         104         108         121          92          81
  grid # 2         430         422         434         445         489         329         240
  grid # 3         177         141         192         266          83           6           6
  grid # 4        8714        8714        8714        8714        8714        8714        8714
  grid # 5        1192        1192        1192        1192        1192        1192        1192
  grid # 6        5922        5922        5922        5922        5922        5922        5922
  grid # 7       15206       15206       15206       15206       23382       13950       13950
  grid # 8         786         786         786         786         774         748         748
  grid # 9         420         420         420         420         416         394         394
   
  number of gridpoints: 
     atom         C107        C108        H109        H110        H111        H112        H113
  grid # 1          79          81         109         107         109         109         104
  grid # 2         242         241         449         437         453         453         430
  grid # 3           6           6         277         179         318         296         118
  grid # 4        8714        8714        8714        8714        8714        8714        8714
  grid # 5        1192        1192        1192        1192        1192        1192        1192
  grid # 6        5922        5922        5922        5922        5922        5922        5922
  grid # 7       13950       13950       15206       15206       15206       15206       15206
  grid # 8         748         748         786         786         786         786         786
  grid # 9         394         394         420         420         420         420         420
   
  number of gridpoints: 
     atom         H114        H115        H116        H117       total
  grid # 1          92         108         108         105        8615
  grid # 2         374         450         447         422       28415
  grid # 3          48         280         261          87        9844
  grid # 4        8714        8714        8714        8714      644836
  grid # 5        1192        1192        1192        1192       88208
  grid # 6        5922        5922        5922        5922      444648
  grid # 7       15206       15206       15206       15206     1129314
  grid # 8         786         786         786         786       57296
  grid # 9         420         420         420         420       32020
   
  end of program grid
   
 Time(grid)  user:     290.430  user+sys:     290.430  wallclock:      20.959
  
  start of program rwr
  
  end of program rwr
   
 Time(rwr)  user:      59.730  user+sys:      59.730  wallclock:      11.696
  
  start of program scf
  
 number of electrons..........        270
 number of alpha electrons....        135
 number of beta electrons.....        135
 number of orbitals, total....        575
 number of doubly-occ'd orbs..        135
 number of open shell orbs....          0
 number of occupied orbitals..        135
 number of virtual orbitals...        440
 number of hamiltonians.......          1
 number of shells.............          1
 SCF type: DFT=Becke_3_Parameter/HF+Slater+Becke88+PW91+PW-GGAIIC (B3PW91-D3)
 Energy computed using pseudospectral method.
 Convergence Criterion:
    Energy (econv):       1.00E-05
    RMS density (dconv):  5.00E-06
  
       i  u  d  i  g                   
       t  p  i  c  r                                 RMS    maximum
       e  d  i  u  i                       energy  density   DIIS  
       r  t  s  t  d       total energy    change  change    error 
  
etot    1  N  N  5  M   -1805.35639796056           2.1E-03  2.0E-01
etot    2  Y  Y  6  M   -1808.39835444712  3.0E+00  3.3E-03  1.2E-01
etot    3  Y  Y  6  M   -1809.46652032327  1.1E+00  1.5E-03  5.7E-02
etot    4  N  Y  2  U   -1809.67068778988  2.0E-01  8.9E-04  4.8E-02
etot    5  Y  Y  6  M   -1809.79196165471  1.2E-01  5.9E-04  3.0E-02
etot    6  N  Y  2  U   -1809.80430341355  1.2E-02  6.2E-04  1.6E-02
etot    7  Y  Y  6  M   -1809.80445262683  1.5E-04  1.5E-04  5.6E-03
etot    8  Y  Y  6  M   -1809.81030598128  5.9E-03  4.7E-05  1.7E-03
etot    9  N  Y  2  U   -1809.81149140362  1.2E-03  1.7E-05  1.7E-04
etot   10  N  Y  2  U   -1809.81150448432  1.3E-05  1.0E-05  1.2E-04
etot   11  N  Y  2  U   -1809.81150904506  4.6E-06  4.6E-06  4.2E-05
etot   12  N  N  2  U   -1809.81150959945  5.5E-07  0.0E+00  0.0E+00
 
  Computing the dispersion energy correction and its gradients...
  
  
 Energy components, in hartrees:
   (A)  Nuclear repulsion............    4525.87669539736
   (E)  Total one-electron terms.....  -11533.31545692369
   (F)    Electron-nuclear...........  -13253.60138827237
   (H)    Kinetic....................    1720.28593134868
   (I)  Total two-electron terms.....    5197.62725192688
   (J)    Coulomb....................    5430.23289348592
   (K)    Exchange+Correlation.......    -232.60564155904
   (L)  Electronic energy............   -6335.68820499681  (E+I)
   (N0) D3 correction................      -0.14051206197
   (N)  Total energy.................   -1809.95202166142  (A+L+N0)
   (O)  Gas phase energy.............   -1809.95202166142
  
 SCFE: SCF energy: DFT(b3pw91-d3)     -1809.95202166142 hartrees   iterations:  12
  
 
 HOMO energy:    -0.17974
 LUMO energy:    -0.05645
 
  Orbital energies (hartrees): 
   -77.08490   -24.67473   -19.04901   -10.24092   -10.21232   -10.21179
   -10.20932   -10.20845   -10.19920   -10.19628   -10.19386   -10.19225
   -10.19027   -10.18283   -10.18093   -10.18036   -10.17750   -10.17719
   -10.17568   -10.17509   -10.17322   -10.17139   -10.17016   -10.16745
   -10.16635   -10.16519   -10.16473   -10.16458   -10.15372   -10.14741
   -10.11604   -10.11272   -10.10238    -6.58524    -4.74338    -4.74254
    -4.74016    -3.33753    -2.07097    -2.06692    -2.03640    -1.20793
    -0.91245    -0.88930    -0.86441    -0.85829    -0.83843    -0.82239
    -0.79576    -0.77443    -0.75917    -0.75720    -0.74122    -0.73899
    -0.73124    -0.70775    -0.69801    -0.69733    -0.69478    -0.66928
    -0.66248    -0.64564    -0.63642    -0.62445    -0.62048    -0.60767
    -0.59585    -0.59029    -0.56271    -0.55477    -0.54003    -0.52480
    -0.51128    -0.50085    -0.48870    -0.48327    -0.48061    -0.47392
    -0.47203    -0.46995    -0.46007    -0.45818    -0.45483    -0.45362
    -0.45021    -0.44840    -0.44446    -0.43762    -0.43294    -0.42745
    -0.42389    -0.41514    -0.41149    -0.40967    -0.40609    -0.40405
    -0.39625    -0.39363    -0.39020    -0.38745    -0.38623    -0.38074
    -0.37797    -0.37674    -0.37418    -0.37107    -0.36877    -0.35746
    -0.35218    -0.35018    -0.34666    -0.34456    -0.34232    -0.33979
    -0.33174    -0.32753    -0.32370    -0.32004    -0.31628    -0.31330
    -0.30598    -0.30044    -0.29482    -0.28703    -0.28075    -0.27387
    -0.26966    -0.25496    -0.24712    -0.24563    -0.23567    -0.22629
    -0.21074    -0.19164    -0.17974    -0.05645    -0.04228    -0.03556
    -0.00862    -0.00340     0.00012     0.01240     0.02793     0.04781
     0.05229
 
  end of program scf
   
 Time(scf)  user:     501.819  user+sys:     501.819  wallclock:      48.720
  
  start of program der1a
  
  end of program der1a
   
 Time(der1a)  user:      14.746  user+sys:      14.746  wallclock:       1.678
  
  start of program rwr
  
  end of program rwr
   
 Time(rwr)  user:      39.142  user+sys:      39.142  wallclock:      13.939
  
  start of program der1b
  
   
  forces (hartrees/bohr) : total     
   
 atom  label           x              y              z
 ---- --------   -------------  -------------  -------------
    1 P1          3.365660E-03   5.783922E-03   2.660394E-03
    2 Pd2        -6.126698E-03  -1.429319E-02   2.552156E-02
    3 C73         9.330177E-04   3.471236E-03  -1.839742E-03
    4 C74         5.074949E-03  -1.706098E-04   1.256557E-03
    5 C75         1.001434E-02  -7.121106E-03   3.209365E-02
    6 C76         2.473790E-04   2.249231E-02   1.748772E-02
    7 C77         4.237907E-03   7.323546E-03   2.347000E-02
    8 C78        -2.363957E-03  -3.441977E-04  -5.317797E-04
    9 F79        -4.730659E-04  -5.637773E-05   2.245398E-05
   10 H80         2.306339E-04  -6.348525E-04   3.357118E-04
   11 H81         1.367914E-03  -3.454043E-03   1.576026E-02
   12 H82         4.241781E-03   1.927969E-03   1.189301E-02
   13 H83        -4.342956E-04   4.763413E-04  -1.646270E-04
   14 C3          5.854322E-05   2.919306E-04  -4.202451E-03
   15 C4          1.637014E-03   5.363421E-04  -3.829659E-03
   16 C5         -1.117468E-03  -4.701870E-03  -8.888286E-03
   17 C6          4.727772E-03  -6.965035E-03  -1.263330E-03
   18 C7         -5.644864E-05  -3.625336E-03   1.051741E-03
   19 C8          1.721978E-03   6.757043E-04  -2.847693E-04
   20 C9          1.076656E-03   2.277812E-03  -2.391345E-04
   21 C10        -2.042395E-02   2.096405E-03  -1.024053E-02
   22 C11         4.416568E-03  -3.085450E-04   2.572388E-03
   23 C12         4.655737E-04  -1.832689E-03  -3.367997E-03
   24 C13         7.431986E-04   5.968894E-04   4.917976E-04
   25 C14         1.538935E-03  -1.910891E-04   3.022275E-04
   26 C15        -7.476330E-04   3.002993E-05   1.240994E-04
   27 C16        -2.020712E-03   1.368786E-03   5.506816E-05
   28 C17        -3.688075E-04   2.473817E-03  -3.512689E-04
   29 C18        -7.362567E-04  -1.974753E-03   1.246092E-04
   30 C19        -9.272116E-03  -4.772342E-03  -2.230239E-02
   31 C20        -3.054903E-03   3.873686E-03  -1.999845E-02
   32 C21         2.017003E-03  -1.293733E-03  -1.902339E-03
   33 C22         1.020969E-03   4.011059E-03   1.141389E-03
   34 H23         6.991892E-04   1.185302E-04  -3.125194E-04
   35 H24         2.010430E-04   3.906242E-04  -1.082326E-04
   36 H25         3.916513E-04   6.411665E-05  -6.685623E-04
   37 H26        -2.801037E-02   4.869856E-03  -1.680670E-02
   38 H27        -3.086577E-04   8.941909E-04  -1.241459E-03
   39 H28         7.582452E-05  -8.454814E-05  -1.277934E-04
   40 H29         3.200809E-04  -8.373982E-05   2.238205E-04
   41 H30        -2.520683E-04  -3.068790E-06   3.191188E-04
   42 H31         4.252450E-04   1.164354E-04   4.748035E-04
   43 H32        -1.071460E-04  -1.728778E-04   4.268957E-04
   44 H33        -4.467641E-04  -1.282411E-04   5.431130E-04
   45 H34        -2.490860E-03   9.831729E-04   3.670276E-03
   46 H35         1.808488E-04   2.329989E-04  -5.866274E-05
   47 H36        -5.953630E-04  -1.945309E-04   3.749273E-04
   48 H37         2.636305E-04   4.166454E-05  -6.114734E-04
   49 H38        -5.985529E-03  -4.897537E-04  -1.705455E-02
   50 H39         1.580940E-04  -1.456927E-03  -1.095509E-03
   51 H40        -4.143842E-03  -7.004440E-03  -8.562984E-03
   52 H41         3.878374E-03   3.708283E-04  -3.603469E-02
   53 H42         2.688222E-04  -2.578754E-04   4.389800E-04
   54 H43         9.758190E-04   1.070554E-03  -1.120243E-03
   55 H44        -2.257261E-03  -1.037697E-05   1.402486E-03
   56 H45        -1.742986E-05   4.466816E-04   1.262044E-04
   57 H46        -4.883137E-04   2.979450E-05   1.728770E-03
   58 H47        -6.991079E-05  -7.316100E-05   5.844853E-04
   59 H48        -5.787194E-04  -2.329260E-04  -4.828903E-04
   60 H49         1.031306E-05   1.896939E-04  -1.361964E-03
   61 O3         -2.819286E-03   2.190255E-03  -1.408474E-02
   62 C105        1.891732E-04  -5.530809E-04   1.030723E-03
   63 C106       -2.029606E-04  -1.049098E-03   3.789005E-04
   64 C107       -4.974850E-04  -1.784446E-03  -1.953967E-04
   65 C108        8.370686E-03   7.467090E-04   8.474540E-03
   66 H109       -1.099526E-04   1.721291E-04  -3.569057E-04
   67 H110       -4.055454E-03  -4.957355E-04   2.625176E-04
   68 H111        1.372732E-04   6.874398E-04  -1.818097E-04
   69 H112        1.143939E-03  -2.107782E-04  -3.325622E-04
   70 H113       -3.738165E-04   1.145689E-03  -3.318689E-04
   71 H114        3.583618E-02  -7.285785E-03   1.994509E-02
   72 H115       -1.559495E-04  -3.690986E-05  -5.746638E-04
   73 H116       -1.067566E-04   1.760085E-04   2.621092E-04
   74 H117       -1.211606E-03  -4.443092E-04   2.056826E-03
 -------------   -------------  -------------  -------------
     total        1.821618E-04   8.527800E-04  -2.023698E-03
   
  end of program der1b
   
 Time(der1b)  user:     158.926  user+sys:     158.926  wallclock:      14.627
  
  start of program geopt
  
 ----------------------------------------------------------------------------
  Geometry optimization step  1
  Total energy:     -1809.95202166142 hartrees
 ----------------------------------------------------------------------------
  
  
  Level shifts adjusted to satisfy step-size constraints
   Step size:    0.3001869
   Cos(theta):   0.7376290
   Final level shift:  -4.9425903E-01
  
  gradient maximum:        4.2654E-01 .  (  2.2500E-03 )
  gradient rms:            5.9218E-02 .  (  1.5000E-03 )
  displacement maximum:    1.1703E-01 .  (  9.0000E-03 )
  displacement rms:        1.9376E-02 .  (  6.0000E-03 )
  
  predicted energy change:  -1.2383E-01
  step size:     0.30017
  trust radius:  0.30000
  
  molecular structure not yet converged...
  
  center of mass moved by:
     x:     8.1668E-02     y:     7.3450E-02     z:     7.8449E-02
  
  new geometry: 
                                   angstroms
  atom               x                 y                 z
  P1            0.0040158134      0.0483984294      0.0244619593 
  Pd2           0.1289282338      0.0898192411      2.3240257504 
  C73           4.7539471337      0.1942689670      3.2876113799 
  C74           4.0088215477      1.3008715165      2.9188388633 
  C75           2.6774041390      1.1084892650      2.5335865540 
  C76           2.0861768391     -0.1685442398      2.5503215739 
  C77           2.8777901949     -1.2579190562      2.9185159389 
  C78           4.2115503067     -1.0825034297      3.2888214091 
  F79           6.0415193174      0.3616224231      3.6499982142 
  H80           4.4678725191      2.2853788967      2.9149516921 
  H81           2.0916706427      1.9833229897      2.2650478685 
  H82           2.4822947895     -2.2638987335      2.9314248766 
  H83           4.8313539069     -1.9276520194      3.5742354131 
  C3           -1.6750575536      0.2033406365     -0.7429709082 
  C4            0.5604767244     -1.5751525067     -0.8800344273 
  C5            1.0516825372      1.4597518344     -0.7607960601 
  C6           -3.1367383434      0.7948243571      1.3394128333 
  C7           -4.1482294001      0.0166037578      1.9282178163 
  C8           -4.4553636053      0.1306043964      3.2795462802 
  C9           -3.7699375121      1.0454858613      4.0744322994 
  C10          -2.7994341112      1.8537841942      3.4950270177 
  C11          -2.4793789635      1.7330211653      2.1421501555 
  C12          -2.8876317150      0.5877743444     -0.1120692117 
  C13          -4.0412325089      0.6913602791     -0.9130361512 
  C14          -4.0442940881      0.4211681788     -2.2739970188 
  C15          -2.8625532968      0.0195748115     -2.8856070694 
  C16          -1.7077735069     -0.0794984242     -2.1212825760 
  C17          -0.6328168810     -2.5406048157     -0.9547097447 
  C18           1.1317741109     -1.4031096372     -2.2986981203 
  C19           1.6397002539     -2.2625650029     -0.0515241589 
  C20           2.5412143209      1.1798829556     -0.5111069601 
  C21           0.6700988729      2.7767068767     -0.0678179951 
  C22           0.7859152117      1.6756401605     -2.2620457217 
  H23          -4.6694593979     -0.7213013219      1.3226444117 
  H24          -5.2239650003     -0.5057419348      3.7115853602 
  H25          -3.9958540770      1.1309688825      5.1344032944 
  H26          -2.2562918977      2.5734537046      4.0940370595 
  H27          -1.7592257106      2.4121063862      1.7070350057 
  H28          -4.9646632925      1.0053603263     -0.4323859092 
  H29          -4.9627157246      0.5217294553     -2.8470962682 
  H30          -2.8319140629     -0.2076715175     -3.9483902056 
  H31          -0.7965965646     -0.3877169520     -2.6193817485 
  H32          -1.4621716897     -2.1482387990     -1.5511601332 
  H33          -0.2930106697     -3.4715782411     -1.4277051887 
  H34          -1.0129132959     -2.7948797990      0.0380083301 
  H35           0.4048021831     -1.0162988853     -3.0190162207 
  H36           2.0237375321     -0.7740313965     -2.3275470030 
  H37           1.4296815273     -2.3962239821     -2.6603463300 
  H38           1.2358379855     -2.5826498073      0.9054230618 
  H39           1.9851964653     -3.1518296975     -0.5974200119 
  H40           2.5038515411     -1.6243635574      0.1300179216 
  H41           2.7589350998      1.0073862459      0.5565030332 
  H42           2.9146454401      0.3286398514     -1.0870592768 
  H43           3.1191337824      2.0605837026     -0.8239326846 
  H44           0.9222107469      2.7761555857      0.9958499262 
  H45           1.2408130205      3.5901438373     -0.5348185616 
  H46          -0.3928629544      3.0090911878     -0.1968750891 
  H47           1.0012224426      0.8081080219     -2.8840864686 
  H48          -0.2438302634      1.9948000227     -2.4508086209 
  H49           1.4444625696      2.4859073245     -2.6031720285 
  O3            0.0410889280     -0.1723595680      4.3671830219 
  C105          0.5397496002      0.5995467829      5.4288460000 
  C106         -0.4210462254      0.3384297151      6.6036027246 
  C107          1.9421552197      0.1480259082      5.8773116648 
  C108          0.5684761458      2.1054956857      5.1334878893 
  H109         -0.0906805072      0.8409390972      7.5221722519 
  H110         -1.4209330813      0.6981350490      6.3472228922 
  H111         -0.4862606150     -0.7385248919      6.7947700585 
  H112          0.8694268620      2.6920710663      6.0126254300 
  H113          1.2708667426      2.3215471807      4.3211018961 
  H114         -0.4246173075      2.4288953254      4.8100776093 
  H115          2.2189289676      0.6130389605      6.8332988199 
  H116          1.9447941227     -0.9401374461      6.0056658536 
  H117          2.7072225999      0.4015469026      5.1439644513 
   
 
  bond lengths (angstroms):
 
 P1      -Pd2     :   2.303326      P1      -C3      :   1.852633
 P1      -C4      :   1.940021      P1      -C5      :   1.925137
 Pd2     -C76     :   1.987155      Pd2     -O3      :   2.061782
 C73     -C74     :   1.384115      C73     -C78     :   1.387207
 C73     -F79     :   1.348026      C74     -C75     :   1.399322
 C74     -H80     :   1.086277      C75     -C76     :   1.407354
 C75     -H81     :   1.086522      C76     -C77     :   1.396050
 C77     -C78     :   1.395282      C77     -H82     :   1.081008
 C78     -H83     :   1.086229      C3      -C12     :   1.419916
 C3      -C16     :   1.407413      C4      -C17     :   1.536758
 C4      -C18     :   1.539021      C4      -C19     :   1.524365
 C5      -C20     :   1.536026      C5      -C21     :   1.536293
 C5      -C22     :   1.539802      C6      -C7      :   1.405501
 C6      -C11     :   1.398829      C6      -C12     :   1.487187
 C7      -C8      :   1.390473      C7      -H23     :   1.087614
 C8      -C9      :   1.392358      C8      -H24     :   1.087356
 C9      -C10     :   1.389580      C9      -H25     :   1.087145
 C10     -C11     :   1.395455      C10     -H26     :   1.082470
 C11     -H27     :   1.081250      C12     -C13     :   1.408216
 C13     -C14     :   1.387526      C13     -H28     :   1.087357
 C14     -C15     :   1.389912      C14     -H29     :   1.087223
 C15     -C16     :   1.388353      C15     -H30     :   1.087239
 C16     -H31     :   1.083210      C17     -H32     :   1.094319
 C17     -H33     :   1.098137      C17     -H34     :   1.092986
 C18     -H35     :   1.094061      C18     -H36     :   1.091866
 C18     -H37     :   1.098096      C19     -H38     :   1.086879
 C19     -H39     :   1.099164      C19     -H40     :   1.089503
 C20     -H41     :   1.103154      C20     -H42     :   1.093520
 C20     -H43     :   1.098856      C21     -H44     :   1.093138
 C21     -H45     :   1.097945      C21     -H46     :   1.095694
 C22     -H47     :   1.088992      C22     -H48     :   1.094473
 C22     -H49     :   1.098446      O3      -C105    :   1.404147
 C105    -C106    :   1.539923      C105    -C107    :   1.540044
 C105    -C108    :   1.534908      C106    -H109    :   1.097919
 C106    -H110    :   1.093111      C106    -H111    :   1.095732
 C107    -H115    :   1.098523      C107    -H116    :   1.095710
 C107    -H117    :   1.089678      C108    -H112    :   1.098874
 C108    -H113    :   1.095446      C108    -H114    :   1.093351
 
  bond angles:
 
 C3      -P1      -Pd2     : 117.465164  C4      -P1      -Pd2     : 117.707821
 C4      -P1      -C3      :  97.863939  C5      -P1      -Pd2     : 111.378921
 C5      -P1      -C3      : 105.244645  C5      -P1      -C4      : 105.501145
 C76     -Pd2     -P1      :  99.483894  O3      -Pd2     -P1      : 169.981189
 O3      -Pd2     -C76     :  84.984726  C78     -C73     -C74     : 121.708347
 F79     -C73     -C74     : 119.115179  F79     -C73     -C78     : 119.175984
 C75     -C74     -C73     : 118.401785  H80     -C74     -C73     : 119.871378
 H80     -C74     -C75     : 121.715449  C76     -C75     -C74     : 121.412134
 H81     -C75     -C74     : 118.052352  H81     -C75     -C76     : 120.469419
 C75     -C76     -Pd2     : 107.124247  C77     -C76     -Pd2     : 133.629650
 C77     -C76     -C75     : 118.228750  C78     -C77     -C76     : 120.925865
 H82     -C77     -C76     : 121.457183  H82     -C77     -C78     : 117.616530
 C77     -C78     -C73     : 119.290597  H83     -C78     -C73     : 119.553847
 H83     -C78     -C77     : 121.155264  C12     -C3      -P1      : 127.774872
 C16     -C3      -P1      : 114.200705  C16     -C3      -C12     : 118.014467
 C17     -C4      -P1      : 109.007183  C18     -C4      -P1      : 116.275778
 C18     -C4      -C17     : 108.281149  C19     -C4      -P1      : 109.090344
 C19     -C4      -C17     : 107.028950  C19     -C4      -C18     : 106.774669
 C20     -C5      -P1      : 109.138250  C21     -C5      -P1      : 108.016481
 C21     -C5      -C20     : 108.888477  C22     -C5      -P1      : 113.987847
 C22     -C5      -C20     : 110.573281  C22     -C5      -C21     : 106.064547
 C11     -C6      -C7      : 117.979359  C12     -C6      -C7      : 116.893248
 C12     -C6      -C11     : 125.082004  C8      -C7      -C6      : 121.379381
 H23     -C7      -C6      : 119.163292  H23     -C7      -C8      : 119.398691
 C9      -C8      -C7      : 119.997028  H24     -C8      -C7      : 119.623386
 H24     -C8      -C9      : 120.375862  C10     -C9      -C8      : 119.208032
 H25     -C9      -C8      : 120.397063  H25     -C9      -C10     : 120.393717
 C11     -C10     -C9      : 120.936501  H26     -C10     -C9      : 120.426248
 H26     -C10     -C11     : 118.616360  C10     -C11     -C6      : 120.438590
 H27     -C11     -C6      : 120.218505  H27     -C11     -C10     : 119.245127
 C6      -C12     -C3      : 127.907760  C13     -C12     -C3      : 117.824428
 C13     -C12     -C6      : 114.058457  C14     -C13     -C12     : 123.050309
 H28     -C13     -C12     : 117.743527  H28     -C13     -C14     : 119.204701
 C15     -C14     -C13     : 119.077906  H29     -C14     -C13     : 120.058423
 H29     -C14     -C15     : 120.863461  C16     -C15     -C14     : 119.048812
 H30     -C15     -C14     : 120.963255  H30     -C15     -C16     : 119.985984
 C15     -C16     -C3      : 122.965684  H31     -C16     -C3      : 119.206378
 H31     -C16     -C15     : 117.827859  H32     -C17     -C4      : 112.937079
 H33     -C17     -C4      : 108.255614  H33     -C17     -H32     : 107.681175
 H34     -C17     -C4      : 111.842469  H34     -C17     -H32     : 108.354632
 H34     -C17     -H33     : 107.553336  H35     -C18     -C4      : 113.563586
 H36     -C18     -C4      : 113.079492  H36     -C18     -H35     : 108.767056
 H37     -C18     -C4      : 107.649438  H37     -C18     -H35     : 106.450492
 H37     -C18     -H36     : 106.902341  H38     -C19     -C4      : 110.381505
 H39     -C19     -C4      : 108.508164  H39     -C19     -H38     : 108.409774
 H40     -C19     -C4      : 112.827264  H40     -C19     -H38     : 108.694587
 H40     -C19     -H39     : 107.899979  H41     -C20     -C5      : 112.160124
 H42     -C20     -C5      : 112.791283  H42     -C20     -H41     : 108.699491
 H43     -C20     -C5      : 108.523984  H43     -C20     -H41     : 107.279643
 H43     -C20     -H42     : 107.118932  H44     -C21     -C5      : 112.407710
 H45     -C21     -C5      : 108.308299  H45     -C21     -H44     : 107.119448
 H46     -C21     -C5      : 111.693313  H46     -C21     -H44     : 109.783005
 H46     -C21     -H45     : 107.280146  H47     -C22     -C5      : 114.273240
 H48     -C22     -C5      : 111.803673  H48     -C22     -H47     : 108.651550
 H49     -C22     -C5      : 107.621222  H49     -C22     -H47     : 106.960607
 H49     -C22     -H48     : 107.181713  C105    -O3      -Pd2     : 131.622976
 C106    -C105    -O3      : 105.189028  C107    -C105    -O3      : 112.482191
 C107    -C105    -C106    : 107.235447  C108    -C105    -O3      : 113.610392
 C108    -C105    -C106    : 108.955830  C108    -C105    -C107    : 109.065452
 H109    -C106    -C105    : 111.894634  H110    -C106    -C105    : 109.632875
 H110    -C106    -H109    : 108.714750  H111    -C106    -C105    : 109.687323
 H111    -C106    -H109    : 108.771324  H111    -C106    -H110    : 108.053495
 H115    -C107    -C105    : 111.023081  H116    -C107    -C105    : 109.115473
 H116    -C107    -H115    : 108.532480  H117    -C107    -C105    : 112.034502
 H117    -C107    -H115    : 108.076753  H117    -C107    -H116    : 107.950754
 H112    -C108    -C105    : 112.018290  H113    -C108    -C105    : 110.377909
 H113    -C108    -H112    : 108.205416  H114    -C108    -C105    : 109.276487
 H114    -C108    -H112    : 109.118087  H114    -C108    -H113    : 107.739779
 
  torsional angles:
 
 P1      -Pd2     -C76     -C75     :  88.705963
 P1      -Pd2     -C76     -C77     :-103.473217
 P1      -Pd2     -O3      -C105    :-177.291084
 P1      -C3      -C12     -C6      :  -8.249035
 P1      -C3      -C12     -C13     : 177.353969
 P1      -C3      -C16     -C15     :-178.006128
 P1      -C3      -C16     -H31     :   1.888969
 P1      -C4      -C17     -H32     :  63.372070
 P1      -C4      -C17     -H33     :-177.493236
 P1      -C4      -C17     -H34     : -59.175696
 P1      -C4      -C18     -H35     : -64.295519
 P1      -C4      -C18     -H36     :  60.271239
 P1      -C4      -C18     -H37     : 178.125419
 P1      -C4      -C19     -H38     :  64.273548
 P1      -C4      -C19     -H39     :-177.063955
 P1      -C4      -C19     -H40     : -57.554446
 P1      -C5      -C20     -H41     : -53.074387
 P1      -C5      -C20     -H42     :  70.061414
 P1      -C5      -C20     -H43     :-171.415184
 P1      -C5      -C21     -H44     :  63.690737
 P1      -C5      -C21     -H45     :-178.157166
 P1      -C5      -C21     -H46     : -60.229346
 P1      -C5      -C22     -H47     : -60.464909
 P1      -C5      -C22     -H48     :  63.470677
 P1      -C5      -C22     -H49     :-179.084595
 Pd2     -P1      -C3      -C12     :  12.514825
 Pd2     -P1      -C3      -C16     :-168.667199
 Pd2     -P1      -C4      -C17     :  86.609084
 Pd2     -P1      -C4      -C18     :-150.702852
 Pd2     -P1      -C4      -C19     : -29.941412
 Pd2     -P1      -C5      -C20     :  67.890039
 Pd2     -P1      -C5      -C21     : -50.352253
 Pd2     -P1      -C5      -C22     :-167.947234
 Pd2     -C76     -C75     -C74     : 167.794357
 Pd2     -C76     -C75     -H81     :  -9.191316
 Pd2     -C76     -C77     -C78     :-165.373745
 Pd2     -C76     -C77     -H82     :  14.384248
 Pd2     -O3      -C105    -C106    : 150.856608
 Pd2     -O3      -C105    -C107    : -92.743510
 Pd2     -O3      -C105    -C108    :  31.777463
 C73     -C74     -C75     -C76     :   1.697849
 C73     -C74     -C75     -H81     : 178.754008
 C73     -C78     -C77     -C76     :  -0.085930
 C73     -C78     -C77     -H82     :-179.852947
 C74     -C73     -C78     -C77     :  -0.472688
 C74     -C73     -C78     -H83     : 179.333048
 C74     -C75     -C76     -C77     :  -2.224964
 C75     -C74     -C73     -C78     :  -0.322054
 C75     -C74     -C73     -F79     : 179.421218
 C75     -C76     -Pd2     -O3      :-100.335904
 C75     -C76     -C77     -C78     :   1.397880
 C75     -C76     -C77     -H82     :-178.844127
 C76     -Pd2     -P1      -C3      : 178.198119
 C76     -Pd2     -P1      -C4      :  61.636369
 C76     -Pd2     -P1      -C5      : -60.353918
 C76     -Pd2     -O3      -C105    :  65.707749
 C76     -C75     -C74     -H80     :-179.531839
 C76     -C77     -C78     -H83     :-179.888460
 C77     -C76     -Pd2     -O3      :  67.484916
 C77     -C76     -C75     -H81     :-179.210636
 C77     -C78     -C73     -F79     : 179.784192
 C78     -C73     -C74     -H80     :-179.115734
 F79     -C73     -C74     -H80     :   0.627538
 F79     -C73     -C78     -H83     :  -0.410071
 H80     -C74     -C75     -H81     :  -2.475680
 H82     -C77     -C78     -H83     :   0.344523
 C3      -P1      -Pd2     -O3      :  62.341167
 C3      -P1      -C4      -C17     : -40.148475
 C3      -P1      -C4      -C18     :  82.539589
 C3      -P1      -C4      -C19     :-156.698971
 C3      -P1      -C5      -C20     :-163.790750
 C3      -P1      -C5      -C21     :  77.966959
 C3      -P1      -C5      -C22     : -39.628022
 C3      -C12     -C6      -C7      :-122.001016
 C3      -C12     -C6      -C11     :  60.507635
 C3      -C12     -C13     -C14     :   0.768693
 C3      -C12     -C13     -H28     :-178.787166
 C3      -C16     -C15     -C14     :   0.303948
 C3      -C16     -C15     -H30     : 179.801009
 C4      -P1      -Pd2     -O3      : -54.220582
 C4      -P1      -C3      -C12     : 139.441602
 C4      -P1      -C3      -C16     : -41.740422
 C4      -P1      -C5      -C20     : -60.920166
 C4      -P1      -C5      -C21     :-179.162458
 C4      -P1      -C5      -C22     :  63.242562
 C5      -P1      -Pd2     -O3      :-176.210869
 C5      -P1      -C3      -C12     :-112.060091
 C5      -P1      -C3      -C16     :  66.757885
 C5      -P1      -C4      -C17     :-148.434691
 C5      -P1      -C4      -C18     : -25.746627
 C5      -P1      -C4      -C19     :  95.014813
 C6      -C7      -C8      -C9      :   1.041990
 C6      -C7      -C8      -H24     :-178.258701
 C6      -C11     -C10     -C9      :   0.249691
 C6      -C11     -C10     -H26     : 178.594008
 C6      -C12     -C3      -C16     : 172.972206
 C6      -C12     -C13     -C14     :-174.391925
 C6      -C12     -C13     -H28     :   6.052216
 C7      -C6      -C11     -C10     :   1.926295
 C7      -C6      -C11     -H27     :-174.451499
 C7      -C6      -C12     -C13     :  52.572917
 C7      -C8      -C9      -C10     :   1.188955
 C7      -C8      -C9      -H25     :-179.205874
 C8      -C7      -C6      -C11     :  -2.582173
 C8      -C7      -C6      -C12     : 179.742335
 C8      -C9      -C10     -C11     :  -1.835217
 C8      -C9      -C10     -H26     : 179.850360
 C9      -C8      -C7      -H23     : 178.233465
 C9      -C10     -C11     -H27     : 176.662508
 C10     -C9      -C8      -H24     :-179.515677
 C10     -C11     -C6      -C12     : 179.392818
 C11     -C6      -C7      -H23     :-179.780116
 C11     -C6      -C12     -C13     :-124.918433
 C11     -C10     -C9      -H25     : 178.559599
 C12     -C3      -C16     -C15     :   0.935584
 C12     -C3      -C16     -H31     :-179.169318
 C12     -C6      -C7      -H23     :   2.544392
 C12     -C6      -C11     -H27     :   3.015023
 C12     -C13     -C14     -C15     :   0.470769
 C12     -C13     -C14     -H29     :-179.694683
 C13     -C12     -C3      -C16     :  -1.424790
 C13     -C14     -C15     -C16     :  -1.002942
 C13     -C14     -C15     -H30     : 179.505071
 C14     -C15     -C16     -H31     :-179.592511
 C15     -C14     -C13     -H28     :-179.979558
 C16     -C15     -C14     -H29     : 179.163883
 C17     -C4      -C18     -H35     :  58.771526
 C17     -C4      -C18     -H36     :-176.661716
 C17     -C4      -C18     -H37     : -58.807536
 C17     -C4      -C19     -H38     : -53.530283
 C17     -C4      -C19     -H39     :  65.132215
 C17     -C4      -C19     -H40     :-175.358276
 C18     -C4      -C17     -H32     : -63.993945
 C18     -C4      -C17     -H33     :  55.140748
 C18     -C4      -C17     -H34     : 173.458289
 C18     -C4      -C19     -H38     :-169.313571
 C18     -C4      -C19     -H39     : -50.651073
 C18     -C4      -C19     -H40     :  68.858436
 C19     -C4      -C17     -H32     :-178.769711
 C19     -C4      -C17     -H33     : -59.635017
 C19     -C4      -C17     -H34     :  58.682523
 C19     -C4      -C18     -H35     : 173.714056
 C19     -C4      -C18     -H36     : -61.719185
 C19     -C4      -C18     -H37     :  56.134995
 C20     -C5      -C21     -H44     : -54.711255
 C20     -C5      -C21     -H45     :  63.440842
 C20     -C5      -C21     -H46     :-178.631338
 C20     -C5      -C22     -H47     :  62.922958
 C20     -C5      -C22     -H48     :-173.141456
 C20     -C5      -C22     -H49     : -55.696728
 C21     -C5      -C20     -H41     :  64.619949
 C21     -C5      -C20     -H42     :-172.244250
 C21     -C5      -C20     -H43     : -53.720849
 C21     -C5      -C22     -H47     :-179.177897
 C21     -C5      -C22     -H48     : -55.242311
 C21     -C5      -C22     -H49     :  62.202417
 C22     -C5      -C20     -H41     :-179.224024
 C22     -C5      -C20     -H42     : -56.088224
 C22     -C5      -C20     -H43     :  62.435178
 C22     -C5      -C21     -H44     :-173.725387
 C22     -C5      -C21     -H45     : -55.573290
 C22     -C5      -C21     -H46     :  62.354530
 H23     -C7      -C8      -H24     :  -1.067226
 H24     -C8      -C9      -H25     :   0.089494
 H25     -C9      -C10     -H26     :   0.245176
 H26     -C10     -C11     -H27     :  -4.993175
 H28     -C13     -C14     -H29     :  -0.145010
 H29     -C14     -C15     -H30     :  -0.328104
 H30     -C15     -C16     -H31     :  -0.095451
 O3      -C105    -C106    -H109    : 176.065840
 O3      -C105    -C106    -H110    : -63.236434
 O3      -C105    -C106    -H111    :  55.259732
 O3      -C105    -C107    -H115    :-167.791160
 O3      -C105    -C107    -H116    : -48.215001
 O3      -C105    -C107    -H117    :  71.267605
 O3      -C105    -C108    -H112    : 174.431802
 O3      -C105    -C108    -H113    : -64.923009
 O3      -C105    -C108    -H114    :  53.387710
 C106    -C105    -C107    -H115    : -52.623086
 C106    -C105    -C107    -H116    :  66.953073
 C106    -C105    -C107    -H117    :-173.564320
 C106    -C105    -C108    -H112    :  57.529732
 C106    -C105    -C108    -H113    : 178.174921
 C106    -C105    -C108    -H114    : -63.514360
 C107    -C105    -C106    -H109    :  56.125929
 C107    -C105    -C106    -H110    : 176.823656
 C107    -C105    -C106    -H111    : -64.680178
 C107    -C105    -C108    -H112    : -59.225187
 C107    -C105    -C108    -H113    :  61.420002
 C107    -C105    -C108    -H114    : 179.730721
 C108    -C105    -C106    -H109    : -61.789624
 C108    -C105    -C106    -H110    :  58.908102
 C108    -C105    -C106    -H111    : 177.404269
 C108    -C105    -C107    -H115    :  65.221074
 C108    -C105    -C107    -H116    :-175.202767
 C108    -C105    -C107    -H117    : -55.720160
 
  nuclear repulsion energy.......          4443.741602226 hartrees
 -------------------------------------------------
   end of geometry optimization iteration  1
 -------------------------------------------------
   
  end of program geopt
   
 Time(geopt)  user:       2.101  user+sys:       2.101  wallclock:       0.741
  
  start of program onee
  
  smallest eigenvalue of S:    4.214E-04
  number of canonical orbitals.....          575
  end of program onee
   
 Time(onee)  user:       5.497  user+sys:       5.497  wallclock:       0.863
  
  start of program probe
  
  end of program probe
   
 Time(probe)  user:       1.520  user+sys:       1.520  wallclock:       0.426
  
  start of program grid
  
  end of program grid
   
[...]
    C9       X    -0.00057  -0.00009  -0.00007  -0.00026   0.01910  -0.00001
    C9       Y     0.00013   0.00005   0.00003   0.00007  -0.00552   0.00000
    C9       Z     0.00185   0.00031   0.00022   0.00082  -0.06246   0.00005
    C10      X     0.00003   0.00001   0.00001   0.00001   0.00018  -0.00000
    C10      Y     0.00015  -0.00016  -0.00018   0.00017  -0.03436   0.00005
    C10      Z    -0.00005  -0.00010  -0.00010   0.00004  -0.01425   0.00002
    C11      X    -0.00019  -0.00006  -0.00003  -0.00005  -0.00371   0.00001
    C11      Y    -0.00078  -0.00022  -0.00009  -0.00017  -0.01255   0.00005
    C11      Z     0.00059   0.00014   0.00005   0.00004   0.01016  -0.00004
    C12      X    -0.00154  -0.00002   0.00000   0.00000   0.00006  -0.00059
    C12      Y    -0.00013  -0.00000  -0.00000   0.00000  -0.00001  -0.00004
    C12      Z    -0.00093  -0.00002   0.00001   0.00004   0.00003   0.00041
    C13      X     0.02821   0.00026   0.00001  -0.00005   0.00036  -0.00081
    C13      Y     0.00207   0.00002   0.00000  -0.00000   0.00002  -0.00007
    C13      Z    -0.02663  -0.00024  -0.00002   0.00002  -0.00044   0.00088
    C14      X     0.06244   0.00049   0.00009   0.00012   0.00063  -0.00190
    C14      Y     0.00502   0.00004   0.00001   0.00001   0.00005  -0.00017
    C14      Z     0.02448   0.00020   0.00003   0.00004   0.00028   0.00016
    C15      X     0.00209   0.00001   0.00001   0.00001   0.00000  -0.00398
    C15      Y    -0.00054  -0.00001  -0.00000  -0.00000  -0.00000  -0.00011
    C15      Z     0.03729   0.00026   0.00007   0.00011   0.00022  -0.01134
    C16      X     0.00277   0.00019  -0.00001  -0.00004   0.00013   0.06328
    C16      Y     0.00026   0.00001   0.00000  -0.00000   0.00001   0.00537
    C16      Z    -0.00451  -0.00017   0.00001   0.00002  -0.00011  -0.05224
    C17      X    -0.00003   0.00003   0.00012  -0.00025  -0.00004  -0.00003
    C17      Y     0.00003   0.00026   0.00002  -0.00018   0.00001  -0.00005
    C17      Z    -0.00002   0.00027   0.00038  -0.00089  -0.00006  -0.00012
    C18      X    -0.00052   0.00030  -0.00010  -0.00015  -0.00004  -0.00323
    C18      Y    -0.00001   0.00042  -0.00012  -0.00018   0.00001  -0.00084
    C18      Z    -0.00008  -0.00014   0.00005   0.00007   0.00000  -0.00042
    C19      X     0.00002  -0.00563   0.00045   0.00219  -0.00001   0.00003
    C19      Y    -0.00006   0.00774  -0.00117  -0.00357  -0.00001  -0.00002
    C19      Z    -0.00058   0.07769  -0.00862  -0.03427  -0.00006  -0.00016
    C20      X    -0.00001  -0.00029  -0.00055  -0.00027  -0.00002   0.00001
    C20      Y    -0.00003   0.00097   0.00148   0.00068   0.00001  -0.00001
    C20      Z     0.00003   0.00103  -0.00364  -0.00269  -0.00003  -0.00005
    C21      X    -0.00000  -0.00005  -0.00014  -0.00008   0.00022  -0.00004
    C21      Y    -0.00002   0.00000   0.00009   0.00007  -0.00003   0.00008
    C21      Z    -0.00000  -0.00012  -0.00026  -0.00016   0.00003  -0.00010
    C22      X    -0.00014  -0.00010  -0.00013  -0.00005  -0.00004  -0.00096
    C22      Y    -0.00020   0.00008   0.00002   0.00001  -0.00002  -0.00028
    C22      Z    -0.00013   0.00007   0.00001  -0.00000   0.00000  -0.00040
    H23      X     0.00021   0.00003  -0.00000  -0.00004   0.00044   0.00001
    H23      Y    -0.01797   0.00278   0.00127  -0.00105  -0.14666   0.00106
    H23      Z    -0.00890   0.00140   0.00065  -0.00044  -0.07518   0.00055
    H24      X    -0.00116   0.00099   0.00073   0.00090  -0.09129   0.00017
    H24      Y    -0.00358   0.00346   0.00250   0.00319  -0.32110   0.00054
    H24      Z     0.00261  -0.00228  -0.00163  -0.00205   0.20784  -0.00040
    H25      X     0.00638   0.00106   0.00075   0.00278  -0.20816   0.00016
    H25      Y    -0.00193  -0.00036  -0.00026  -0.00087   0.06407  -0.00005
    H25      Z    -0.02106  -0.00353  -0.00248  -0.00924   0.69312  -0.00053
    H26      X    -0.00007  -0.00007  -0.00007   0.00001  -0.00722   0.00002
    H26      Y    -0.00089   0.00195   0.00210  -0.00162   0.36266  -0.00058
    H26      Z    -0.00022   0.00097   0.00103  -0.00071   0.17035  -0.00032
    H27      X     0.00232   0.00061   0.00022   0.00037   0.03669  -0.00007
    H27      Y     0.00886   0.00245   0.00094   0.00147   0.14397  -0.00036
    H27      Z    -0.00596  -0.00165  -0.00063  -0.00092  -0.09850   0.00031
    H28      X    -0.32570  -0.00300  -0.00008   0.00065  -0.00442   0.00883
    H28      Y    -0.02369  -0.00023  -0.00001   0.00006  -0.00028   0.00068
    H28      Z     0.27058   0.00248   0.00010  -0.00046   0.00384  -0.00738
    H29      X    -0.69085  -0.00549  -0.00098  -0.00135  -0.00713   0.01440
    H29      Y    -0.05512  -0.00044  -0.00008  -0.00011  -0.00058   0.00119
    H29      Z    -0.26885  -0.00215  -0.00038  -0.00053  -0.00287   0.00442
    H30      X    -0.05009  -0.00038  -0.00010  -0.00015  -0.00028   0.01823
    H30      Y     0.00345   0.00003   0.00000   0.00001   0.00002  -0.00054
    H30      Z    -0.40318  -0.00296  -0.00077  -0.00118  -0.00252   0.11294
    H31      X    -0.05102  -0.00245   0.00007   0.00037  -0.00144  -0.73029
    H31      Y    -0.00432  -0.00024  -0.00001   0.00005  -0.00011  -0.06129
    H31      Z     0.04488   0.00201  -0.00006  -0.00031   0.00106   0.59764
    H32      X     0.00014   0.00084  -0.00165   0.00272   0.00036   0.00071
    H32      Y     0.00012  -0.00028   0.00027  -0.00031  -0.00004  -0.00020
    H32      Z     0.00000  -0.00013  -0.00056   0.00112   0.00010   0.00000
    H33      X     0.00018   0.00060   0.00018  -0.00060   0.00004  -0.00034
    H33      Y    -0.00045  -0.00190  -0.00025   0.00152  -0.00011   0.00079
    H33      Z    -0.00014  -0.00040  -0.00008   0.00025  -0.00004   0.00019
    H34      X     0.00005   0.00068  -0.00012  -0.00014   0.00009   0.00021
    H34      Y     0.00001   0.00049  -0.00016   0.00010   0.00003  -0.00003
    H34      Z     0.00037  -0.00413  -0.00388   0.01018   0.00066   0.00122
    H35      X     0.00530  -0.00640   0.00115   0.00285   0.00034   0.03496
    H35      Y     0.00055  -0.00050   0.00009   0.00026   0.00007   0.00187
    H35      Z     0.00193  -0.00294   0.00047   0.00127   0.00014   0.01240
    H36      X     0.00029  -0.00109   0.00065   0.00039   0.00002   0.00471
    H36      Y     0.00062  -0.00105   0.00101   0.00036   0.00006   0.00602
    H36      Z    -0.00039   0.00014  -0.00067   0.00007  -0.00003  -0.00434
    H37      X     0.00103   0.00110  -0.00020  -0.00033   0.00015   0.00411
    H37      Y    -0.00170  -0.00352   0.00050   0.00129  -0.00025  -0.00570
    H37      Z    -0.00034  -0.00178   0.00024   0.00065  -0.00006  -0.00060
    H38      X     0.00103  -0.13596   0.01535   0.06061   0.00012   0.00053
    H38      Y     0.00133  -0.17253   0.01957   0.07708   0.00016   0.00045
    H38      Z     0.00585  -0.77020   0.08741   0.34328   0.00069   0.00211
    H39      X    -0.00000   0.01656  -0.00219  -0.00704   0.00004  -0.00028
    H39      Y     0.00039  -0.09455   0.01231   0.04054  -0.00007   0.00061
    H39      Z    -0.00003  -0.00250   0.00060   0.00069  -0.00002   0.00000
    H40      X    -0.00132   0.19234  -0.01921  -0.08213  -0.00002  -0.00045
    H40      Y    -0.00119   0.17404  -0.01758  -0.07452  -0.00002  -0.00041
    H40      Z     0.00116  -0.16810   0.01656   0.07161   0.00002   0.00040
    H41      X    -0.00011   0.00022   0.01303   0.00846   0.00011   0.00033
    H41      Y     0.00013  -0.00137  -0.01835  -0.01153  -0.00018  -0.00031
    H41      Z    -0.00027   0.00140   0.03486   0.02257   0.00034   0.00058
    H42      X    -0.00001   0.00560  -0.00379  -0.00419   0.00001  -0.00022
    H42      Y    -0.00004  -0.01116   0.00797   0.00865  -0.00001   0.00028
    H42      Z    -0.00004  -0.01316   0.01102   0.01103   0.00001   0.00036
    H43      X     0.00026  -0.00189  -0.00299  -0.00141   0.00007  -0.00029
    H43      Y     0.00041  -0.00401  -0.00584  -0.00263   0.00010  -0.00022
    H43      Z    -0.00004   0.00002  -0.00024  -0.00013  -0.00002  -0.00000
    H44      X     0.00001   0.00069   0.00168   0.00104   0.00007   0.00036
    H44      Y    -0.00002  -0.00040  -0.00087  -0.00061   0.00002  -0.00029
    H44      Z     0.00005   0.00141   0.00359   0.00231  -0.00032   0.00089
    H45      X     0.00018   0.00010  -0.00010  -0.00018   0.00001  -0.00030
    H45      Y     0.00034   0.00029   0.00006  -0.00025  -0.00012  -0.00050
    H45      Z    -0.00009  -0.00010  -0.00014  -0.00004   0.00006   0.00020
    H46      X    -0.00017   0.00028   0.00124   0.00073  -0.00320   0.00046
    H46      Y    -0.00004  -0.00002  -0.00026  -0.00016   0.00037  -0.00001
    H46      Z    -0.00000  -0.00002  -0.00006  -0.00006   0.00015  -0.00007
    H47      X    -0.00056   0.00016  -0.00001  -0.00000  -0.00004  -0.00025
    H47      Y     0.00217  -0.00079  -0.00010   0.00001   0.00007   0.01084
    H47      Z     0.00209  -0.00090  -0.00006   0.00006   0.00008   0.00867
    H48      X     0.00158   0.00101   0.00194   0.00095   0.00026   0.01385
    H48      Y    -0.00072  -0.00030  -0.00053  -0.00025  -0.00012  -0.00468
    H48      Z     0.00007   0.00003   0.00027   0.00016   0.00002   0.00032
    H49      X     0.00126   0.00012   0.00016   0.00005   0.00019   0.00509
    H49      Y     0.00166   0.00026   0.00032   0.00009   0.00027   0.00557
    H49      Z    -0.00033  -0.00008  -0.00012  -0.00003  -0.00007  -0.00074
    O3       X     0.00000   0.00002   0.00004   0.00004  -0.00000   0.00001
    O3       Y     0.00000  -0.00001   0.00009  -0.00004   0.00002  -0.00000
    O3       Z     0.00002   0.00003   0.00005   0.00002   0.00013  -0.00002
    C105     X    -0.00002  -0.00003  -0.00007  -0.00002   0.00002   0.00002
    C105     Y    -0.00001  -0.00004  -0.00012  -0.00006  -0.00010   0.00001
    C105     Z    -0.00001  -0.00001  -0.00003  -0.00000  -0.00011   0.00002
    C106     X    -0.00006  -0.00004  -0.00003  -0.00003   0.00116   0.00001
    C106     Y     0.00001  -0.00001  -0.00013   0.00000  -0.00046   0.00000
    C106     Z    -0.00005  -0.00003   0.00001  -0.00003   0.00067   0.00002
    C107     X     0.00001  -0.00044  -0.00104  -0.00066   0.00012   0.00000
    C107     Y    -0.00001   0.00003  -0.00041   0.00014   0.00000   0.00000
    C107     Z    -0.00004   0.00046   0.00098   0.00069  -0.00018   0.00001
    C108     X     0.00000  -0.00030  -0.00088  -0.00041   0.00040   0.00001
    C108     Y    -0.00002   0.00008   0.00027   0.00010  -0.00014   0.00001
    C108     Z    -0.00004   0.00016   0.00057   0.00023  -0.00002   0.00001
    H109     X     0.00026   0.00016   0.00023   0.00014  -0.00286  -0.00010
    H109     Y     0.00029   0.00021   0.00030   0.00021  -0.00247  -0.00013
    H109     Z     0.00050   0.00038   0.00060   0.00038  -0.00398  -0.00024
    H110     X     0.00049   0.00032  -0.00034   0.00025  -0.01247  -0.00005
    H110     Y    -0.00039  -0.00026   0.00019  -0.00024   0.00914   0.00005
    H110     Z     0.00020   0.00014  -0.00013   0.00013  -0.00487  -0.00001
    H111     X     0.00000   0.00010   0.00072   0.00009  -0.00005  -0.00001
    H111     Y     0.00009   0.00025   0.00153   0.00021  -0.00150  -0.00002
    H111     Z    -0.00006  -0.00013  -0.00062  -0.00014   0.00080   0.00003
    H112     X     0.00013  -0.00006  -0.00040  -0.00003   0.00005  -0.00008
    H112     Y     0.00024   0.00003  -0.00050   0.00016   0.00015  -0.00015
    H112     Z     0.00028  -0.00003  -0.00070   0.00009   0.00001  -0.00017
    H113     X    -0.00019   0.00243   0.00788   0.00359  -0.00239  -0.00000
    H113     Y     0.00002  -0.00020  -0.00062  -0.00035   0.00023   0.00001
    H113     Z     0.00016  -0.00252  -0.00799  -0.00367   0.00210   0.00002
    H114     X     0.00005   0.00141   0.00356   0.00172  -0.00271  -0.00006
    H114     Y    -0.00005  -0.00071  -0.00166  -0.00088   0.00158   0.00005
    H114     Z     0.00002   0.00065   0.00154   0.00077  -0.00168  -0.00003
    H115     X     0.00013  -0.00029  -0.00015  -0.00061   0.00044  -0.00008
    H115     Y     0.00019  -0.00033   0.00008  -0.00070   0.00049  -0.00009
    H115     Z     0.00029  -0.00023   0.00034  -0.00053   0.00085  -0.00016
    H116     X    -0.00002   0.00009   0.00170  -0.00016  -0.00009   0.00001
    H116     Y    -0.00004   0.00072   0.00648   0.00013  -0.00041   0.00000
    H116     Z    -0.00000  -0.00009  -0.00217   0.00027   0.00007   0.00001
    H117     X    -0.00023   0.00554   0.01108   0.00880  -0.00200  -0.00002
    H117     Y     0.00002  -0.00080  -0.00147  -0.00131   0.00021   0.00001
    H117     Z     0.00020  -0.00537  -0.01031  -0.00853   0.00163   0.00002
  
  Number of imaginary frequencies:   0
   
  Writing vibrational animation data to L_Ar_OtBu_PL139.vib
  Writing IR vibrational spectrum data to L_Ar_OtBu_PL139_vib.spm
  rotational symmetry number:  1

  rotational temperatures (K):      0.007158      0.005307      0.003839
   
  The Quasi-Harmonic approximation will be applied to compute
  vibrational constributions to thermodynamic properties.
  Frequencies will be adjusted to a minimum value of  100.00 cm^-1.

  vibrational temperatures:
       mode:      1        2        3        4        5        6
  temp. (K):   143.88   143.88   143.88   143.88   143.88   143.88
   
       mode:      7        8        9       10       11       12
  temp. (K):   143.88   143.88   143.88   143.88   143.88   160.96
   
       mode:     13       14       15       16       17       18
  temp. (K):   170.95   180.08   202.66   203.94   228.70   234.23
   
       mode:     19       20       21       22       23       24
  temp. (K):   243.64   263.68   274.56   285.83   316.39   329.54
   
       mode:     25       26       27       28       29       30
  temp. (K):   336.11   353.87   360.02   375.24   381.37   384.96
   
       mode:     31       32       33       34       35       36
  temp. (K):   394.00   406.56   422.49   431.93   444.56   462.51
   
       mode:     37       38       39       40       41       42
  temp. (K):   473.82   485.96   490.87   507.09   522.23   526.12
   
       mode:     43       44       45       46       47       48
  temp. (K):   533.92   551.20   555.73   568.42   583.62   583.69
   
       mode:     49       50       51       52       53       54
  temp. (K):   590.72   597.30   600.64   620.96   635.06   678.12
   
       mode:     55       56       57       58       59       60
  temp. (K):   695.75   697.77   739.49   742.21   763.97   785.01
   
       mode:     61       62       63       64       65       66
  temp. (K):   813.41   834.88   841.07   854.93   888.59   900.36
   
       mode:     67       68       69       70       71       72
  temp. (K):   903.49   914.34   999.15  1023.64  1027.45  1098.83
   
       mode:     73       74       75       76       77       78
  temp. (K):  1107.82  1109.47  1118.27  1151.46  1193.65  1194.50
   
       mode:     79       80       81       82       83       84
  temp. (K):  1199.01  1204.32  1210.66  1237.90  1302.64  1311.31
   
       mode:     85       86       87       88       89       90
  temp. (K):  1316.49  1355.55  1369.04  1373.99  1378.04  1380.23
   
       mode:     91       92       93       94       95       96
  temp. (K):  1385.88  1391.88  1399.41  1414.09  1415.54  1422.66
   
       mode:     97       98       99      100      101      102
  temp. (K):  1424.88  1437.37  1460.45  1464.72  1476.22  1478.31
   
       mode:    103      104      105      106      107      108
  temp. (K):  1481.26  1505.06  1513.34  1514.61  1515.97  1517.77
   
       mode:    109      110      111      112      113      114
  temp. (K):  1523.82  1536.23  1541.77  1562.03  1603.85  1614.50
   
       mode:    115      116      117      118      119      120
  temp. (K):  1620.24  1681.73  1721.60  1742.62  1743.46  1744.21
   
       mode:    121      122      123      124      125      126
  temp. (K):  1750.75  1755.72  1771.89  1783.23  1786.78  1789.57
   
       mode:    127      128      129      130      131      132
  temp. (K):  1796.99  1798.19  1817.47  1840.64  1854.59  1884.99
   
       mode:    133      134      135      136      137      138
  temp. (K):  1899.17  1930.14  1931.35  1963.18  1996.02  2016.93
   
       mode:    139      140      141      142      143      144
  temp. (K):  2022.25  2044.87  2049.13  2051.88  2053.91  2058.45
   
       mode:    145      146      147      148      149      150
  temp. (K):  2059.44  2092.41  2104.67  2121.84  2141.49  2155.47
   
       mode:    151      152      153      154      155      156
  temp. (K):  2156.16  2162.20  2166.81  2170.37  2173.89  2177.38
   
       mode:    157      158      159      160      161      162
  temp. (K):  2179.73  2185.55  2187.79  2192.01  2196.30  2198.18
   
       mode:    163      164      165      166      167      168
  temp. (K):  2202.27  2205.49  2209.39  2219.68  2222.46  2223.01
   
       mode:    169      170      171      172      173      174
  temp. (K):  2226.81  2245.49  2347.55  2353.56  2362.89  2375.31
   
       mode:    175      176      177      178      179      180
  temp. (K):  2381.65  2395.10  4369.31  4371.02  4373.95  4378.26
   
       mode:    181      182      183      184      185      186
  temp. (K):  4379.80  4382.20  4387.30  4388.23  4397.13  4475.08
   
       mode:    187      188      189      190      191      192
  temp. (K):  4475.90  4477.58  4480.72  4483.03  4485.02  4491.50
   
       mode:    193      194      195      196      197      198
  temp. (K):  4496.02  4513.76  4520.19  4526.21  4526.77  4532.24
   
       mode:    199      200      201      202      203      204
  temp. (K):  4536.41  4545.17  4576.53  4578.11  4589.29  4592.69
   
       mode:    205      206      207      208      209      210
  temp. (K):  4598.46  4603.29  4604.72  4607.60  4615.25  4621.67
   
       mode:    211      212      213      214      215      216
  temp. (K):  4624.22  4626.72  4628.46  4630.91  4639.73  4701.25
   
   
  Thermodynamic properties calculated assuming an ideal gas

  In the table below, the units for temperature
  are kelvins, the units for U, H, and G are
  kcal/mol and the units for Cv and S are cal/(mol K)

  The zero point energy (ZPE):    398.140 kcal/mol
  is not included in U, H, or G in the table below
  
 
  =============================================================================
  Thermodynamic properties for P = 1.00E+00 atm, calculated at   1 temperatures


  T =   298.15 K, P = 1.00E+00 atm
   
                  U         Cv          S          H          G        ln(Q)
              =========  =========  =========  =========  =========  =========
  trans.          0.889      2.981     44.917      1.481    -11.911   20.10331
  rot.            0.889      2.981     36.742      0.889    -10.066   16.98911
  vib.           20.543    137.051    122.658     20.543    -16.027   27.05113
  elec.           0.000      0.000      0.000      0.000      0.000    0.00000
  ----------------------------------------------------------------------------
  total          22.321    143.012    204.317     22.913    -38.004   64.14355
   
   Total internal energy, Utot(SCFE + ZPE + U):   -1809.400186 hartrees
   Total enthalpy, Htot (Utot + nRT), with n=1:   -1809.399242 hartrees
    Total Gibbs free energy, Gtot (Htot - T*S):   -1809.496320 hartrees
   
  end of program freq
   
 Time(freq)  user:       1.051  user+sys:       1.051  wallclock:       0.412
  
  start of program post
  
  Writing input files for PBF
  end of program post
   
 Time(post)  user:       0.320  user+sys:       0.320  wallclock:       0.337

 Total cpu seconds     user:  101999.052   user+sys:  101999.052
  
 Total elapsed time:    12586 seconds

Job L_Ar_OtBu_PL139 completed on bp1-compute147.data.bp.acrc.priv at Tue Nov 25 22:08:51 2025
