Job ox_add_TS_L1_PL139 started on bp1-compute051.data.bp.acrc.priv at Thu Mar 20 21:48:40 2025
jobid: bp1-compute051-0-67dc8d32

  +--------------------------------------------------------------------+
  |  Jaguar version 12.5, release 138                                  |
  |                                                                    |
  |  Copyright Schrodinger, Inc.                                       |
  |  All Rights Reserved.                                              |
  |                                                                    |
  |  The following have contributed to Jaguar (listed alphabetically): |
  |  Ty Balduf, Mike Beachy, Chandler Bennett, Art Bochevarov,         |
  |  Dale Braden, Yixiang Cao, Alan Chien, Chris Cortis,               |
  |  Rich Friesner, Jim Furness, Bill Goddard, Hod Greeley,            |
  |  Tom Hughes, Leif Jacobson, Jean-Marc Langlois, Daniel Levine,     |
  |  Rob Murphy, Dean Philipp, Tom Pollard, Murco Ringnalda,           |
  |  Daniel Mainz, Pablo Videla, Mark Watson, Haoyu Yu.                |
  |                                                                    |
  |  Use of this program should be acknowledged in publications as:    |
  |                                                                    |
  |  Jaguar, version 12.5, Schrodinger, Inc., New York, NY, 2024.      |
  |                                                                    |
  |  A. D. Bochevarov, E. Harder, T. F. Hughes, J. R. Greenwood,       |
  |  D. A. Braden, D. M. Philipp, D. Rinaldo, M. D. Halls,             |
  |  J. Zhang, R. A. Friesner, "Jaguar: A High-Performance Quantum     |
  |  Chemistry Software Program with Strengths in Life and Materials   |
  |  Sciences", Int. J. Quantum Chem., 2013, 113(18), 2110-2142.       |
  +--------------------------------------------------------------------+
  
  start of program pre
  
  Job name: ox_add_TS_L1_PL139
  Executables used: /software/local/apps/schrodinger2024-3/jaguar-v12.5/bin/Linux-x86_64
  Temporary files : /tmp/ar21627/ox_add_TS_L1_PL139#bp1-compute051-0-67dc8d32
  Basis file : using default basis file from /software/local/apps/schrodinger2024-3
  Maestro file (input):  ox_add_TS_L1_PL139.mae
  Maestro file (output): ox_add_TS_L1_PL139.01.mae
  
 Contents of input file: &gen and (if present) &atomic sections only
 ----------------Contents start----------------
&gen
dftname=b3pw91-d3
basis=6-31G*
numd=5
ip11=2
iaccg=3
isolv=2
igeopt=2
solvent=benzene
ifreq=1
&
&atomic
atom basis
Pd2 lacv3p*
Br3 lacv3p*
&
 -----------------Contents end-----------------
 
  PS calculation requested. Using PS version of 6-31g*
  basis set:               non_standard                    
  net molecular charge:    0
  multiplicity:            1
  
  Using up to   4 threads per process
  
  This run will use ECP on            2  atoms
  number of basis functions....          498
  
 Input geometry:
                                   angstroms
  atom               x                 y                 z
  P1            0.0000000000      0.0000000000      0.0000000000 
  Pd2           0.0000000000      0.0000000000      2.3517789536 
  Br3           0.8127497928      0.0000000000      4.9970488136 
  C73          -1.5129314544      3.7324258484      2.9838813386 
  C74          -0.1281109283      3.6777194835      2.8759596220 
  C75           0.5370637645      2.5314849786      3.3004588046 
  C76          -0.2220101190      1.4406557636      3.7707512531 
  C77          -1.6140881488      1.5421789744      3.9580624655 
  C78          -2.2647208744      2.6991547125      3.5256903057 
  F79          -2.1540578668      4.8418751516      2.5427602649 
  H80           0.4125825200      4.5084643527      2.4348642989 
  H81           1.6156381571      2.4573626438      3.2230842146 
  H82          -2.1675574363      0.7271166184      4.4118783462 
  H83          -3.3433096533      2.8020893354      3.6051745638 
  C3            1.4037020000      0.0000000000     -0.5287930000 
  C4           -0.7175880000      1.2185950000     -0.5000930000 
  C5           -0.6270920000     -1.2611540000     -0.5159910000 
  C6            2.7260500000     -0.4853270000      1.6271060000 
  C7            3.2037415467      0.4890420836      2.5421914869 
  C8            3.3427076298      0.2842074305      3.9252858075 
  C9            3.0029181845     -0.9436439155      4.4993369091 
  C10           2.5252920939     -1.9426734330      3.6472603508 
  C11           2.3990175195     -1.7026668968      2.2690586205 
  C12           2.6019460000     -0.2304150000      0.2176440000 
  C13           3.7878870000     -0.1958030000     -0.5613940000 
  C14           3.8431800000      0.0372740000     -1.9422500000 
  C15           2.6594980000      0.2557690000     -2.6437450000 
  C16           1.4669940000      0.2303350000     -1.9171010000 
  C17           0.2640520000      2.4117330000     -0.4822660000 
  C18          -1.4101740000      1.1825170000     -1.8807340000 
  C19          -1.8189460000      1.5454690000      0.5361260000 
  C20          -2.1080070000     -1.3722510000     -0.0979990000 
  C21           0.1221730000     -2.4158010000      0.1891870000 
  C22          -0.5185810000     -1.5249020000     -2.0327640000 
  H23           3.5106140782      1.4986757485      2.2438585944 
  H24           3.7228140409      1.0933906243      4.5725414540 
  H25           3.1073365851     -1.1176845047      5.5835144817 
  H26           2.2473488768     -2.9241184415      4.0688263639 
  H27           2.0137140197     -2.5696189083      1.7348519269 
  H28           4.7885530000     -0.3513670000     -0.1424820000 
  H29           4.8080470000      0.0488480000     -2.4782120000 
  H30           2.6670950000      0.4405860000     -3.7314160000 
  H31           0.5556520000      0.4025780000     -2.4991290000 
  H32           1.0643220000      2.3023090000     -1.2470840000 
  H33          -0.2516670000      3.3752090000     -0.6985240000 
  H34           0.7608810000      2.5175410000      0.5094590000 
  H35          -0.7084710000      1.0355330000     -2.7274080000 
  H36          -2.1957070000      0.3992420000     -1.9347810000 
  H37          -1.9262770000      2.1470210000     -2.0906830000 
  H38          -1.3958000000      1.6592640000      1.5607770000 
  H39          -2.3500650000      2.4951940000      0.2968930000 
  H40          -2.5919700000      0.7468300000      0.5862940000 
  H41          -2.2342810000     -1.2048910000      0.9961800000 
  H42          -2.7473770000     -0.6357650000     -0.6300580000 
  H43          -2.5273370000     -2.3781680000     -0.3286700000 
  H44           0.0340770000     -2.3450000000      1.2976900000 
  H45          -0.2765190000     -3.4128720000     -0.1076560000 
  H46           1.2083020000     -2.4115640000     -0.0586600000 
  H47          -0.9941950000     -0.7270730000     -2.6402850000 
  H48           0.5384110000     -1.6346130000     -2.3615300000 
  H49          -1.0269740000     -2.4759130000     -2.3116700000 
   
  principal moments of inertia:
        amu*angstrom^2:              2935.23906              3860.28591              5097.25545
                g*cm^2:          4.87407851E-37          6.41015477E-37          8.46419075E-37
   
  rotational constants:
               cm^(-1):      0.00574319      0.00436694      0.00330720
                   GHz:      0.17217644      0.13091751      0.09914728
   
  Molecular weight:     578.04 amu
   
  Stoichiometry: PdC26PH31BrF
  Molecular Point Group: C1      
  Point Group used: C1
  
 
Number of optimization coordinates:   208
Number of independent coordinates:    208
Number of non-redundant coordinates:  177
Number of frozen coordinates:           0
Number of harmonic constraints:         0
 
Number of geometric degrees of freedom:   177
Maximum geometric degrees of freedom:     177
 " " " " " excluding dummy atoms:         177
 
 
  bond lengths (angstroms):
 
 P1      -Pd2     :   2.351779      P1      -C3      :   1.500000
 P1      -C4      :   1.500000      P1      -C5      :   1.500000
 Pd2     -Br3     :   2.767312      Pd2     -C76     :   2.034271
 Br3     -C76     :   2.156391      C73     -C74     :   1.390096
 C73     -C78     :   1.387946      C73     -F79     :   1.355178
 C74     -C75     :   1.391586      C74     -H80     :   1.084920
 C75     -C76     :   1.409708      C75     -H81     :   1.083884
 C76     -C77     :   1.408288      C77     -C78     :   1.396016
 C77     -H82     :   1.084714      C78     -H83     :   1.086401
 C3      -C12     :   1.430401      C3      -C16     :   1.408708
 C4      -C17     :   1.545158      C4      -C18     :   1.545039
 C4      -C19     :   1.547122      C5      -C20     :   1.542780
 C5      -C21     :   1.546572      C5      -C22     :   1.543353
 C6      -C7      :   1.419495      C6      -C11     :   1.414556
 C6      -C12     :   1.437694      C7      -C8      :   1.405069
 C7      -H23     :   1.096601      C8      -C9      :   1.397358
 C8      -H24     :   1.103720      C9      -C10     :   1.397219
 C9      -H25     :   1.103011      C10     -C11     :   1.404631
 C10     -H26     :   1.103723      C11     -H27     :   1.088780
 C12     -C13     :   1.419350      C13     -C14     :   1.401480
 C13     -H28     :   1.095911      C14     -C15     :   1.393176
 C14     -H29     :   1.103792      C15     -C16     :   1.396683
 C15     -H30     :   1.103287      C16     -H31     :   1.094974
 C17     -H32     :   1.112363      C17     -H33     :   1.114011
 C17     -H34     :   1.114250      C18     -H35     :   1.109436
 C18     -H36     :   1.110632      C18     -H37     :   1.113871
 C19     -H38     :   1.114411      C19     -H39     :   1.114135
 C19     -H40     :   1.112613      C20     -H41     :   1.114084
 C20     -H42     :   1.110987      C20     -H43     :   1.113964
 C21     -H44     :   1.114250      C21     -H45     :   1.114101
 C21     -H46     :   1.114057      C22     -H47     :   1.109875
 C22     -H48     :   1.112365      C22     -H49     :   1.113855
 
  bond angles:
 
 C3      -P1      -Pd2     : 110.642051  C4      -P1      -Pd2     : 109.474992
 C4      -P1      -C3      : 109.277784  C5      -P1      -Pd2     : 110.120396
 C5      -P1      -C3      : 105.661559  C5      -P1      -C4      : 111.614203
 Br3     -Pd2     -P1      : 162.920610  C76     -Pd2     -P1      : 134.229445
 C76     -Pd2     -Br3     :  50.600870  C76     -Br3     -Pd2     :  46.801082
 C78     -C73     -C74     : 122.725126  F79     -C73     -C74     : 118.570871
 F79     -C73     -C78     : 118.703960  C75     -C74     -C73     : 119.007012
 H80     -C74     -C73     : 119.861843  H80     -C74     -C75     : 121.098960
 C76     -C75     -C74     : 118.799927  H81     -C75     -C74     : 120.677739
 H81     -C75     -C76     : 120.445769  Br3     -C76     -Pd2     :  82.598047
 C75     -C76     -Pd2     : 104.864201  C75     -C76     -Br3     : 116.634448
 C77     -C76     -Pd2     : 104.578646  C77     -C76     -Br3     : 116.542285
 C77     -C76     -C75     : 121.389509  C78     -C77     -C76     : 118.636478
 H82     -C77     -C76     : 120.387739  H82     -C77     -C78     : 120.965076
 C77     -C78     -C73     : 119.041570  H83     -C78     -C73     : 119.721544
 H83     -C78     -C77     : 121.236849  C12     -C3      -P1      : 126.866735
 C16     -C3      -P1      : 112.921406  C16     -C3      -C12     : 120.197482
 C17     -C4      -P1      : 108.635479  C18     -C4      -P1      : 119.564083
 C18     -C4      -C17     : 108.247562  C19     -C4      -P1      : 106.792043
 C19     -C4      -C17     : 106.342742  C19     -C4      -C18     : 106.518855
 C20     -C5      -P1      : 111.631893  C21     -C5      -P1      : 105.564318
 C21     -C5      -C20     : 106.722903  C22     -C5      -P1      : 116.895060
 C22     -C5      -C20     : 108.750722  C22     -C5      -C21     : 106.646205
 C11     -C6      -C7      : 112.083859  C12     -C6      -C7      : 122.638665
 C12     -C6      -C11     : 125.277476  C8      -C7      -C6      : 124.596171
 H23     -C7      -C6      : 123.420160  H23     -C7      -C8      : 111.983632
 C9      -C8      -C7      : 120.559660  H24     -C8      -C7      : 120.294259
 H24     -C8      -C9      : 119.146078  C10     -C9      -C8      : 117.443483
 H25     -C9      -C8      : 121.293605  H25     -C9      -C10     : 121.262909
 C11     -C10     -C9      : 120.458961  H26     -C10     -C9      : 119.271939
 H26     -C10     -C11     : 120.269097  C10     -C11     -C6      : 124.857824
 H27     -C11     -C6      : 122.983415  H27     -C11     -C10     : 112.158723
 C6      -C12     -C3      : 127.767778  C13     -C12     -C3      : 114.179167
 C13     -C12     -C6      : 118.053050  C14     -C13     -C12     : 125.296897
 H28     -C13     -C12     : 123.344249  H28     -C13     -C14     : 111.358848
 C15     -C14     -C13     : 119.253491  H29     -C14     -C13     : 120.974078
 H29     -C14     -C15     : 119.772406  C16     -C15     -C14     : 117.425968
 H30     -C15     -C14     : 121.118955  H30     -C15     -C16     : 121.455055
 C15     -C16     -C3      : 123.646561  H31     -C16     -C3      : 120.808706
 H31     -C16     -C15     : 115.544693  H32     -C17     -C4      : 111.910845
 H33     -C17     -C4      : 111.807544  H33     -C17     -H32     : 106.538408
 H34     -C17     -C4      : 111.522463  H34     -C17     -H32     : 107.488352
 H34     -C17     -H33     : 107.281718  H35     -C18     -C4      : 113.673662
 H36     -C18     -C4      : 112.148234  H36     -C18     -H35     : 108.467982
 H37     -C18     -C4      : 110.849242  H37     -C18     -H35     : 105.303521
 H37     -C18     -H36     : 105.890065  H38     -C19     -C4      : 111.536748
 H39     -C19     -C4      : 112.063982  H39     -C19     -H38     : 106.941488
 H40     -C19     -C4      : 111.909518  H40     -C19     -H38     : 107.196505
 H40     -C19     -H39     : 106.879073  H41     -C20     -C5      : 111.350636
 H42     -C20     -C5      : 112.020047  H42     -C20     -H41     : 107.790504
 H43     -C20     -C5      : 111.731603  H43     -C20     -H41     : 107.239005
 H43     -C20     -H42     : 106.428016  H44     -C21     -C5      : 111.584181
 H45     -C21     -C5      : 111.919355  H45     -C21     -H44     : 107.076047
 H46     -C21     -C5      : 111.595099  H46     -C21     -H44     : 107.347393
 H46     -C21     -H45     : 107.038637  H47     -C22     -C5      : 112.642254
 H48     -C22     -C5      : 111.970515  H48     -C22     -H47     : 108.440249
 H49     -C22     -C5      : 111.094202  H49     -C22     -H47     : 106.325725
 H49     -C22     -H48     : 105.991230
 
  torsional angles:
 
 P1      -Pd2     -Br3     -C76     : 113.585282
 P1      -Pd2     -C76     -Br3     :-157.936381
 P1      -Pd2     -C76     -C75     : -42.263337
 P1      -Pd2     -C76     -C77     :  86.480728
 P1      -C3      -C12     -C6      :  -1.244791
 P1      -C3      -C12     -C13     : 178.729711
 P1      -C3      -C16     -C15     :-178.962339
 P1      -C3      -C16     -H31     :   0.961507
 P1      -C4      -C17     -H32     :  69.066294
 P1      -C4      -C17     -H33     :-171.500578
 P1      -C4      -C17     -H34     : -51.385074
 P1      -C4      -C18     -H35     : -63.625205
 P1      -C4      -C18     -H36     :  59.871656
 P1      -C4      -C18     -H37     : 177.992778
 P1      -C4      -C19     -H38     :  54.960151
 P1      -C4      -C19     -H39     : 174.826861
 P1      -C4      -C19     -H40     : -65.126497
 P1      -C5      -C20     -H41     : -50.476119
 P1      -C5      -C20     -H42     :  70.318293
 P1      -C5      -C20     -H43     :-170.366999
 P1      -C5      -C21     -H44     :  59.004770
 P1      -C5      -C21     -H45     : 178.976975
 P1      -C5      -C21     -H46     : -61.091110
 P1      -C5      -C22     -H47     : -60.037413
 P1      -C5      -C22     -H48     :  62.500013
 P1      -C5      -C22     -H49     :-179.204233
 Pd2     -P1      -C3      -C12     :  11.615731
 Pd2     -P1      -C3      -C16     :-169.774349
 Pd2     -P1      -C4      -C17     :  82.405157
 Pd2     -P1      -C4      -C18     :-152.760667
 Pd2     -P1      -C4      -C19     : -31.921688
 Pd2     -P1      -C5      -C20     :  62.890670
 Pd2     -P1      -C5      -C21     : -52.690285
 Pd2     -P1      -C5      -C22     :-171.030664
 Pd2     -Br3     -C76     -C75     :-102.958243
 Pd2     -Br3     -C76     -C77     : 102.640667
 Pd2     -C76     -C75     -C74     : 110.681618
 Pd2     -C76     -C75     -H81     : -66.158207
 Pd2     -C76     -C77     -C78     :-110.762977
 Pd2     -C76     -C77     -H82     :  68.058233
 Br3     -Pd2     -P1      -C3      :   0.000000
 Br3     -Pd2     -P1      -C4      :-120.492344
 Br3     -Pd2     -P1      -C5      : 116.438249
 Br3     -Pd2     -C76     -C75     : 115.673044
 Br3     -Pd2     -C76     -C77     :-115.582891
 Br3     -C76     -C75     -C74     :-160.235470
 Br3     -C76     -C75     -H81     :  22.924705
 Br3     -C76     -C77     -C78     : 160.319162
 Br3     -C76     -C77     -H82     : -20.859629
 C73     -C74     -C75     -C76     :   2.788945
 C73     -C74     -C75     -H81     : 179.621198
 C73     -C78     -C77     -C76     :  -2.927155
 C73     -C78     -C77     -H82     : 178.258704
 C74     -C73     -C78     -C77     :  -1.328160
 C74     -C73     -C78     -H83     : 178.741364
 C74     -C75     -C76     -C77     :  -7.158916
 C75     -C74     -C73     -C78     :   1.400090
 C75     -C74     -C73     -F79     :-178.676353
 C75     -C76     -C77     -C78     :   7.219193
 C75     -C76     -C77     -H82     :-173.959597
 C76     -Pd2     -P1      -C3      :  98.760567
 C76     -Pd2     -P1      -C4      : -21.731777
 C76     -Pd2     -P1      -C5      :-144.801185
 C76     -C75     -C74     -H80     :-175.144442
 C76     -C77     -C78     -H83     : 177.002230
 C77     -C76     -C75     -H81     : 176.001259
 C77     -C78     -C73     -F79     : 178.748380
 C78     -C73     -C74     -H80     : 179.359586
 F79     -C73     -C74     -H80     :  -0.716857
 F79     -C73     -C78     -H83     :  -1.182096
 H80     -C74     -C75     -H81     :   1.687812
 H82     -C77     -C78     -H83     :  -1.811911
 C3      -P1      -C4      -C17     : -38.914883
 C3      -P1      -C4      -C18     :  85.919293
 C3      -P1      -C4      -C19     :-153.241727
 C3      -P1      -C5      -C20     :-177.595796
 C3      -P1      -C5      -C21     :  66.823249
 C3      -P1      -C5      -C22     : -51.517131
 C3      -C12     -C6      -C7      :-105.457153
 C3      -C12     -C6      -C11     :  74.547585
 C3      -C12     -C13     -C14     :  -0.059613
 C3      -C12     -C13     -H28     : 179.909160
 C3      -C16     -C15     -C14     :   0.107798
 C3      -C16     -C15     -H30     :-179.945215
 C4      -P1      -C3      -C12     : 132.225580
 C4      -P1      -C3      -C16     : -49.164500
 C4      -P1      -C5      -C20     : -58.917219
 C4      -P1      -C5      -C21     :-174.498174
 C4      -P1      -C5      -C22     :  67.161446
 C5      -P1      -C3      -C12     :-107.553020
 C5      -P1      -C3      -C16     :  71.056900
 C5      -P1      -C4      -C17     :-155.415056
 C5      -P1      -C4      -C18     : -30.580880
 C5      -P1      -C4      -C19     :  90.258099
 C6      -C7      -C8      -C9      :  -0.011981
 C6      -C7      -C8      -H24     : 179.970654
 C6      -C11     -C10     -C9      :   0.040255
 C6      -C11     -C10     -H26     :-179.980554
 C6      -C12     -C3      -C16     :-179.763430
 C6      -C12     -C13     -C14     : 179.917547
 C6      -C12     -C13     -H28     :  -0.113679
 C7      -C6      -C11     -C10     :  -0.074732
 C7      -C6      -C11     -H27     : 179.848321
 C7      -C6      -C12     -C13     :  74.569205
 C7      -C8      -C9      -C10     :  -0.029064
 C7      -C8      -C9      -H25     : 179.990200
 C8      -C7      -C6      -C11     :   0.060605
 C8      -C7      -C6      -C12     :-179.935221
 C8      -C9      -C10     -C11     :   0.015975
 C8      -C9      -C10     -H26     :-179.963423
 C9      -C8      -C7      -H23     :-179.943483
 C9      -C10     -C11     -H27     :-179.890053
 C10     -C9      -C8      -H24     : 179.988104
 C10     -C11     -C6      -C12     : 179.920963
 C11     -C6      -C7      -H23     : 179.984505
 C11     -C6      -C12     -C13     :-105.426058
 C11     -C10     -C9      -H25     : 179.996718
 C12     -C3      -C16     -C15     :  -0.249043
 C12     -C3      -C16     -H31     : 179.674803
 C12     -C6      -C7      -H23     :  -0.011321
 C12     -C6      -C11     -H27     :  -0.155984
 C12     -C13     -C14     -C15     :  -0.073105
 C12     -C13     -C14     -H29     : 179.984555
 C13     -C12     -C3      -C16     :   0.211072
 C13     -C14     -C15     -C16     :   0.051014
 C13     -C14     -C15     -H30     :-179.896162
 C14     -C15     -C16     -H31     :-179.819709
 C15     -C14     -C13     -H28     : 179.954905
 C16     -C15     -C14     -H29     : 179.994058
 C17     -C4      -C18     -H35     :  61.394213
 C17     -C4      -C18     -H36     :-175.108926
 C17     -C4      -C18     -H37     : -56.987804
 C17     -C4      -C19     -H38     : -60.909139
 C17     -C4      -C19     -H39     :  58.957571
 C17     -C4      -C19     -H40     : 179.004213
 C18     -C4      -C17     -H32     : -62.191818
 C18     -C4      -C17     -H33     :  57.241310
 C18     -C4      -C17     -H34     : 177.356814
 C18     -C4      -C19     -H38     :-176.206687
 C18     -C4      -C19     -H39     : -56.339978
 C18     -C4      -C19     -H40     :  63.706664
 C19     -C4      -C17     -H32     :-176.313205
 C19     -C4      -C17     -H33     : -56.880076
 C19     -C4      -C17     -H34     :  63.235427
 C19     -C4      -C18     -H35     : 175.399296
 C19     -C4      -C18     -H36     : -61.103843
 C19     -C4      -C18     -H37     :  57.017279
 C20     -C5      -C21     -H44     : -59.893717
 C20     -C5      -C21     -H45     :  60.078488
 C20     -C5      -C21     -H46     :-179.989597
 C20     -C5      -C22     -H47     :  67.458488
 C20     -C5      -C22     -H48     :-170.004085
 C20     -C5      -C22     -H49     : -51.708331
 C21     -C5      -C20     -H41     :  64.392944
 C21     -C5      -C20     -H42     :-174.812645
 C21     -C5      -C20     -H43     : -55.497936
 C21     -C5      -C22     -H47     :-177.791448
 C21     -C5      -C22     -H48     : -55.254022
 C21     -C5      -C22     -H49     :  63.041732
 C22     -C5      -C20     -H41     : 179.093085
 C22     -C5      -C20     -H42     : -60.112503
 C22     -C5      -C20     -H43     :  59.202205
 C22     -C5      -C21     -H44     :-176.007825
 C22     -C5      -C21     -H45     : -56.035620
 C22     -C5      -C21     -H46     :  63.896294
 H23     -C7      -C8      -H24     :   0.039152
 H24     -C8      -C9      -H25     :   0.007368
 H25     -C9      -C10     -H26     :   0.017320
 H26     -C10     -C11     -H27     :   0.089139
 H28     -C13     -C14     -H29     :   0.012565
 H29     -C14     -C15     -H30     :   0.046882
 H30     -C15     -C16     -H31     :   0.127278
 
  nuclear repulsion energy.......          3784.613861837 hartrees
  
  Detected an organometallic with only one TM atom. 
  
  
 
  Will use High-Quality Initial guess for organometallics
       including d-d repulsion (iguess=30)
 
 Non-default options chosen:
   SCF calculation type: DFT(b3pw91-d3)              
   DFT=Becke_3_Parameter/HF+Slater+Becke88+PW91+PW-GGAIIC (B3PW91-D3)
   Transition state optimization
   Geometry will be optimized in redundant internal coordinates
   Culot/Fletcher trust radius adjustment
      initial trust radius:  0.100
   P-RFO level-shifting used
   Solvation energy will be computed using PBF
     -solute cavity energy will not be included
     -surface area terms will not be included
   Vibrational frequencies and related properties will be computed
      from analytic second derivatives
   IR intensities will be computed
   Thermochemical properties will be computed
   Maximum number of geometry steps: 100
   Scaling standard convergence criteria by a factor of   5.00
   Mixed Murtagh-Sargent/Powell Hessian-updating used
   Solvent: benzene                                                         
   Internal dielectric constant:    1.000
   Continuum dielectric constant:   2.283
   Solvent probe molecule radius:   2.600
  
 Non-default print settings:
     11=  2
  
 Temporary integer options set:
     21= -1  73=  2
  
  atom       vdw   vdw2    cov     mass  grid  daf  charge   basis
  P1        2.147  2.074  1.060   30.974    Y    Y      Y    ps_6-31g*
  Pd2       1.450  1.450  1.280  105.903    Y    Y      Y    lacv3p*
  Br3       2.095  2.095  1.140   78.918    Y    Y      Y    lav3p*
  C73       1.949  1.900  0.770   12.000    Y    Y      Y    ps_6-31g*
  C74       1.949  1.900  0.770   12.000    Y    Y      Y    ps_6-31g*
  C75       1.949  1.900  0.770   12.000    Y    Y      Y    ps_6-31g*
  C76       1.949  1.900  0.770   12.000    Y    Y      Y    ps_6-31g*
  C77       1.949  1.900  0.770   12.000    Y    Y      Y    ps_6-31g*
  C78       1.949  1.900  0.770   12.000    Y    Y      Y    ps_6-31g*
  F79       1.736  1.682  0.720   18.998    Y    Y      Y    ps_6-31g*
  H80       1.597  1.150  0.320    1.008    Y    Y      Y    ps_6-31g*
  H81       1.597  1.150  0.320    1.008    Y    Y      Y    ps_6-31g*
  H82       1.597  1.150  0.320    1.008    Y    Y      Y    ps_6-31g*
  H83       1.597  1.150  0.320    1.008    Y    Y      Y    ps_6-31g*
  C3        1.949  1.900  0.770   12.000    Y    Y      Y    ps_6-31g*
  C4        1.949  1.900  0.770   12.000    Y    Y      Y    ps_6-31g*
  C5        1.949  1.900  0.770   12.000    Y    Y      Y    ps_6-31g*
  C6        1.949  1.900  0.770   12.000    Y    Y      Y    ps_6-31g*
  C7        1.949  1.900  0.770   12.000    Y    Y      Y    ps_6-31g*
  C8        1.949  1.900  0.770   12.000    Y    Y      Y    ps_6-31g*
  C9        1.949  1.900  0.770   12.000    Y    Y      Y    ps_6-31g*
  C10       1.949  1.900  0.770   12.000    Y    Y      Y    ps_6-31g*
  C11       1.949  1.900  0.770   12.000    Y    Y      Y    ps_6-31g*
  C12       1.949  1.900  0.770   12.000    Y    Y      Y    ps_6-31g*
  C13       1.949  1.900  0.770   12.000    Y    Y      Y    ps_6-31g*
  C14       1.949  1.900  0.770   12.000    Y    Y      Y    ps_6-31g*
  C15       1.949  1.900  0.770   12.000    Y    Y      Y    ps_6-31g*
  C16       1.949  1.900  0.770   12.000    Y    Y      Y    ps_6-31g*
  C17       1.949  1.900  0.770   12.000    Y    Y      Y    ps_6-31g*
  C18       1.949  1.900  0.770   12.000    Y    Y      Y    ps_6-31g*
  C19       1.949  1.900  0.770   12.000    Y    Y      Y    ps_6-31g*
  C20       1.949  1.900  0.770   12.000    Y    Y      Y    ps_6-31g*
  C21       1.949  1.900  0.770   12.000    Y    Y      Y    ps_6-31g*
  C22       1.949  1.900  0.770   12.000    Y    Y      Y    ps_6-31g*
  H23       1.597  1.150  0.320    1.008    Y    Y      Y    ps_6-31g*
  H24       1.597  1.150  0.320    1.008    Y    Y      Y    ps_6-31g*
  H25       1.597  1.150  0.320    1.008    Y    Y      Y    ps_6-31g*
  H26       1.597  1.150  0.320    1.008    Y    Y      Y    ps_6-31g*
  H27       1.597  1.150  0.320    1.008    Y    Y      Y    ps_6-31g*
  H28       1.597  1.150  0.320    1.008    Y    Y      Y    ps_6-31g*
  H29       1.597  1.150  0.320    1.008    Y    Y      Y    ps_6-31g*
  H30       1.597  1.150  0.320    1.008    Y    Y      Y    ps_6-31g*
  H31       1.597  1.150  0.320    1.008    Y    Y      Y    ps_6-31g*
  H32       1.597  1.150  0.320    1.008    Y    Y      Y    ps_6-31g*
  H33       1.597  1.150  0.320    1.008    Y    Y      Y    ps_6-31g*
  H34       1.597  1.150  0.320    1.008    Y    Y      Y    ps_6-31g*
  H35       1.597  1.150  0.320    1.008    Y    Y      Y    ps_6-31g*
  H36       1.597  1.150  0.320    1.008    Y    Y      Y    ps_6-31g*
  H37       1.597  1.150  0.320    1.008    Y    Y      Y    ps_6-31g*
  H38       1.597  1.150  0.320    1.008    Y    Y      Y    ps_6-31g*
  H39       1.597  1.150  0.320    1.008    Y    Y      Y    ps_6-31g*
  H40       1.597  1.150  0.320    1.008    Y    Y      Y    ps_6-31g*
  H41       1.597  1.150  0.320    1.008    Y    Y      Y    ps_6-31g*
  H42       1.597  1.150  0.320    1.008    Y    Y      Y    ps_6-31g*
  H43       1.597  1.150  0.320    1.008    Y    Y      Y    ps_6-31g*
  H44       1.597  1.150  0.320    1.008    Y    Y      Y    ps_6-31g*
  H45       1.597  1.150  0.320    1.008    Y    Y      Y    ps_6-31g*
  H46       1.597  1.150  0.320    1.008    Y    Y      Y    ps_6-31g*
  H47       1.597  1.150  0.320    1.008    Y    Y      Y    ps_6-31g*
  H48       1.597  1.150  0.320    1.008    Y    Y      Y    ps_6-31g*
  H49       1.597  1.150  0.320    1.008    Y    Y      Y    ps_6-31g*
 
  atom      formal  2spin      esp    mulk    frag
  P1           0       0        Y    0.000       0
  Pd2          0       0        Y    0.000       0
  Br3          0       0        Y    0.000       0
  
  end of program pre
   
 Time(pre)  user:       1.107  user+sys:       1.107  wallclock:       1.332
  
  start of program onee
  
  smallest eigenvalue of S:    3.759E-04
  number of canonical orbitals.....          495
  end of program onee
   
 Time(onee)  user:       6.072  user+sys:       6.072  wallclock:       4.577
  
  start of program hfig
  
  initial wavefunction generated automatically from atomic wavefunctions
  Only one possible d-orb occupation 
  Skip d-d repulsion considerations 
 
  Irreducible     Total no   No of occupied orbitals 
  representation  orbitals   Shell_1  Shell_2    ...
  No Symm          495        118
  ------------------------
  Orbital occupation/shell    1.000
 
  end of program hfig
   
 Time(hfig)  user:       0.943  user+sys:       0.943  wallclock:       0.996
  
  start of program probe
  
  end of program probe
   
 Time(probe)  user:       0.445  user+sys:       0.445  wallclock:       0.426
  
  start of program grid
  
   grid     grid set  grid #  grid sym
  ------    --------  ------  --------
  coarse        0        0        1
  medium        2        1        1
  fine          0        0        1
  ultrafine     4        2        1
  charge       -1        3        1
  gradient      4        2        1
  density       0        0        1
  DFT-fine    -11        4        1
  DFT-med.    -10        5        1
  DFT-grad    -12        6        1
  DFT-der2     -8        7        1
  DFT-cphf     -9        8        1
  LMP2-enrg     4        2        1
  LMP2-grad     2        1        1
  DFT-cphf2   -15        9        1
  PBF-dens      0        0        1
  plotting      0        0        1
  Rel-grad    -17        0        1
  
  number of gridpoints: 
     atom           P1         Pd2         Br3         C73         C74         C75         C76
  grid # 1         528         355         487          78          93          95          94
  grid # 2         370         313         450         327         320         323         389
  grid # 3           6         238         221          31          32          30          20
  grid # 4        8714        8714        8714        8714        8714        8714        8714
  grid # 5        1192        1192        1192        1192        1192        1192        1192
  grid # 6        9132        9132        9132        5922        5922        5922        5922
  grid # 7       23034       32968       11582       13950       13950       13950       13950
  grid # 8         722        1150         694         748         748         748         748
  grid # 9         366        2198         358         394         394         394         394
   
  number of gridpoints: 
     atom          C77         C78         F79         H80         H81         H82         H83
  grid # 1          95          93         583         113         108         115         114
  grid # 2         319         319         564         459         440         467         466
  grid # 3          30          29         316         342         147         338         387
  grid # 4        8714        8714        8714        8714        8714        8714        8714
  grid # 5        1192        1192        1192        1192        1192        1192        1192
  grid # 6        5922        5922        5922        5922        5922        5922        5922
  grid # 7       13950       13950       23190       15206       15206       15206       15206
  grid # 8         748         748         770         786         786         786         786
  grid # 9         394         394         420         420         420         420         420
   
  number of gridpoints: 
     atom           C3          C4          C5          C6          C7          C8          C9
  grid # 1          91          87          87          96          92          94          91
  grid # 2         354         337         344         349         325         323         318
  grid # 3           6           6           6          10          18          29          29
  grid # 4        8714        8714        8714        8714        8714        8714        8714
  grid # 5        1192        1192        1192        1192        1192        1192        1192
  grid # 6        5922        5922        5922        5922        5922        5922        5922
  grid # 7       13950       13950       13950       13950       13950       13950       13950
  grid # 8         748         748         748         748         748         748         748
  grid # 9         394         394         394         394         394         394         394
   
  number of gridpoints: 
     atom          C10         C11         C12         C13         C14         C15         C16
  grid # 1          95          93          97          93          97          95          89
  grid # 2         324         325         349         326         323         318         315
  grid # 3          29          21          11          28          39          18           6
  grid # 4        8714        8714        8714        8714        8714        8714        8714
  grid # 5        1192        1192        1192        1192        1192        1192        1192
  grid # 6        5922        5922        5922        5922        5922        5922        5922
  grid # 7       13950       13950       13950       13950       13950       13950       13950
  grid # 8         748         748         748         748         748         748         748
  grid # 9         394         394         394         394         394         394         394
   
  number of gridpoints: 
     atom          C17         C18         C19         C20         C21         C22         H23
  grid # 1          78          81          79          80          81          80         113
  grid # 2         248         240         247         249         241         242         447
  grid # 3           6           6           6           6           6           6         257
  grid # 4        8714        8714        8714        8714        8714        8714        8714
  grid # 5        1192        1192        1192        1192        1192        1192        1192
  grid # 6        5922        5922        5922        5922        5922        5922        5922
  grid # 7       13950       13950       13950       13950       13950       13950       15206
  grid # 8         748         748         748         748         748         748         786
  grid # 9         394         394         394         394         394         394         420
   
  number of gridpoints: 
     atom          H24         H25         H26         H27         H28         H29         H30
  grid # 1         114         113         117         104         116         118         118
  grid # 2         461         458         463         432         460         465         467
  grid # 3         338         347         375         177         363         420         404
  grid # 4        8714        8714        8714        8714        8714        8714        8714
  grid # 5        1192        1192        1192        1192        1192        1192        1192
  grid # 6        5922        5922        5922        5922        5922        5922        5922
  grid # 7       15206       15206       15206       15206       15206       15206       15206
  grid # 8         786         786         786         786         786         786         786
  grid # 9         420         420         420         420         420         420         420
   
  number of gridpoints: 
     atom          H31         H32         H33         H34         H35         H36         H37
  grid # 1          90         102         107         102          98          98         107
  grid # 2         387         429         442         428         401         415         443
  grid # 3          48         187         249          94         150         135         274
  grid # 4        8714        8714        8714        8714        8714        8714        8714
  grid # 5        1192        1192        1192        1192        1192        1192        1192
  grid # 6        5922        5922        5922        5922        5922        5922        5922
  grid # 7       15206       15206       15206       15206       15206       15206       15206
  grid # 8         786         786         786         786         786         786         786
  grid # 9         420         420         420         420         420         420         420
   
  number of gridpoints: 
     atom          H38         H39         H40         H41         H42         H43         H44
  grid # 1          96         107          96         101          95         107          99
  grid # 2         407         441         416         433         408         445         429
  grid # 3          22         201         136         163         145         280         119
  grid # 4        8714        8714        8714        8714        8714        8714        8714
  grid # 5        1192        1192        1192        1192        1192        1192        1192
  grid # 6        5922        5922        5922        5922        5922        5922        5922
  grid # 7       15206       15206       15206       15206       15206       15206       15206
  grid # 8         786         786         786         786         786         786         786
  grid # 9         420         420         420         420         420         420         420
   
  number of gridpoints: 
     atom          H45         H46         H47         H48         H49       total
  grid # 1         108         100          96         100         109        7558
  grid # 2         447         422         403         424         447       23343
  grid # 3         272         125         124         177         275        8316
  grid # 4        8714        8714        8714        8714        8714      531554
  grid # 5        1192        1192        1192        1192        1192       72712
  grid # 6        5922        5922        5922        5922        5922      370872
  grid # 7       15206       15206       15206       15206       15206      924860
  grid # 8         786         786         786         786         786       47150
  grid # 9         420         420         420         420         420       26606
   
  end of program grid
   
 Time(grid)  user:     191.056  user+sys:     191.056  wallclock:      97.933
  
  start of program rwr
  
  end of program rwr
   
 Time(rwr)  user:      14.939  user+sys:      14.939  wallclock:      18.061
  
  start of program scf
  
 number of electrons..........        236
 number of alpha electrons....        118
 number of beta electrons.....        118
 number of orbitals, total....        495
 number of doubly-occ'd orbs..        118
 number of open shell orbs....          0
 number of occupied orbitals..        118
 number of virtual orbitals...        377
 number of hamiltonians.......          1
 number of shells.............          1
 SCF type: DFT=Becke_3_Parameter/HF+Slater+Becke88+PW91+PW-GGAIIC (B3PW91-D3)
 Energy computed using pseudospectral method.
 Convergence Criterion:
    Energy (econv):       1.00E-05
    RMS density (dconv):  5.00E-06
  
       i  u  d  i  g                   
       t  p  i  c  r                                 RMS    maximum
       e  d  i  u  i                       energy  density   DIIS  
       r  t  s  t  d       total energy    change  change    error 
  
etot    1  N  N  5  M   -1586.07220523084           2.7E-03  1.8E-01
etot    2  Y  Y  6  M   -1588.70691249366  2.6E+00  4.1E-03  1.1E-01
etot    3  Y  Y  6  M   -1589.05024454198  3.4E-01  2.2E-03  6.9E-02
etot    4  N  Y  2  U   -1589.61293505515  5.6E-01  1.4E-03  2.5E-02
etot    5  Y  Y  6  M   -1589.73017539133  1.2E-01  8.2E-04  1.4E-02
etot    6  N  Y  2  U   -1589.74186091994  1.2E-02  5.3E-04  5.6E-03
etot    7  Y  Y  6  M   -1589.74391412077  2.1E-03  1.2E-04  3.0E-03
etot    8  Y  Y  6  M   -1589.74666413678  2.8E-03  3.9E-05  8.9E-04
etot    9  N  Y  2  U   -1589.74771531892  1.1E-03  1.3E-05  1.5E-04
etot   10  N  Y  2  U   -1589.74772389691  8.6E-06  6.4E-06  5.6E-05
etot   11  N  Y  2  U   -1589.74772577791  1.9E-06  3.3E-06  3.7E-05
etot   12  N  N  2  U   -1589.74772632781  5.5E-07  0.0E+00  0.0E+00
 
  Computing the dispersion energy correction and its gradients...
  
  
 Energy components, in hartrees:
   (A)  Nuclear repulsion............    3784.61386183738
   (E)  Total one-electron terms.....   -9760.74612287435
   (F)    Electron-nuclear...........  -11256.38847064604
   (H)    Kinetic....................    1495.64234777169
   (I)  Total two-electron terms.....    4386.38453470916
   (J)    Coulomb....................    4588.42342658563
   (K)    Exchange+Correlation.......    -202.03889187648
   (L)  Electronic energy............   -5374.36158816519  (E+I)
   (N0) D3 correction................      -0.12336015409
   (N)  Total energy.................   -1589.87108648189  (A+L+N0)
   (O)  Gas phase energy.............   -1589.87108648189
  
 SCFE: SCF energy: DFT(b3pw91-d3)     -1589.87108648189 hartrees   iterations:  12
  
 
 HOMO energy:    -0.14520
 LUMO energy:    -0.04798
 
  Orbital energies (hartrees): 
   -76.97680   -24.68017   -10.24679   -10.22795   -10.20138   -10.18767
   -10.18623   -10.18399   -10.18278   -10.18213   -10.18126   -10.17975
   -10.17658   -10.17567   -10.17482   -10.17476   -10.17333   -10.17244
   -10.16837   -10.16817   -10.16661   -10.16647   -10.16525   -10.16370
   -10.16286   -10.16172   -10.15678   -10.15160    -6.51532    -4.67167
    -4.67111    -4.66651    -3.27230    -2.00905    -1.99246    -1.98639
    -1.21095    -0.91998    -0.86910    -0.86799    -0.84992    -0.82627
    -0.79480    -0.77784    -0.76802    -0.76053    -0.73957    -0.73866
    -0.72137    -0.70842    -0.70051    -0.68759    -0.68582    -0.68006
    -0.63515    -0.62558    -0.61617    -0.60117    -0.59768    -0.58751
    -0.58621    -0.54651    -0.53879    -0.51501    -0.50559    -0.49249
    -0.48670    -0.48617    -0.48396    -0.47331    -0.47098    -0.46050
    -0.45604    -0.45181    -0.44790    -0.44492    -0.44204    -0.43518
    -0.43342    -0.43025    -0.41130    -0.40500    -0.40150    -0.40042
    -0.39682    -0.39474    -0.39332    -0.38374    -0.37901    -0.37771
    -0.37199    -0.36984    -0.36731    -0.36102    -0.35815    -0.35594
    -0.34574    -0.34515    -0.34215    -0.33804    -0.33135    -0.32734
    -0.31628    -0.30284    -0.29787    -0.29366    -0.27868    -0.26869
    -0.26700    -0.25475    -0.25165    -0.24239    -0.21734    -0.21351
    -0.20453    -0.19928    -0.17602    -0.14520    -0.04798    -0.03993
    -0.02353    -0.01475    -0.00574     0.00348     0.01330     0.03241
     0.05131     0.05983
 
  end of program scf
   
 Time(scf)  user:     383.393  user+sys:     383.393  wallclock:     206.843
  
  start of program der1a
  
  end of program der1a
   
 Time(der1a)  user:      20.469  user+sys:      20.469  wallclock:      10.906
  
  start of program rwr
  
  end of program rwr
   
 Time(rwr)  user:      17.294  user+sys:      17.294  wallclock:      21.720
  
  start of program der1b
  
   
  forces (hartrees/bohr) : total     
   
 atom  label           x              y              z
 ---- --------   -------------  -------------  -------------
    1 P1          1.118071E-02   1.361032E-03   3.086028E-01
    2 Pd2         5.039428E-03  -1.816649E-03   1.497873E-02
    3 Br3        -7.448095E-02   2.922885E-02   1.978314E-02
    4 C73        -4.538542E-03   6.564776E-03  -7.862846E-04
    5 C74         6.320977E-04  -2.194639E-03   7.999606E-04
    6 C75        -1.704958E-04   1.872859E-03   1.791961E-03
    7 C76        -2.541950E-03   2.378405E-04   1.326875E-02
    8 C77        -1.081641E-03   3.784699E-03   3.868599E-03
    9 C78         1.867677E-04   2.193225E-04   5.275601E-03
   10 F79         2.397806E-03  -3.959834E-03   1.714179E-03
   11 H80        -2.830334E-04   9.566862E-04   7.003234E-04
   12 H81        -1.088841E-03  -3.861716E-04   1.282286E-03
   13 H82         6.491549E-04   3.691595E-04  -2.965127E-04
   14 H83         7.512533E-04   1.551402E-04  -6.162947E-04
   15 C3          2.663216E-01  -3.324024E-03  -9.812361E-02
   16 C4         -1.480759E-01   2.580035E-01  -9.479690E-02
   17 C5         -1.263029E-01  -2.653078E-01  -9.288135E-02
   18 C6         -4.273677E-03  -7.082432E-03   6.011737E-02
   19 C7          1.541674E-02   1.513382E-02   1.285169E-02
   20 C8          2.670861E-02  -4.343503E-03  -1.464629E-02
   21 C9          2.855815E-02  -1.688304E-02  -1.124866E-02
   22 C10         2.092794E-02  -5.689695E-03  -1.091337E-03
   23 C11        -2.621871E-03  -1.719223E-02   4.131661E-03
   24 C12         1.777938E-02   7.696674E-03  -6.219920E-02
   25 C13         1.792578E-02   1.028290E-03  -4.184306E-03
   26 C14        -3.669605E-03   4.921984E-04  -3.540801E-04
   27 C15        -1.859086E-03   1.546065E-03   5.224894E-04
   28 C16         3.570599E-02   3.765038E-03  -2.555232E-02
   29 C17         7.366232E-03   2.713387E-02  -2.713490E-03
   30 C18        -2.312480E-02   2.282746E-02  -1.664322E-02
   31 C19        -2.568609E-02   1.882012E-02   8.220150E-03
   32 C20        -2.227239E-02  -1.505227E-02   8.538473E-04
   33 C21         1.456225E-03  -3.015861E-02   1.670464E-03
   34 C22        -8.165245E-03  -2.662300E-02  -2.507121E-02
   35 H23        -4.114726E-03  -6.963889E-03  -1.124925E-02
   36 H24        -5.121585E-03  -6.171079E-03  -8.795546E-03
   37 H25         3.048513E-03   2.914929E-04  -1.066957E-02
   38 H26         1.125458E-03   9.784747E-03  -6.974261E-03
   39 H27         5.660555E-03   7.975256E-03  -5.476828E-03
   40 H28        -9.914128E-03  -1.338939E-03   1.153611E-02
   41 H29        -8.009901E-03  -8.930822E-04   8.301252E-03
   42 H30        -1.534984E-03  -1.637222E-03   1.037356E-02
   43 H31         2.221738E-02  -1.106155E-03   1.225470E-02
   44 H32        -1.020137E-02   4.673803E-03   9.859143E-03
   45 H33         9.561530E-05  -1.093909E-02   4.308681E-03
   46 H34        -5.824678E-03  -3.044515E-03  -1.040829E-02
   47 H35        -1.688278E-02   9.618192E-03   7.768967E-03
   48 H36         8.215423E-03   1.493560E-02  -1.336751E-03
   49 H37         5.565360E-03  -6.766861E-03   5.837248E-03
   50 H38        -5.419833E-03  -2.628045E-03  -2.245457E-02
   51 H39         5.041254E-03  -6.642983E-03  -2.498007E-03
   52 H40         1.067230E-02   1.631660E-02   2.068336E-03
   53 H41         3.602802E-03  -2.752172E-03  -1.069404E-02
   54 H42         5.105739E-03  -1.357331E-02   6.802529E-03
   55 H43         7.276374E-03   7.698817E-03   2.337326E-04
   56 H44        -2.543228E-03   1.411332E-03  -1.287397E-02
   57 H45         1.491322E-03   9.500477E-03  -1.614444E-03
   58 H46        -1.491097E-02  -1.171228E-03  -8.291495E-05
   59 H47         8.605377E-03  -2.304896E-02   6.129825E-03
   60 H48        -1.461637E-02  -3.767306E-03   4.372170E-03
   61 H49         3.024901E-03   7.355145E-03   6.015691E-03
 -------------   -------------  -------------  -------------
     total        4.206450E-04  -1.699899E-03  -3.756673E-05
   
  end of program der1b
   
 Time(der1b)  user:     129.636  user+sys:     129.636  wallclock:      69.350
  
  start of program geopt
  
 ----------------------------------------------------------------------------
  Geometry optimization step  1
  Total energy:     -1589.87108648189 hartrees
 ----------------------------------------------------------------------------
  
  Hessian eigenvalues: 
    0.00000E+00    0.00000E+00    0.00000E+00    0.00000E+00    0.00000E+00
    0.00000E+00    0.00000E+00    0.00000E+00    0.00000E+00    0.00000E+00
    0.00000E+00    0.00000E+00    0.00000E+00    0.00000E+00    0.00000E+00
    0.00000E+00    0.00000E+00    0.00000E+00    0.00000E+00    0.00000E+00
    0.00000E+00    0.00000E+00    0.00000E+00    0.00000E+00    0.00000E+00
    0.00000E+00    0.00000E+00    0.00000E+00    0.00000E+00    0.00000E+00
    0.00000E+00    6.89976E-03    1.64695E-02    1.94506E-02    2.07255E-02
    2.08151E-02    2.12727E-02    2.47393E-02    2.56771E-02    2.62323E-02
    3.07555E-02    3.18662E-02    3.42010E-02    3.62873E-02    3.67955E-02
    4.06072E-02    4.71526E-02    4.89715E-02    5.19961E-02    6.67543E-02
    6.97253E-02    7.24588E-02    7.30478E-02    7.34634E-02    7.45801E-02
    7.48649E-02    7.91919E-02    8.18650E-02    9.76374E-02    1.08491E-01
    1.22301E-01    1.25190E-01    1.28628E-01    1.29159E-01    1.30822E-01
    1.31168E-01    1.32494E-01    1.33993E-01    1.38422E-01    1.39237E-01
    1.44295E-01    1.48474E-01    1.50191E-01    1.51481E-01    1.57034E-01
    1.63487E-01    1.67695E-01    1.74891E-01    1.75950E-01    1.95660E-01
    1.99733E-01    2.00461E-01    2.00880E-01    2.07595E-01    2.11822E-01
    2.13820E-01    2.17095E-01    2.19623E-01    2.23879E-01    2.30064E-01
    2.33051E-01    2.33289E-01    2.33945E-01    2.34408E-01    2.34737E-01
    2.35511E-01    2.40683E-01    2.40773E-01    2.41083E-01    2.41297E-01
    2.43694E-01    2.45582E-01    2.46001E-01    2.56757E-01    2.69787E-01
    2.72422E-01    2.76605E-01    2.79615E-01    2.85898E-01    2.90464E-01
    2.96961E-01    3.04990E-01    3.06800E-01    3.15182E-01    3.15225E-01
    3.15248E-01    3.15259E-01    3.15295E-01    3.15350E-01    3.15383E-01
    3.15396E-01    3.15492E-01    3.15506E-01    3.16359E-01    3.17062E-01
    3.17207E-01    3.17386E-01    3.17586E-01    3.18477E-01    3.18852E-01
    3.20298E-01    3.20365E-01    3.21875E-01    3.24791E-01    3.25905E-01
    3.25979E-01    3.25983E-01    3.26440E-01    3.26789E-01    3.33644E-01
    3.34406E-01    3.35583E-01    3.37294E-01    3.40863E-01    3.42425E-01
    3.43027E-01    3.44859E-01    3.45061E-01    3.46758E-01    3.46963E-01
    3.47675E-01    3.48003E-01    3.48332E-01    3.49256E-01    3.51202E-01
    3.52090E-01    3.53084E-01    3.53673E-01    3.54878E-01    3.57502E-01
    3.59293E-01    3.61404E-01    3.63247E-01    3.68471E-01    3.69650E-01
    3.69783E-01    3.74820E-01    3.76511E-01    3.78926E-01    3.80498E-01
    3.81170E-01    3.81335E-01    3.81482E-01    3.82897E-01    3.83901E-01
    3.87521E-01    3.94244E-01    4.00291E-01    4.05978E-01    4.06623E-01
    4.10923E-01    4.17876E-01    4.19962E-01    4.26902E-01    4.27773E-01
    4.38342E-01    4.62246E-01    4.69262E-01    4.72900E-01    4.80598E-01
    5.18000E-01    5.25062E-01    5.32396E-01    5.34165E-01    5.34309E-01
    5.58914E-01    6.00086E-01    6.31501E-01    6.78542E-01    6.88327E-01
    6.91029E-01    7.19669E-01    7.44957E-01    8.20527E-01    8.69253E-01
    1.31625E+00    1.38822E+00    8.02514E+00
  
 WARNING: Hessian has wrong number of negative eigenvalues:           0
  
  TS search will follow eigenvector  32 on this iteration
  
  Selected vector:  eigenvalue     6.89976E-03

 32)  Br3-Pd2-P1-C3( 36) -0.60756
      Br3-Pd2-P1-C4( 37) -0.59899
      C76-Pd2-P1-C3( 70) -0.43395
  
  
  Level shifts adjusted to satisfy step-size constraints
   Step size:    0.1003284
   Cos(theta):   0.9645268
   Final level shift:  -9.4970281E+00
  
  gradient maximum:        5.3020E-01 .  (  2.2500E-03 )
  gradient rms:            9.2075E-02 .  (  1.5000E-03 )
  displacement maximum:    4.1945E-02 .  (  9.0000E-03 )
  displacement rms:        6.9522E-03 .  (  6.0000E-03 )
  
  predicted energy change:  -1.1197E-01
  step size:     0.10027
  trust radius:  0.10000
  
  molecular structure not yet converged...
  
  center of mass moved by:
     x:    -8.8942E-02     y:     6.6235E-03     z:     2.3495E-02
  
  new geometry: 
                                   angstroms
  atom               x                 y                 z
  P1            0.0318851133     -0.0022854223      0.0147798908 
  Pd2          -0.0512773922      0.0071509427      2.3689613800 
  Br3           0.6323998472      0.0085256807      5.0512694075 
  C73          -1.5392632782      3.7702237106      2.9305265687 
  C74          -0.1521580666      3.6923084687      2.8821455362 
  C75           0.4751058020      2.5363512653      3.3369446431 
  C76          -0.3210938069      1.4580977177      3.7735802798 
  C77          -1.7180299742      1.5836176692      3.9017879327 
  C78          -2.3303501836      2.7506416888      3.4413947615 
  F79          -2.1422172453      4.8887793233      2.4603297589 
  H80           0.4205925236      4.5130915654      2.4633805063 
  H81           1.5545603510      2.4441230384      3.3062398167 
  H82          -2.3036708919      0.7797337125      4.3345797514 
  H83          -3.4094690531      2.8714309518      3.4744388133 
  C3            1.4599653952     -0.0144245181     -0.5120233105 
  C4           -0.6655913287      1.2474069011     -0.5023119295 
  C5           -0.6012196627     -1.2837231413     -0.5063997406 
  C6            2.8510720769     -0.5192820529      1.6105432580 
  C7            3.3545671514      0.4515772175      2.5137314475 
  C8            3.5602949305      0.2289099611      3.8835645819 
  C9            3.2719218855     -1.0146371027      4.4510558199 
  C10           2.7808550722     -2.0141803724      3.6088226123 
  C11           2.5827264205     -1.7553866597      2.2435256564 
  C12           2.6761893009     -0.2518290706      0.2085466228 
  C13           3.8455578832     -0.2104713479     -0.5945929447 
  C14           3.8753555114      0.0318366934     -1.9734152261 
  C15           2.6794466728      0.2543054188     -2.6497859522 
  C16           1.5021400801      0.2242533716     -1.9007716044 
  C17           0.3248554104      2.4328433313     -0.4509009503 
  C18          -1.3301505779      1.2532902252     -1.8980204372 
  C19          -1.7941362906      1.5944599426      0.4979849111 
  C20          -2.0959272806     -1.3840195257     -0.1360982526 
  C21           0.1077047488     -2.4426609107      0.2328981115 
  C22          -0.4577826616     -1.5951864592     -2.0119804202 
  H23           3.6225338824      1.4711881340      2.2127434099 
  H24           3.9561818158      1.0347712806      4.5244267300 
  H25           3.4294360685     -1.2039683639      5.5256480056 
  H26           2.5435778663     -3.0060842849      4.0291103586 
  H27           2.1894326432     -2.6190726143      1.7104725345 
  H28           4.8531639744     -0.3701028841     -0.1949137579 
  H29           4.8300973474      0.0474962125     -2.5259250374 
  H30           2.6656694806      0.4465461866     -3.7355327116 
  H31           0.5839306905      0.4058493163     -2.4663678312 
  H32           1.1432828134      2.3229535166     -1.1950197758 
  H33          -0.1784741237      3.4009113340     -0.6728995612 
  H34           0.7965013196      2.5273491163      0.5534440514 
  H35          -0.6160920728      1.1096529875     -2.7336023278 
  H36          -2.1297154239      0.4886165592     -1.9847794459 
  H37          -1.8221437923      2.2319390390     -2.0974003690 
  H38          -1.4022178251      1.6997291355      1.5345489466 
  H39          -2.2988141281      2.5536065615      0.2415977683 
  H40          -2.5829692355      0.8116698444      0.5228360724 
  H41          -2.2571768505     -1.2001220902      0.9501810549 
  H42          -2.7150486530     -0.6547946740     -0.6994768340 
  H43          -2.5099287096     -2.3917312825     -0.3660201865 
  H44          -0.0127455918     -2.3578041647      1.3366848984 
  H45          -0.2984046608     -3.4355075500     -0.0662932687 
  H46           1.1997736937     -2.4586911825      0.0172434961 
  H47          -0.9055185268     -0.8117405763     -2.6560559826 
  H48           0.6047139798     -1.7298619081     -2.3095690711 
  H49          -0.9723404868     -2.5470702104     -2.2741255041 
   
 
  bond lengths (angstroms):
 
 P1      -Pd2     :   2.355669      P1      -C3      :   1.522197
 P1      -C4      :   1.521706      P1      -C5      :   1.521359
 Pd2     -Br3     :   2.768067      Pd2     -C76     :   2.037401
 Br3     -C76     :   2.154739      C73     -C74     :   1.390134
 C73     -C78     :   1.387931      C73     -F79     :   1.354919
 C74     -C75     :   1.391596      C74     -H80     :   1.084939
 C75     -C76     :   1.409686      C75     -H81     :   1.083822
 C76     -C77     :   1.408412      C77     -C78     :   1.396010
 C77     -H82     :   1.084672      C78     -H83     :   1.086361
 C3      -C12     :   1.433451      C3      -C16     :   1.409740
 C4      -C17     :   1.545603      C4      -C18     :   1.545858
 C4      -C19     :   1.547467      C5      -C20     :   1.543157
 C5      -C21     :   1.546697      C5      -C22     :   1.544136
 C6      -C7      :   1.418388      C6      -C11     :   1.414437
 C6      -C12     :   1.437953      C7      -C8      :   1.402978
 C7      -H23     :   1.096361      C8      -C9      :   1.397002
 C8      -H24     :   1.103106      C9      -C10     :   1.396277
 C9      -H25     :   1.102454      C10     -C11     :   1.403661
 C10     -H26     :   1.103094      C11     -H27     :   1.088476
 C12     -C13     :   1.419213      C13     -C14     :   1.400269
 C13     -H28     :   1.095671      C14     -C15     :   1.391822
 C14     -H29     :   1.103197      C15     -C16     :   1.395699
 C15     -H30     :   1.102720      C16     -H31     :   1.093611
 C17     -H32     :   1.111581      C17     -H33     :   1.113454
 C17     -H34     :   1.113593      C18     -H35     :   1.108471
 C18     -H36     :   1.109755      C18     -H37     :   1.113357
 C19     -H38     :   1.113170      C19     -H39     :   1.113731
 C19     -H40     :   1.111591      C20     -H41     :   1.113473
 C20     -H42     :   1.110169      C20     -H43     :   1.113438
 C21     -H44     :   1.113577      C21     -H45     :   1.113636
 C21     -H46     :   1.113274      C22     -H47     :   1.108642
 C22     -H48     :   1.111573      C22     -H49     :   1.113361
 
  bond angles:
 
 C3      -P1      -Pd2     : 112.272667  C4      -P1      -Pd2     : 108.670491
 C4      -P1      -C3      : 108.600005  C5      -P1      -Pd2     : 109.332014
 C5      -P1      -C3      : 105.375189  C5      -P1      -C4      : 112.617765
 Br3     -Pd2     -P1      : 163.676346  C76     -Pd2     -P1      : 134.147654
 C76     -Pd2     -Br3     :  50.527875  C76     -Br3     -Pd2     :  46.877818
 C78     -C73     -C74     : 122.708861  F79     -C73     -C74     : 118.570188
 F79     -C73     -C78     : 118.720922  C75     -C74     -C73     : 119.009398
 H80     -C74     -C73     : 119.853987  H80     -C74     -C75     : 121.105236
 C76     -C75     -C74     : 118.816882  H81     -C75     -C74     : 120.687962
 H81     -C75     -C76     : 120.412144  Br3     -C76     -Pd2     :  82.594306
 C75     -C76     -Pd2     : 104.855500  C75     -C76     -Br3     : 116.634789
 C77     -C76     -Pd2     : 104.926444  C77     -C76     -Br3     : 116.415808
 C77     -C76     -C75     : 121.347800  C78     -C77     -C76     : 118.654719
 H82     -C77     -C76     : 120.384209  H82     -C77     -C78     : 120.952749
 C77     -C78     -C73     : 119.044919  H83     -C78     -C73     : 119.715488
 H83     -C78     -C77     : 121.239441  C12     -C3      -P1      : 128.561265
 C16     -C3      -P1      : 111.570408  C16     -C3      -C12     : 119.858099
 C17     -C4      -P1      : 108.956530  C18     -C4      -P1      : 120.462501
 C18     -C4      -C17     : 107.613691  C19     -C4      -P1      : 107.385206
 C19     -C4      -C17     : 105.892056  C19     -C4      -C18     : 105.619792
 C20     -C5      -P1      : 112.062511  C21     -C5      -P1      : 106.060273
 C21     -C5      -C20     : 106.293499  C22     -C5      -P1      : 117.727223
 C22     -C5      -C20     : 108.109685  C22     -C5      -C21     : 105.803242
 C11     -C6      -C7      : 112.368536  C12     -C6      -C7      : 122.459944
 C12     -C6      -C11     : 125.155471  C8      -C7      -C6      : 124.412416
 H23     -C7      -C6      : 123.264916  H23     -C7      -C8      : 112.321789
 C9      -C8      -C7      : 120.506198  H24     -C8      -C7      : 120.259541
 H24     -C8      -C9      : 119.233822  C10     -C9      -C8      : 117.696938
 H25     -C9      -C8      : 121.287537  H25     -C9      -C10     : 121.015110
 C11     -C10     -C9      : 120.289623  H26     -C10     -C9      : 119.309840
 H26     -C10     -C11     : 120.399024  C10     -C11     -C6      : 124.724446
 H27     -C11     -C6      : 122.876570  H27     -C11     -C10     : 112.398513
 C6      -C12     -C3      : 128.616531  C13     -C12     -C3      : 114.191999
 C13     -C12     -C6      : 117.191461  C14     -C13     -C12     : 125.437455
 H28     -C13     -C12     : 123.165072  H28     -C13     -C14     : 111.397429
 C15     -C14     -C13     : 119.202165  H29     -C14     -C13     : 120.932508
 H29     -C14     -C15     : 119.865313  C16     -C15     -C14     : 117.422811
 H30     -C15     -C14     : 121.136666  H30     -C15     -C16     : 121.440522
 C15     -C16     -C3      : 123.886431  H31     -C16     -C3      : 120.828921
 H31     -C16     -C15     : 115.284161  H32     -C17     -C4      : 111.945628
 H33     -C17     -C4      : 111.747681  H33     -C17     -H32     : 106.577363
 H34     -C17     -C4      : 111.499757  H34     -C17     -H32     : 107.475780
 H34     -C17     -H33     : 107.306922  H35     -C18     -C4      : 113.776579
 H36     -C18     -C4      : 112.191157  H36     -C18     -H35     : 108.415527
 H37     -C18     -C4      : 110.793634  H37     -C18     -H35     : 105.282292
 H37     -C18     -H36     : 105.860331  H38     -C19     -C4      : 111.491980
 H39     -C19     -C4      : 112.012304  H39     -C19     -H38     : 107.005393
 H40     -C19     -C4      : 111.965607  H40     -C19     -H38     : 107.194956
 H40     -C19     -H39     : 106.860450  H41     -C20     -C5      : 111.323842
 H42     -C20     -C5      : 112.067970  H42     -C20     -H41     : 107.808158
 H43     -C20     -C5      : 111.679833  H43     -C20     -H41     : 107.282434
 H43     -C20     -H42     : 106.399742  H44     -C21     -C5      : 111.537326
 H45     -C21     -C5      : 111.867720  H45     -C21     -H44     : 107.145060
 H46     -C21     -C5      : 111.580918  H46     -C21     -H44     : 107.410235
 H46     -C21     -H45     : 107.028264  H47     -C22     -C5      : 112.730497
 H48     -C22     -C5      : 111.978722  H48     -C22     -H47     : 108.428080
 H49     -C22     -C5      : 111.044682  H49     -C22     -H47     : 106.304346
 H49     -C22     -H48     : 105.970394
 
  torsional angles:
 
 P1      -Pd2     -Br3     -C76     : 113.476761
 P1      -Pd2     -C76     -Br3     :-158.944302
 P1      -Pd2     -C76     -C75     : -43.271627
 P1      -Pd2     -C76     -C77     :  85.610845
 P1      -C3      -C12     -C6      :  -0.939982
 P1      -C3      -C12     -C13     : 179.094655
 P1      -C3      -C16     -C15     :-179.284444
 P1      -C3      -C16     -H31     :   0.981727
 P1      -C4      -C17     -H32     :  69.124831
 P1      -C4      -C17     -H33     :-171.409578
 P1      -C4      -C17     -H34     : -51.318690
 P1      -C4      -C18     -H35     : -63.665290
 P1      -C4      -C18     -H36     :  59.875642
 P1      -C4      -C18     -H37     : 177.950173
 P1      -C4      -C19     -H38     :  54.976994
 P1      -C4      -C19     -H39     : 174.858897
 P1      -C4      -C19     -H40     : -65.115253
 P1      -C5      -C20     -H41     : -50.456949
 P1      -C5      -C20     -H42     :  70.374628
 P1      -C5      -C20     -H43     :-170.349614
 P1      -C5      -C21     -H44     :  59.006305
 P1      -C5      -C21     -H45     : 178.998805
 P1      -C5      -C21     -H46     : -61.127844
 P1      -C5      -C22     -H47     : -60.023784
 P1      -C5      -C22     -H48     :  62.569627
 P1      -C5      -C22     -H49     :-179.188477
 Pd2     -P1      -C3      -C12     :  11.916838
 Pd2     -P1      -C3      -C16     :-169.265458
 Pd2     -P1      -C4      -C17     :  82.452696
 Pd2     -P1      -C4      -C18     :-152.572896
 Pd2     -P1      -C4      -C19     : -31.810593
 Pd2     -P1      -C5      -C20     :  62.921430
 Pd2     -P1      -C5      -C21     : -52.653943
 Pd2     -P1      -C5      -C22     :-170.784046
 Pd2     -Br3     -C76     -C75     :-102.946688
 Pd2     -Br3     -C76     -C77     : 103.029988
 Pd2     -C76     -C75     -C74     : 110.918317
 Pd2     -C76     -C75     -H81     : -65.791614
 Pd2     -C76     -C77     -C78     :-110.904660
 Pd2     -C76     -C77     -H82     :  68.055873
 Br3     -Pd2     -P1      -C3      :  -0.282702
 Br3     -Pd2     -P1      -C4      :-120.429623
 Br3     -Pd2     -P1      -C5      : 116.289343
 Br3     -Pd2     -C76     -C75     : 115.672675
 Br3     -Pd2     -C76     -C77     :-115.444853
 Br3     -C76     -C75     -C74     :-160.007306
 Br3     -C76     -C75     -H81     :  23.282764
 Br3     -C76     -C77     -C78     : 160.042307
 Br3     -C76     -C77     -H82     : -20.997160
 C73     -C74     -C75     -C76     :   2.932712
 C73     -C74     -C75     -H81     : 179.633270
 C73     -C78     -C77     -C76     :  -2.909729
 C73     -C78     -C77     -H82     : 178.135874
 C74     -C73     -C78     -C77     :  -1.395271
 C74     -C73     -C78     -H83     : 178.744690
 C74     -C75     -C76     -C77     :  -7.350685
 C75     -C74     -C73     -C78     :   1.384876
 C75     -C74     -C73     -F79     :-178.677991
 C75     -C76     -C77     -C78     :   7.329235
 C75     -C76     -C77     -H82     :-173.710232
 C76     -Pd2     -P1      -C3      :  99.057237
 C76     -Pd2     -P1      -C4      : -21.089683
 C76     -Pd2     -P1      -C5      :-144.370718
 C76     -C75     -C74     -H80     :-175.026546
 C76     -C77     -C78     -H83     : 176.948102
 C77     -C76     -C75     -H81     : 175.939385
 C77     -C78     -C73     -F79     : 178.667687
 C78     -C73     -C74     -H80     : 179.370208
 F79     -C73     -C74     -H80     :  -0.692659
 F79     -C73     -C78     -H83     :  -1.192353
 H80     -C74     -C75     -H81     :   1.674012
 H82     -C77     -C78     -H83     :  -2.006295
 C3      -P1      -C4      -C17     : -39.947824
 C3      -P1      -C4      -C18     :  85.026583
 C3      -P1      -C4      -C19     :-154.211114
 C3      -P1      -C5      -C20     :-176.212026
 C3      -P1      -C5      -C21     :  68.212601
 C3      -P1      -C5      -C22     : -49.917503
 C3      -C12     -C6      -C7      :-105.208820
 C3      -C12     -C6      -C11     :  76.361313
 C3      -C12     -C13     -C14     :  -0.175469
 C3      -C12     -C13     -H28     : 179.908551
 C3      -C16     -C15     -C14     :   0.102740
 C3      -C16     -C15     -H30     :-179.901793
 C4      -P1      -C3      -C12     : 132.104652
 C4      -P1      -C3      -C16     : -49.077644
 C4      -P1      -C5      -C20     : -57.987833
 C4      -P1      -C5      -C21     :-173.563206
 C4      -P1      -C5      -C22     :  68.306691
 C5      -P1      -C3      -C12     :-107.006210
 C5      -P1      -C3      -C16     :  71.811494
 C5      -P1      -C4      -C17     :-156.260386
 C5      -P1      -C4      -C18     : -31.285978
 C5      -P1      -C4      -C19     :  89.476324
 C6      -C7      -C8      -C9      :   0.236013
 C6      -C7      -C8      -H24     : 179.992842
 C6      -C11     -C10     -C9      :   0.233327
 C6      -C11     -C10     -H26     : 179.782665
 C6      -C12     -C3      -C16     :-179.672189
 C6      -C12     -C13     -C14     : 179.854957
 C6      -C12     -C13     -H28     :  -0.061023
 C7      -C6      -C11     -C10     :   0.157180
 C7      -C6      -C11     -H27     : 179.888226
 C7      -C6      -C12     -C13     :  74.755659
 C7      -C8      -C9      -C10     :   0.182027
 C7      -C8      -C9      -H25     : 179.949857
 C8      -C7      -C6      -C11     :  -0.390324
 C8      -C7      -C6      -C12     :-179.002179
 C8      -C9      -C10     -C11     :  -0.401462
 C8      -C9      -C10     -H26     :-179.955690
 C9      -C8      -C7      -H23     : 179.903951
 C9      -C10     -C11     -H27     :-179.522363
 C10     -C9      -C8      -H24     :-179.577277
 C10     -C11     -C6      -C12     : 178.724587
 C11     -C6      -C7      -H23     : 179.977052
 C11     -C6      -C12     -C13     :-103.674208
 C11     -C10     -C9      -H25     : 179.830041
 C12     -C3      -C16     -C15     :  -0.350415
 C12     -C3      -C16     -H31     : 179.915757
 C12     -C6      -C7      -H23     :   1.365197
 C12     -C6      -C11     -H27     :  -1.544367
 C12     -C13     -C14     -C15     :  -0.057567
 C12     -C13     -C14     -H29     : 179.986610
 C13     -C12     -C3      -C16     :   0.362448
 C13     -C14     -C15     -C16     :   0.099761
 C13     -C14     -C15     -H30     :-179.895721
 C14     -C15     -C16     -H31     : 179.849963
 C15     -C14     -C13     -H28     : 179.866894
 C16     -C15     -C14     -H29     :-179.943936
 C17     -C4      -C18     -H35     :  61.936101
 C17     -C4      -C18     -H36     :-174.522967
 C17     -C4      -C18     -H37     : -56.448435
 C17     -C4      -C19     -H38     : -61.322910
 C17     -C4      -C19     -H39     :  58.558993
 C17     -C4      -C19     -H40     : 178.584843
 C18     -C4      -C17     -H32     : -63.055162
 C18     -C4      -C17     -H33     :  56.410429
 C18     -C4      -C17     -H34     : 176.501317
 C18     -C4      -C19     -H38     :-175.294604
 C18     -C4      -C19     -H39     : -55.412701
 C18     -C4      -C19     -H40     :  64.613149
 C19     -C4      -C17     -H32     :-175.643795
 C19     -C4      -C17     -H33     : -56.178203
 C19     -C4      -C17     -H34     :  63.912684
 C19     -C4      -C18     -H35     : 174.708545
 C19     -C4      -C18     -H36     : -61.750523
 C19     -C4      -C18     -H37     :  56.324009
 C20     -C5      -C21     -H44     : -60.424791
 C20     -C5      -C21     -H45     :  59.567710
 C20     -C5      -C21     -H46     : 179.441061
 C20     -C5      -C22     -H47     :  68.172489
 C20     -C5      -C22     -H48     :-169.234100
 C20     -C5      -C22     -H49     : -50.992205
 C21     -C5      -C20     -H41     :  64.976608
 C21     -C5      -C20     -H42     :-174.191815
 C21     -C5      -C20     -H43     : -54.916058
 C21     -C5      -C22     -H47     :-178.290732
 C21     -C5      -C22     -H48     : -55.697321
 C21     -C5      -C22     -H49     :  62.544575
 C22     -C5      -C20     -H41     : 178.187080
 C22     -C5      -C20     -H42     : -60.981343
 C22     -C5      -C20     -H43     :  58.294415
 C22     -C5      -C21     -H44     :-175.214847
 C22     -C5      -C21     -H45     : -55.222346
 C22     -C5      -C21     -H46     :  64.651005
 H23     -C7      -C8      -H24     :  -0.339220
 H24     -C8      -C9      -H25     :   0.190553
 H25     -C9      -C10     -H26     :   0.275813
 H26     -C10     -C11     -H27     :   0.026975
 H28     -C13     -C14     -H29     :  -0.088929
 H29     -C14     -C15     -H30     :   0.060582
 H30     -C15     -C16     -H31     :  -0.154570
 
  nuclear repulsion energy.......          3746.968204466 hartrees
 -------------------------------------------------
   end of geometry optimization iteration  1
 -------------------------------------------------
   
  end of program geopt
   
 Time(geopt)  user:       0.700  user+sys:       0.700  wallclock:       0.784
  
  start of program onee
  
  smallest eigenvalue of S:    3.869E-04
  number of canonical orbitals.....          496
  end of program onee
   
 Time(onee)  user:       6.311  user+sys:       6.311  wallclock:       4.816
  
  start of program probe
  
  end of program probe
   
 Time(probe)  user:       0.512  user+sys:       0.512  wallclock:       0.455
  
  start of program grid
  
  end of program grid
   
 Time(grid)  user:     195.297  user+sys:     195.297  wallclock:     100.257
  
  start of program rwr
  
  end of program rwr
   
 Time(rwr)  user:      15.627  user+sys:      15.627  wallclock:      19.536
  
  start of program scf
  
 Energy computed using pseudospectral method.
 Convergence Criterion:
    Energy (econv):       1.00E-05
    RMS density (dconv):  5.00E-06
  
       i  u  d  i  g                   
       t  p  i  c  r                                 RMS    maximum
       e  d  i  u  i                       energy  density   DIIS  
       r  t  s  t  d       total energy    change  change    error 
  
etot    1  N  N  2  U   -1589.81807614834           1.5E-03  1.7E-02
etot    2  Y  Y  6  M   -1589.84076555826  2.3E-02  2.2E-04  1.7E-03
etot    3  N  Y  2  U   -1589.84064642738 -1.2E-04  1.0E-04  3.7E-03
etot    4  Y  Y  6  M   -1589.84220899943  1.6E-03  3.6E-05  1.1E-03
etot    5  N  Y  2  U   -1589.84229609312  8.7E-05  1.8E-05  4.8E-04
etot    6  N  Y  2  U   -1589.84233057086  3.4E-05  6.9E-06  1.1E-04
etot    7  N  Y  2  U   -1589.84233440258  3.8E-06  2.9E-06  3.7E-05
etot    8  N  N  2  U   -1589.84233504826  6.5E-07  0.0E+00  0.0E+00
 
  Computing the dispersion energy correction and its gradients...
  
  
 Energy components, in hartrees:
   (A)  Nuclear repulsion............    3746.96820446595
   (E)  Total one-electron terms.....   -9685.69682414458
   (F)    Electron-nuclear...........  -11180.86074785978
   (H)    Kinetic....................    1495.16392371520
   (I)  Total two-electron terms.....    4348.88628463036
   (J)    Coulomb....................    4550.82202647443
   (K)    Exchange+Correlation.......    -201.93574184407
   (L)  Electronic energy............   -5336.81053951421  (E+I)
   (N0) D3 correction................      -0.12326537750
   (N)  Total energy.................   -1589.96560042576  (A+L+N0)
   (O)  Gas phase energy.............   -1589.96560042576
  
 SCFE: SCF energy: DFT(b3pw91-d3)     -1589.96560042576 hartrees   iterations:   8
  
 
 HOMO energy:    -0.14904
 LUMO energy:    -0.04337
 
  Orbital energies (hartrees): 
   -76.98702   -24.68048   -10.24678   -10.22962   -10.20291   -10.18945
   -10.18668   -10.18342   -10.18291   -10.18223   -10.18200   -10.18000
   -10.17668   -10.17510   -10.17477   -10.17426   -10.17236   -10.17089
   -10.16987   -10.16939   -10.16851   -10.16827   -10.16766   -10.16409
   -10.16358   -10.16279   -10.16139   -10.15152    -6.52113    -4.67762
    -4.67716    -4.67279    -3.27020    -2.00740    -1.98988    -1.98423
    -1.21131    -0.91425    -0.86874    -0.86717    -0.84743    -0.82630
    -0.79009    -0.77665    -0.76804    -0.76065    -0.73943    -0.73400
    -0.71578    -0.70925    -0.69911    -0.68773    -0.68635    -0.68036
    -0.63394    -0.62570    -0.61556    -0.60089    -0.59643    -0.58713
    -0.58600    -0.54557    -0.53905    -0.51339    -0.50265    -0.49119
    -0.48630    -0.48456    -0.48247    -0.47268    -0.46914    -0.45965
    -0.45566    -0.45184    -0.44741    -0.44450    -0.44177    -0.43464
    -0.43333    -0.42919    -0.41197    -0.40487    -0.40162    -0.40068
    -0.39503    -0.39411    -0.39193    -0.38329    -0.37802    -0.37239
    -0.37035    -0.36978    -0.36528    -0.36182    -0.35729    -0.35414
    -0.34572    -0.34428    -0.34250    -0.33718    -0.33292    -0.32755
    -0.31684    -0.30620    -0.29378    -0.28309    -0.27728    -0.26829
    -0.26557    -0.25619    -0.25250    -0.24499    -0.23367    -0.21251
    -0.20243    -0.20012    -0.18422    -0.14904    -0.04337    -0.04052
    -0.02313    -0.01467    -0.00471     0.00168     0.00759     0.03123
     0.05232     0.06025
 
  end of program scf
   
 Time(scf)  user:     314.879  user+sys:     314.879  wallclock:     170.276
  
  start of program der1a
  
  end of program der1a
   
 Time(der1a)  user:      19.902  user+sys:      19.902  wallclock:      10.754
  
  start of program rwr
  
  end of program rwr
   
 Time(rwr)  user:      16.465  user+sys:      16.465  wallclock:      21.282
  
  start of program der1b
  
   
  forces (hartrees/bohr) : total     
   
 atom  label           x              y              z
 ---- --------   -------------  -------------  -------------
    1 P1          7.746663E-03   8.515989E-04   2.798343E-01
    2 Pd2         7.190428E-03  -1.970119E-03   1.454472E-02
    3 Br3        -2.502939E-02   1.018820E-02   2.482474E-03
    4 C73        -3.828717E-03   6.713186E-03  -6.730825E-04
    5 C74         2.611499E-04  -1.770912E-03   1.176672E-03
    6 C75        -1.613889E-04   1.520047E-03   1.017666E-03
    7 C76         8.289110E-04  -8.700404E-04   9.885604E-03
    8 C77        -7.135977E-04   3.453519E-03   4.959598E-03
    9 C78         3.125093E-04   1.867436E-04   5.964433E-03
   10 F79         2.084445E-03  -3.903018E-03   1.629646E-03
   11 H80        -3.294548E-04   9.001141E-04   6.639168E-04
   12 H81        -1.685270E-04  -1.185626E-03   1.038577E-03
   13 H82         5.421369E-04   8.926719E-06  -6.682931E-04
   14 H83         8.061958E-04   6.471539E-05  -4.941576E-04
   15 C3          2.368348E-01  -5.713754E-03  -8.683531E-02
   16 C4         -1.298602E-01   2.345385E-01  -8.755273E-02
   17 C5         -1.146338E-01  -2.393056E-01  -8.458752E-02
   18 C6         -5.869734E-04  -7.089029E-03   6.284009E-02
   19 C7          9.103777E-03   1.525117E-02   5.948493E-03
   20 C8          7.703103E-03  -5.410793E-03  -2.613949E-03
   21 C9          1.020226E-02  -5.324692E-03  -3.396446E-03
   22 C10         8.468630E-03   2.742172E-03   1.482005E-03
   23 C11        -3.473857E-03  -1.605929E-02   2.286663E-03
   24 C12         1.150768E-02   8.692216E-03  -6.271219E-02
   25 C13         1.731666E-02   5.365071E-04  -4.106850E-03
   26 C14        -3.112146E-03   5.054421E-04  -6.568275E-04
   27 C15        -1.582135E-03   1.386266E-03   1.164250E-04
   28 C16         3.474111E-02   2.465584E-03  -2.415152E-02
   29 C17         9.513260E-03   2.393697E-02  -1.262919E-03
   30 C18        -2.020221E-02   1.637913E-02  -1.669918E-02
   31 C19        -2.309520E-02   1.565019E-02   7.938535E-03
   32 C20        -2.076944E-02  -1.056362E-02   1.512899E-03
   33 C21         3.449362E-03  -2.644601E-02   4.142093E-03
   34 C22        -6.419545E-03  -2.071746E-02  -2.267689E-02
   35 H23        -4.334113E-03  -6.663245E-03  -1.090859E-02
   36 H24        -4.831699E-03  -5.900122E-03  -8.452482E-03
   37 H25        -1.532393E-03   2.344265E-03  -1.016400E-02
   38 H26         9.990361E-04   9.070982E-03  -7.123468E-03
   39 H27         3.572375E-03   7.368749E-03  -6.596087E-03
   40 H28        -9.574236E-03  -1.389008E-03   1.169016E-02
   41 H29        -7.578898E-03  -8.945530E-04   8.178971E-03
   42 H30        -1.381273E-03  -1.654328E-03   1.001211E-02
   43 H31         2.135473E-02  -3.737136E-03   1.215009E-02
   44 H32        -9.773401E-03   4.161119E-03   8.918969E-03
[...]
    H30      Y    -0.00437  -0.00024   0.00032  -0.05101  -0.00053  -0.00009
    H30      Z    -0.03701  -0.00199   0.00265  -0.42736  -0.00444  -0.00073
    H31      X     0.00325   0.00014  -0.00036   0.06649   0.00151   0.00036
    H31      Y     0.00046   0.00002  -0.00004   0.00866   0.00020   0.00004
    H31      Z     0.00271   0.00010  -0.00025   0.05103   0.00110   0.00029
    H32      X     0.00018  -0.00009   0.00027  -0.00046  -0.00033  -0.00004
    H32      Y    -0.00005   0.00001  -0.00007  -0.00008   0.00007  -0.00000
    H32      Z    -0.00008   0.00006  -0.00022   0.00036   0.00024  -0.00001
    H33      X    -0.00009   0.00009  -0.00001  -0.00040  -0.00009  -0.00013
    H33      Y     0.00009  -0.00022   0.00002   0.00082   0.00024   0.00036
    H33      Z    -0.00005   0.00010  -0.00001  -0.00024  -0.00007  -0.00016
    H34      X    -0.00024   0.00000  -0.00008   0.00006   0.00008  -0.00010
    H34      Y    -0.00011   0.00005  -0.00005  -0.00002   0.00002  -0.00009
    H34      Z    -0.00108  -0.00003  -0.00009   0.00019   0.00028  -0.00015
    H35      X    -0.00047  -0.00017   0.00024  -0.00732  -0.00031  -0.00012
    H35      Y     0.00021   0.00008  -0.00010   0.00301   0.00012   0.00005
    H35      Z     0.00035   0.00015  -0.00019   0.00574   0.00027   0.00014
    H36      X    -0.00034  -0.00012   0.00004  -0.00233  -0.00019  -0.00014
    H36      Y    -0.00029  -0.00010   0.00004  -0.00228  -0.00019  -0.00015
    H36      Z    -0.00007  -0.00003   0.00001  -0.00028  -0.00001  -0.00002
    H37      X     0.00008   0.00005  -0.00001  -0.00055  -0.00011  -0.00008
    H37      Y    -0.00016  -0.00011  -0.00001   0.00152   0.00024   0.00015
    H37      Z     0.00008   0.00005  -0.00002  -0.00060  -0.00014  -0.00016
    H38      X    -0.00004   0.00040   0.00019   0.00005   0.00001   0.00093
    H38      Y     0.00001   0.00044   0.00013   0.00001  -0.00001   0.00039
    H38      Z    -0.00016   0.00092   0.00025   0.00015   0.00003   0.00194
    H39      X     0.00014   0.00033   0.00004  -0.00021  -0.00009  -0.00007
    H39      Y    -0.00029  -0.00085  -0.00013   0.00043   0.00017   0.00002
    H39      Z     0.00015   0.00055   0.00009  -0.00017  -0.00006  -0.00011
    H40      X    -0.00032  -0.00071  -0.00020  -0.00005  -0.00009  -0.00038
    H40      Y    -0.00025  -0.00061  -0.00018  -0.00007  -0.00009  -0.00036
    H40      Z    -0.00001  -0.00013  -0.00007   0.00002   0.00001  -0.00018
    H41      X    -0.00003  -0.00013   0.00001   0.00003   0.00002  -0.00004
    H41      Y     0.00004   0.00019   0.00003   0.00002   0.00000   0.00015
    H41      Z     0.00005   0.00050   0.00006  -0.00001  -0.00008   0.00037
    H42      X     0.00022   0.00015   0.00001  -0.00012   0.00016  -0.00006
    H42      Y    -0.00026  -0.00021  -0.00001   0.00019  -0.00012   0.00007
    H42      Z     0.00027   0.00024   0.00002  -0.00018   0.00012  -0.00010
    H43      X    -0.00002   0.00007  -0.00003  -0.00025  -0.00013  -0.00004
    H43      Y    -0.00002   0.00019  -0.00005  -0.00037  -0.00015  -0.00003
    H43      Z    -0.00001   0.00002  -0.00001  -0.00002  -0.00003  -0.00002
    H44      X    -0.00022   0.00000   0.00000  -0.00001  -0.00059   0.00003
    H44      Y     0.00004  -0.00003   0.00001   0.00005  -0.00007  -0.00001
    H44      Z     0.00014  -0.00001  -0.00007   0.00015  -0.00052  -0.00027
    H45      X     0.00016   0.00004  -0.00001  -0.00025  -0.00038  -0.00009
    H45      Y     0.00020   0.00008  -0.00004  -0.00047  -0.00101  -0.00021
    H45      Z     0.00007   0.00004  -0.00001  -0.00008  -0.00024  -0.00004
    H46      X     0.00002  -0.00024   0.00030  -0.00029  -0.00493   0.00006
    H46      Y    -0.00012   0.00003  -0.00003   0.00013   0.00005  -0.00001
    H46      Z    -0.00030   0.00005  -0.00005   0.00003  -0.00046  -0.00001
    H47      X     0.00010   0.00008  -0.00001  -0.00056   0.00007  -0.00002
    H47      Y    -0.00022  -0.00017   0.00002   0.00105  -0.00011   0.00006
    H47      Z     0.00023   0.00018  -0.00001  -0.00108   0.00017  -0.00004
    H48      X    -0.00014  -0.00010   0.00023  -0.00541  -0.00039   0.00007
    H48      Y     0.00004   0.00004  -0.00007   0.00152   0.00015  -0.00001
    H48      Z     0.00003   0.00002  -0.00006   0.00140   0.00013  -0.00002
    H49      X    -0.00006  -0.00002   0.00000  -0.00126  -0.00028  -0.00008
    H49      Y    -0.00005  -0.00002  -0.00001  -0.00166  -0.00041  -0.00014
    H49      Z    -0.00001   0.00001  -0.00002  -0.00006  -0.00007  -0.00005
  
  vibration #          175       176       177
                 --------- --------- ---------
  frequencies      3234.21   3243.73   3260.24
  intensities         2.30     32.20      6.83
  reduc. mass         0.57      0.86      0.88
  force const         3.53      5.36      5.54
    P1       X     0.00000  -0.00003  -0.00001
    P1       Y    -0.00002  -0.00001  -0.00001
    P1       Z    -0.00003   0.00005  -0.00013
    Pd2      X     0.00000   0.00003   0.00001
    Pd2      Y    -0.00000   0.00000  -0.00000
    Pd2      Z     0.00000   0.00000  -0.00000
    Br3      X     0.00001  -0.00000   0.00000
    Br3      Y    -0.00001  -0.00003   0.00000
    Br3      Z    -0.00000  -0.00000   0.00000
    C73      X    -0.00010  -0.00127  -0.00000
    C73      Y     0.00007   0.00082   0.00002
    C73      Z    -0.00001  -0.00010   0.00001
    C74      X     0.00088   0.01120   0.00004
    C74      Y     0.00076   0.01076   0.00004
    C74      Z     0.00050   0.00660   0.00002
    C75      X     0.00402   0.07164   0.00024
    C75      Y    -0.00217  -0.03819  -0.00013
    C75      Z     0.00038   0.00653   0.00002
    C76      X    -0.00009  -0.00158  -0.00003
    C76      Y     0.00005  -0.00092  -0.00001
    C76      Z    -0.00002  -0.00078   0.00001
    C77      X     0.00019   0.00047  -0.00001
    C77      Y     0.00010   0.00057  -0.00001
    C77      Z     0.00007   0.00022  -0.00000
    C78      X    -0.00009  -0.00105  -0.00003
    C78      Y     0.00006   0.00052   0.00001
    C78      Z    -0.00000  -0.00005  -0.00000
    F79      X     0.00000   0.00006   0.00000
    F79      Y    -0.00002  -0.00010  -0.00001
    F79      Z    -0.00000   0.00001  -0.00000
    H80      X    -0.01009  -0.12839  -0.00048
    H80      Y    -0.00702  -0.08945  -0.00034
    H80      Z    -0.00513  -0.06511  -0.00023
    H81      X    -0.04638  -0.83059  -0.00273
    H81      Y     0.02383   0.42534   0.00141
    H81      Z    -0.00484  -0.07870  -0.00023
    H82      X    -0.00242  -0.01025   0.00011
    H82      Y    -0.00153  -0.00654   0.00008
    H82      Z    -0.00105  -0.00485   0.00007
    H83      X     0.00112   0.01141   0.00029
    H83      Y    -0.00059  -0.00581  -0.00015
    H83      Z     0.00008   0.00098   0.00001
    C3       X    -0.00001   0.00001  -0.00067
    C3       Y    -0.00002  -0.00000   0.00026
    C3       Z    -0.00010  -0.00001   0.00258
    C4       X    -0.00000   0.00000   0.00017
    C4       Y     0.00003   0.00002  -0.00002
    C4       Z     0.00003   0.00000  -0.00009
    C5       X    -0.00006   0.00001   0.00009
    C5       Y    -0.00003  -0.00001  -0.00001
    C5       Z     0.00003  -0.00002  -0.00008
    C6       X    -0.00061  -0.00007  -0.00004
    C6       Y    -0.00187   0.00007  -0.00001
    C6       Z     0.00218  -0.00015   0.00003
    C7       X    -0.00074   0.00030   0.00004
    C7       Y    -0.00198   0.00071   0.00013
    C7       Z     0.00115  -0.00022  -0.00011
    C8       X    -0.00197   0.00110   0.00004
    C8       Y    -0.00364   0.00134   0.00005
    C8       Z    -0.00127   0.00006   0.00004
    C9       X    -0.00297   0.00020   0.00001
    C9       Y    -0.00178  -0.00000   0.00000
    C9       Z    -0.01032   0.00026   0.00004
    C10      X     0.01128  -0.00080  -0.00002
    C10      Y     0.03101  -0.00293  -0.00006
    C10      Z    -0.02584   0.00159   0.00004
    C11      X     0.03238  -0.00162  -0.00002
    C11      Y     0.05762  -0.00291  -0.00003
    C11      Z     0.03023  -0.00132  -0.00003
    C12      X     0.00006  -0.00002   0.00058
    C12      Y     0.00021  -0.00001   0.00006
    C12      Z    -0.00002  -0.00010   0.00038
    C13      X    -0.00019  -0.00008   0.00106
    C13      Y    -0.00007  -0.00000   0.00018
    C13      Z    -0.00038   0.00003   0.00100
    C14      X    -0.00030   0.00015   0.00238
    C14      Y    -0.00000  -0.00001   0.00015
    C14      Z     0.00022  -0.00009  -0.00007
    C15      X    -0.00003   0.00000   0.00346
    C15      Y     0.00000  -0.00000  -0.00140
    C15      Z     0.00004  -0.00002  -0.01309
    C16      X    -0.00007   0.00024  -0.06584
    C16      Y    -0.00001   0.00002  -0.00822
    C16      Z    -0.00008   0.00019  -0.04757
    C17      X     0.00003  -0.00006   0.00010
    C17      Y    -0.00001   0.00005  -0.00005
    C17      Z     0.00001   0.00004  -0.00020
    C18      X     0.00002  -0.00006   0.00334
    C18      Y    -0.00002   0.00000  -0.00042
    C18      Z    -0.00001   0.00002  -0.00212
    C19      X    -0.00001  -0.00003  -0.00009
    C19      Y     0.00001  -0.00003  -0.00005
    C19      Z    -0.00004   0.00003  -0.00016
    C20      X     0.00002  -0.00001  -0.00002
    C20      Y    -0.00001   0.00001  -0.00002
    C20      Z    -0.00003   0.00004  -0.00012
    C21      X    -0.00013  -0.00008   0.00004
    C21      Y     0.00010  -0.00003  -0.00007
    C21      Z     0.00014  -0.00001  -0.00010
    C22      X     0.00001  -0.00007   0.00281
    C22      Y    -0.00002  -0.00001  -0.00148
    C22      Z     0.00001   0.00001   0.00036
    H23      X     0.00664  -0.00255  -0.00046
    H23      Y     0.01777  -0.00666  -0.00122
    H23      Z    -0.01353   0.00538   0.00096
    H24      X     0.02026  -0.00808  -0.00040
    H24      Y     0.03572  -0.01319  -0.00068
    H24      Z     0.01696  -0.00629  -0.00039
    H25      X     0.02370   0.00160  -0.00010
    H25      Y     0.00378  -0.00078  -0.00001
    H25      Z     0.10734   0.00070  -0.00044
    H26      X    -0.13156   0.01010   0.00026
    H26      Y    -0.34680   0.02781   0.00068
    H26      Z     0.26616  -0.02076  -0.00055
    H27      X    -0.36975   0.01825   0.00008
    H27      Y    -0.65919   0.03271   0.00021
    H27      Z    -0.33028   0.01658   0.00017
    H28      X     0.00271   0.00100  -0.01134
    H28      Y     0.00049   0.00015  -0.00157
    H28      Z     0.00217   0.00047  -0.00841
    H29      X     0.00377  -0.00176  -0.01879
    H29      Y     0.00009  -0.00000  -0.00042
    H29      Z    -0.00181   0.00084   0.00705
    H30      X    -0.00001   0.00002  -0.01394
    H30      Y    -0.00007   0.00009   0.01536
    H30      Z    -0.00054   0.00040   0.13069
    H31      X     0.00074  -0.00268   0.76100
    H31      Y     0.00004  -0.00030   0.09507
    H31      Z     0.00040  -0.00182   0.54765
    H32      X    -0.00022   0.00061  -0.00190
    H32      Y     0.00004  -0.00013   0.00024
    H32      Z     0.00023  -0.00055   0.00068
    H33      X    -0.00007   0.00023   0.00018
    H33      Y     0.00010  -0.00047  -0.00029
    H33      Z    -0.00006   0.00018   0.00002
    H34      X     0.00001  -0.00013   0.00032
    H34      Y    -0.00003   0.00005   0.00032
    H34      Z    -0.00020  -0.00009   0.00160
    H35      X    -0.00017   0.00050  -0.03755
    H35      Y     0.00007  -0.00019   0.01751
    H35      Z     0.00015  -0.00046   0.02839
    H36      X    -0.00001   0.00025  -0.00917
    H36      Y    -0.00002   0.00025  -0.00871
    H36      Z    -0.00001   0.00003  -0.00097
    H37      X     0.00003   0.00010  -0.00116
    H37      Y     0.00002  -0.00024   0.00348
    H37      Z     0.00007   0.00015  -0.00139
    H38      X     0.00008  -0.00011   0.00058
    H38      Y     0.00012  -0.00002   0.00043
    H38      Z     0.00033  -0.00017   0.00210
    H39      X     0.00008   0.00006   0.00021
    H39      Y    -0.00020  -0.00007  -0.00039
    H39      Z     0.00014  -0.00000   0.00014
    H40      X    -0.00003   0.00039   0.00016
    H40      Y    -0.00002   0.00035   0.00027
    H40      Z    -0.00001  -0.00000  -0.00000
    H41      X    -0.00006   0.00007  -0.00028
    H41      Y     0.00010  -0.00019   0.00064
    H41      Z     0.00032  -0.00043   0.00164
    H42      X    -0.00030   0.00000   0.00016
    H42      Y     0.00025   0.00001  -0.00021
    H42      Z    -0.00022  -0.00004   0.00021
    H43      X     0.00004   0.00011   0.00035
    H43      Y     0.00001   0.00010   0.00038
    H43      Z     0.00003   0.00000  -0.00001
    H44      X     0.00132  -0.00021  -0.00025
    H44      Y    -0.00004   0.00010   0.00023
    H44      Z    -0.00012   0.00036   0.00095
    H45      X    -0.00024   0.00025   0.00033
    H45      Y     0.00033   0.00038   0.00046
    H45      Z     0.00007   0.00007   0.00007
    H46      X     0.00524   0.00073  -0.00085
    H46      Y     0.00054  -0.00021   0.00002
    H46      Z     0.00167  -0.00037  -0.00001
    H47      X    -0.00009  -0.00003  -0.00617
    H47      Y     0.00020   0.00000   0.00750
    H47      Z    -0.00029  -0.00001  -0.00856
    H48      X    -0.00013   0.00063  -0.03049
    H48      Y     0.00004  -0.00023   0.00680
    H48      Z     0.00000  -0.00017   0.00801
    H49      X     0.00009   0.00024  -0.00459
    H49      Y     0.00016   0.00032  -0.00482
    H49      Z     0.00006   0.00002   0.00009
  
  Number of imaginary frequencies:   1
   
  Writing vibrational animation data to ox_add_TS_L1_PL139.vib
  Writing IR vibrational spectrum data to ox_add_TS_L1_PL139_vib.spm
  rotational symmetry number:  1

  rotational temperatures (K):      0.007750      0.004672      0.004347
   
  The Quasi-Harmonic approximation will be applied to compute
  vibrational constributions to thermodynamic properties.
  Frequencies will be adjusted to a minimum value of  100.00 cm^-1.

    1 vibrational frequencies below    0.0 cm-1 not included in zero-point
  energy or thermochemical analysis.  Set freqcut to change the frequency
  cutoff value.

  vibrational temperatures:
       mode:      2        3        4        5        6        7
  temp. (K):   143.88   143.88   143.88   143.88   143.88   143.88
   
       mode:      8        9       10       11       12       13
  temp. (K):   143.88   143.88   143.88   143.88   143.88   154.44
   
       mode:     14       15       16       17       18       19
  temp. (K):   165.41   178.57   197.66   215.80   238.26   254.95
   
       mode:     20       21       22       23       24       25
  temp. (K):   268.97   311.00   315.81   347.48   358.37   365.59
   
       mode:     26       27       28       29       30       31
  temp. (K):   374.86   390.41   394.86   428.30   452.93   466.90
   
       mode:     32       33       34       35       36       37
  temp. (K):   473.65   474.43   493.53   496.48   511.42   540.45
   
       mode:     38       39       40       41       42       43
  temp. (K):   556.48   586.63   589.34   591.25   600.09   601.18
   
       mode:     44       45       46       47       48       49
  temp. (K):   615.30   617.25   692.64   709.33   735.96   753.48
   
       mode:     50       51       52       53       54       55
  temp. (K):   789.96   819.74   827.10   848.13   884.02   890.66
   
       mode:     56       57       58       59       60       61
  temp. (K):   901.71   906.29   996.84  1005.27  1047.20  1105.42
   
       mode:     62       63       64       65       66       67
  temp. (K):  1109.47  1122.12  1154.99  1161.14  1173.96  1196.60
   
       mode:     68       69       70       71       72       73
  temp. (K):  1197.07  1200.22  1250.53  1311.88  1350.60  1358.45
   
       mode:     74       75       76       77       78       79
  temp. (K):  1374.46  1378.14  1379.41  1384.70  1389.88  1408.34
   
       mode:     80       81       82       83       84       85
  temp. (K):  1416.50  1430.55  1432.22  1449.48  1460.93  1464.70
   
       mode:     86       87       88       89       90       91
  temp. (K):  1468.52  1480.09  1480.64  1501.20  1514.27  1517.28
   
       mode:     92       93       94       95       96       97
  temp. (K):  1522.68  1537.52  1544.59  1606.18  1609.42  1615.05
   
       mode:     98       99      100      101      102      103
  temp. (K):  1679.92  1701.38  1732.37  1743.73  1746.80  1753.93
   
       mode:    104      105      106      107      108      109
  temp. (K):  1761.05  1771.83  1781.64  1795.63  1800.38  1842.91
   
       mode:    110      111      112      113      114      115
  temp. (K):  1854.80  1878.11  1881.41  1937.03  1950.85  1955.00
   
       mode:    116      117      118      119      120      121
  temp. (K):  1981.80  2043.81  2046.78  2048.15  2051.68  2054.14
   
       mode:    122      123      124      125      126      127
  temp. (K):  2091.12  2101.83  2116.54  2144.39  2157.40  2164.63
   
       mode:    128      129      130      131      132      133
  temp. (K):  2165.26  2166.27  2173.66  2180.24  2183.82  2187.76
   
       mode:    134      135      136      137      138      139
  temp. (K):  2197.24  2202.01  2211.19  2218.14  2225.31  2226.42
   
       mode:    140      141      142      143      144      145
  temp. (K):  2236.52  2337.27  2338.32  2358.83  2363.03  2383.33
   
       mode:    146      147      148      149      150      151
  temp. (K):  2401.67  4364.78  4368.88  4371.45  4372.17  4381.62
   
       mode:    152      153      154      155      156      157
  temp. (K):  4385.55  4461.60  4471.68  4471.95  4475.13  4484.80
   
       mode:    158      159      160      161      162      163
  temp. (K):  4492.68  4504.78  4510.54  4520.88  4530.88  4542.42
   
       mode:    164      165      166      167      168      169
  temp. (K):  4550.14  4578.59  4588.50  4594.44  4603.87  4612.94
   
       mode:    170      171      172      173      174      175
  temp. (K):  4618.08  4620.62  4623.47  4629.26  4640.30  4653.31
   
       mode:    176      177
  temp. (K):  4667.00  4690.76
   
   
  Thermodynamic properties calculated assuming an ideal gas

  In the table below, the units for temperature
  are kelvins, the units for U, H, and G are
  kcal/mol and the units for Cv and S are cal/(mol K)

  The zero point energy (ZPE):    317.743 kcal/mol
  is not included in U, H, or G in the table below
  
 
  =============================================================================
  Thermodynamic properties for P = 1.00E+00 atm, calculated at   1 temperatures


  T =   298.15 K, P = 1.00E+00 atm
   
                  U         Cv          S          H          G        ln(Q)
              =========  =========  =========  =========  =========  =========
  trans.          0.889      2.981     44.948      1.481    -11.920   20.11858
  rot.            0.889      2.981     36.666      0.889    -10.043   16.95104
  vib.           17.341    114.093    105.211     17.341    -14.027   23.67539
  elec.           0.000      0.000      0.000      0.000      0.000    0.00000
  ----------------------------------------------------------------------------
  total          19.119    120.055    186.825     19.711    -35.991   60.74501
   
   Total internal energy, Utot(SCFE + ZPE + U):   -1589.741587 hartrees
   Total enthalpy, Htot (Utot + nRT), with n=1:   -1589.740643 hartrees
    Total Gibbs free energy, Gtot (Htot - T*S):   -1589.829409 hartrees
   
  end of program freq
   
 Time(freq)  user:       0.360  user+sys:       0.360  wallclock:       0.479
  
  start of program post
  
  Writing input files for PBF
  end of program post
   
 Time(post)  user:       0.208  user+sys:       0.208  wallclock:       0.130

 Total cpu seconds     user:   73883.882   user+sys:   73883.882
  
 Total elapsed time:    42844 seconds

Job ox_add_TS_L1_PL139 completed on bp1-compute051.data.bp.acrc.priv at Fri Mar 21 09:42:44 2025
