Job ox_add_L_trans_L1_PL139 started on bp1-compute052.data.bp.acrc.priv at Wed Apr 30 17:51:36 2025
jobid: bp1-compute052-0-68125512

  +--------------------------------------------------------------------+
  |  Jaguar version 12.5, release 138                                  |
  |                                                                    |
  |  Copyright Schrodinger, Inc.                                       |
  |  All Rights Reserved.                                              |
  |                                                                    |
  |  The following have contributed to Jaguar (listed alphabetically): |
  |  Ty Balduf, Mike Beachy, Chandler Bennett, Art Bochevarov,         |
  |  Dale Braden, Yixiang Cao, Alan Chien, Chris Cortis,               |
  |  Rich Friesner, Jim Furness, Bill Goddard, Hod Greeley,            |
  |  Tom Hughes, Leif Jacobson, Jean-Marc Langlois, Daniel Levine,     |
  |  Rob Murphy, Dean Philipp, Tom Pollard, Murco Ringnalda,           |
  |  Daniel Mainz, Pablo Videla, Mark Watson, Haoyu Yu.                |
  |                                                                    |
  |  Use of this program should be acknowledged in publications as:    |
  |                                                                    |
  |  Jaguar, version 12.5, Schrodinger, Inc., New York, NY, 2024.      |
  |                                                                    |
  |  A. D. Bochevarov, E. Harder, T. F. Hughes, J. R. Greenwood,       |
  |  D. A. Braden, D. M. Philipp, D. Rinaldo, M. D. Halls,             |
  |  J. Zhang, R. A. Friesner, "Jaguar: A High-Performance Quantum     |
  |  Chemistry Software Program with Strengths in Life and Materials   |
  |  Sciences", Int. J. Quantum Chem., 2013, 113(18), 2110-2142.       |
  +--------------------------------------------------------------------+
  
  start of program pre
  
  Job name: ox_add_L_trans_L1_PL139
  Executables used: /software/local/apps/schrodinger2024-3/jaguar-v12.5/bin/Linux-x86_64
  Temporary files : /tmp/ar21627/ox_add_L_trans_L1_PL139#bp1-compute052-0-68125512
  Basis file : using default basis file from /software/local/apps/schrodinger2024-3
  Maestro file (input):  ox_add_L_trans_L1_PL139.mae
  Maestro file (output): ox_add_L_trans_L1_PL139.01.mae
  
 Contents of input file: &gen and (if present) &atomic sections only
 ----------------Contents start----------------
&gen
dftname=b3pw91-d3
basis=6-31G*
numd=5
ip11=2
iaccg=3
isolv=2
igeopt=1
solvent=benzene
ifreq=1
&
&atomic
atom basis
Pd2 lacv3p*
Br3 lacv3p*
&
 -----------------Contents end-----------------
 
  PS calculation requested. Using PS version of 6-31g*
  basis set:               non_standard                    
  net molecular charge:    0
  multiplicity:            1
  
  Using up to   4 threads per process
  
  This run will use ECP on            2  atoms
  number of basis functions....          498
  
 Input geometry:
                                   angstroms
  atom               x                 y                 z
  P1            0.0000000000      0.0000000000      0.0000000000 
  Pd2           0.0000000000      0.0000000000      2.2562152928 
  Br3          -0.1072912895     -2.5598926168      2.3261133603 
  C73           0.2074607323      4.7332507969      2.0643448706 
  C74          -1.0280150560      4.1106794864      1.9871001104 
  C75          -1.0866447883      2.7175883864      2.0655625530 
  C76           0.0801188138      1.9670794506      2.2319228250 
  C77           1.3120568166      2.6239341759      2.3029692476 
  C78           1.3816571101      4.0140097338      2.2222149763 
  F79           0.2696886170      6.0820534163      1.9758937787 
  H80          -1.9244733994      4.7110689057      1.8636164403 
  H81          -2.0453044590      2.2184064543      1.9780796589 
  H82           2.2288579690      2.0521049656      2.3988099038 
  H83           2.3301838503      4.5395027681      2.2707200520 
  C3            1.4037020000      0.0000000000     -0.5287930000 
  C4           -0.7175880000      1.2185950000     -0.5000930000 
  C5           -0.6270920000     -1.2611540000     -0.5159910000 
  C6            2.7260500000     -0.4853270000      1.6271060000 
  C7            3.2037415467      0.4890420836      2.5421914869 
  C8            3.3427076298      0.2842074305      3.9252858075 
  C9            3.0029181845     -0.9436439155      4.4993369091 
  C10           2.5252920939     -1.9426734330      3.6472603508 
  C11           2.3990175195     -1.7026668968      2.2690586205 
  C12           2.6019460000     -0.2304150000      0.2176440000 
  C13           3.7878870000     -0.1958030000     -0.5613940000 
  C14           3.8431800000      0.0372740000     -1.9422500000 
  C15           2.6594980000      0.2557690000     -2.6437450000 
  C16           1.4669940000      0.2303350000     -1.9171010000 
  C17           0.0439655854      2.4731651538     -0.0167680117 
  C18          -0.9944478140      1.3733617980     -2.0122247542 
  C19          -2.0947036148      1.2469565353      0.2044168146 
  C20          -2.1080070000     -1.3722510000     -0.0979990000 
  C21           0.1221730000     -2.4158010000      0.1891870000 
  C22          -0.5185810000     -1.5249020000     -2.0327640000 
  H23           3.5106140782      1.4986757485      2.2438585944 
  H24           3.7228140409      1.0933906243      4.5725414540 
  H25           3.1073365851     -1.1176845047      5.5835144817 
  H26           2.2473488768     -2.9241184415      4.0688263639 
  H27           2.0137140197     -2.5696189083      1.7348519269 
  H28           4.7885530000     -0.3513670000     -0.1424820000 
  H29           4.8080470000      0.0488480000     -2.4782120000 
  H30           2.6670950000      0.4405860000     -3.7314160000 
  H31           0.5556520000      0.4025780000     -2.4991290000 
  H32           1.0298442875      2.5800978610     -0.5207132853 
  H33          -0.5231870224      3.4084684408     -0.2278729450 
  H34           0.2309753172      2.4401234824      1.0811793787 
  H35          -0.0747274473      1.4495236596     -2.6279861338 
  H36          -1.6171061128      0.5445794296     -2.4108716240 
  H37          -1.5638338390      2.3084766741     -2.2173310152 
  H38          -1.9879307000      1.2089148292      1.3130483514 
  H39          -2.6683019830      2.1716092203     -0.0349567847 
  H40          -2.7317669248      0.3851380020     -0.0944583094 
  H41          -2.2342810000     -1.2048910000      0.9961800000 
  H42          -2.7473770000     -0.6357650000     -0.6300580000 
  H43          -2.5273370000     -2.3781680000     -0.3286700000 
  H44           0.0340770000     -2.3450000000      1.2976900000 
  H45          -0.2765190000     -3.4128720000     -0.1076560000 
  H46           1.2083020000     -2.4115640000     -0.0586600000 
  H47          -0.9941950000     -0.7270730000     -2.6402850000 
  H48           0.5384110000     -1.6346130000     -2.3615300000 
  H49          -1.0269740000     -2.4759130000     -2.3116700000 
   
  principal moments of inertia:
        amu*angstrom^2:              3077.97978              3923.18264              4388.80885
                g*cm^2:          5.11110504E-37          6.51459723E-37          7.28778765E-37
   
  rotational constants:
               cm^(-1):      0.00547685      0.00429693      0.00384105
                   GHz:      0.16419179      0.12881863      0.11515175
   
  Molecular weight:     578.04 amu
   
  Stoichiometry: PdC26PH31BrF
  Molecular Point Group: C1      
  Point Group used: C1
  
 
Number of optimization coordinates:   209
Number of independent coordinates:    209
Number of non-redundant coordinates:  177
Number of frozen coordinates:           0
Number of harmonic constraints:         0
 
Number of geometric degrees of freedom:   177
Maximum geometric degrees of freedom:     177
 " " " " " excluding dummy atoms:         177
 
 
  bond lengths (angstroms):
 
 P1      -Pd2     :   2.256215      P1      -C3      :   1.500000
 P1      -C4      :   1.500000      P1      -C5      :   1.500000
 Pd2     -Br3     :   2.563093      Pd2     -C76     :   1.968860
 Br3     -H44     :   1.060103      C73     -C74     :   1.385627
 C73     -C78     :   1.385990      C73     -F79     :   1.353131
 C74     -C75     :   1.396530      C74     -H80     :   1.085980
 C75     -C76     :   1.397239      C75     -H81     :   1.084373
 C76     -C77     :   1.397919      C77     -C78     :   1.394158
 C77     -H82     :   1.084757      C78     -H83     :   1.085449
 C3      -C12     :   1.430401      C3      -C16     :   1.408708
 C4      -C17     :   1.545158      C4      -C18     :   1.545039
 C4      -C19     :   1.547122      C5      -C20     :   1.542780
 C5      -C21     :   1.546572      C5      -C22     :   1.543353
 C6      -C7      :   1.419495      C6      -C11     :   1.414556
 C6      -C12     :   1.437694      C7      -C8      :   1.405069
 C7      -H23     :   1.096601      C8      -C9      :   1.397358
 C8      -H24     :   1.103720      C9      -C10     :   1.397219
 C9      -H25     :   1.103011      C10     -C11     :   1.404631
 C10     -H26     :   1.103723      C11     -H27     :   1.088780
 C12     -C13     :   1.419350      C13     -C14     :   1.401480
 C13     -H28     :   1.095911      C14     -C15     :   1.393176
 C14     -H29     :   1.103792      C15     -C16     :   1.396683
 C15     -H30     :   1.103287      C16     -H31     :   1.094974
 C17     -H32     :   1.112363      C17     -H33     :   1.114011
 C17     -H34     :   1.114250      C18     -H35     :   1.109436
 C18     -H36     :   1.110632      C18     -H37     :   1.113871
 C19     -H38     :   1.114411      C19     -H39     :   1.114135
 C19     -H40     :   1.112613      C20     -H41     :   1.114084
 C20     -H42     :   1.110987      C20     -H43     :   1.113964
 C21     -H44     :   1.114250      C21     -H45     :   1.114101
 C21     -H46     :   1.114057      C22     -H47     :   1.109875
 C22     -H48     :   1.112365      C22     -H49     :   1.113855
 
  bond angles:
 
 C3      -P1      -Pd2     : 110.642051  C4      -P1      -Pd2     : 109.474992
 C4      -P1      -C3      : 109.277784  C5      -P1      -Pd2     : 110.120396
 C5      -P1      -C3      : 105.661559  C5      -P1      -C4      : 111.614203
 Br3     -Pd2     -P1      :  91.562706  C76     -Pd2     -P1      :  89.293047
 C76     -Pd2     -Br3     : 179.141579  H44     -Br3     -Pd2     :  76.438187
 C78     -C73     -C74     : 121.909126  F79     -C73     -C74     : 119.027529
 F79     -C73     -C78     : 119.062389  C75     -C74     -C73     : 118.848879
 H80     -C74     -C73     : 119.601754  H80     -C74     -C75     : 121.548898
 C76     -C75     -C74     : 120.493887  H81     -C75     -C74     : 119.458344
 H81     -C75     -C76     : 120.038367  C75     -C76     -Pd2     : 120.274260
 C77     -C76     -Pd2     : 120.310758  C77     -C76     -C75     : 119.311759
 C78     -C77     -C76     : 120.634266  H82     -C77     -C76     : 120.106568
 H82     -C77     -C78     : 119.244040  C77     -C78     -C73     : 118.797858
 H83     -C78     -C73     : 119.615841  H83     -C78     -C77     : 121.583776
 C12     -C3      -P1      : 126.866735  C16     -C3      -P1      : 112.921406
 C16     -C3      -C12     : 120.197482  C17     -C4      -P1      : 108.635479
 C18     -C4      -P1      : 119.564083  C18     -C4      -C17     : 108.247562
 C19     -C4      -P1      : 106.792043  C19     -C4      -C17     : 106.342742
 C19     -C4      -C18     : 106.518855  C20     -C5      -P1      : 111.631893
 C21     -C5      -P1      : 105.564318  C21     -C5      -C20     : 106.722903
 C22     -C5      -P1      : 116.895060  C22     -C5      -C20     : 108.750722
 C22     -C5      -C21     : 106.646205  C11     -C6      -C7      : 112.083859
 C12     -C6      -C7      : 122.638665  C12     -C6      -C11     : 125.277476
 C8      -C7      -C6      : 124.596171  H23     -C7      -C6      : 123.420160
 H23     -C7      -C8      : 111.983632  C9      -C8      -C7      : 120.559660
 H24     -C8      -C7      : 120.294259  H24     -C8      -C9      : 119.146078
 C10     -C9      -C8      : 117.443483  H25     -C9      -C8      : 121.293605
 H25     -C9      -C10     : 121.262909  C11     -C10     -C9      : 120.458961
 H26     -C10     -C9      : 119.271939  H26     -C10     -C11     : 120.269097
 C10     -C11     -C6      : 124.857824  H27     -C11     -C6      : 122.983415
 H27     -C11     -C10     : 112.158723  C6      -C12     -C3      : 127.767778
 C13     -C12     -C3      : 114.179167  C13     -C12     -C6      : 118.053050
 C14     -C13     -C12     : 125.296897  H28     -C13     -C12     : 123.344249
 H28     -C13     -C14     : 111.358848  C15     -C14     -C13     : 119.253491
 H29     -C14     -C13     : 120.974078  H29     -C14     -C15     : 119.772406
 C16     -C15     -C14     : 117.425968  H30     -C15     -C14     : 121.118955
 H30     -C15     -C16     : 121.455055  C15     -C16     -C3      : 123.646561
 H31     -C16     -C3      : 120.808706  H31     -C16     -C15     : 115.544693
 H32     -C17     -C4      : 111.910845  H33     -C17     -C4      : 111.807544
 H33     -C17     -H32     : 106.538408  H34     -C17     -C4      : 111.522463
 H34     -C17     -H32     : 107.488352  H34     -C17     -H33     : 107.281718
 H35     -C18     -C4      : 113.673662  H36     -C18     -C4      : 112.148234
 H36     -C18     -H35     : 108.467982  H37     -C18     -C4      : 110.849242
 H37     -C18     -H35     : 105.303521  H37     -C18     -H36     : 105.890065
 H38     -C19     -C4      : 111.536748  H39     -C19     -C4      : 112.063982
 H39     -C19     -H38     : 106.941488  H40     -C19     -C4      : 111.909518
 H40     -C19     -H38     : 107.196505  H40     -C19     -H39     : 106.879073
 H41     -C20     -C5      : 111.350636  H42     -C20     -C5      : 112.020047
 H42     -C20     -H41     : 107.790504  H43     -C20     -C5      : 111.731603
 H43     -C20     -H41     : 107.239005  H43     -C20     -H42     : 106.428016
 H44     -C21     -C5      : 111.584181  H45     -C21     -C5      : 111.919355
 H45     -C21     -H44     : 107.076047  H46     -C21     -C5      : 111.595099
 H46     -C21     -H44     : 107.347393  H46     -C21     -H45     : 107.038637
 H47     -C22     -C5      : 112.642254  H48     -C22     -C5      : 111.970515
 H48     -C22     -H47     : 108.440249  H49     -C22     -C5      : 111.094202
 H49     -C22     -H47     : 106.325725  H49     -C22     -H48     : 105.991230
 C21     -H44     -Br3     : 164.317829
 
  torsional angles:
 
 P1      -Pd2     -Br3     -H44     :   7.372860
 P1      -Pd2     -C76     -C75     :  82.491527
 P1      -Pd2     -C76     -C77     : -93.789362
 P1      -C3      -C12     -C6      :  -1.244791
 P1      -C3      -C12     -C13     : 178.729711
 P1      -C3      -C16     -C15     :-178.962339
 P1      -C3      -C16     -H31     :   0.961507
 P1      -C4      -C17     -H32     :  69.066294
 P1      -C4      -C17     -H33     :-171.500578
 P1      -C4      -C17     -H34     : -51.385074
 P1      -C4      -C18     -H35     : -63.625205
 P1      -C4      -C18     -H36     :  59.871656
 P1      -C4      -C18     -H37     : 177.992778
 P1      -C4      -C19     -H38     :  54.960151
 P1      -C4      -C19     -H39     : 174.826861
 P1      -C4      -C19     -H40     : -65.126497
 P1      -C5      -C20     -H41     : -50.476119
 P1      -C5      -C20     -H42     :  70.318293
 P1      -C5      -C20     -H43     :-170.366999
 P1      -C5      -C21     -H44     :  59.004770
 P1      -C5      -C21     -H45     : 178.976975
 P1      -C5      -C21     -H46     : -61.091110
 P1      -C5      -C22     -H47     : -60.037413
 P1      -C5      -C22     -H48     :  62.500013
 P1      -C5      -C22     -H49     :-179.204233
 Pd2     -P1      -C3      -C12     :  11.615731
 Pd2     -P1      -C3      -C16     :-169.774349
 Pd2     -P1      -C4      -C17     :  62.005157
 Pd2     -P1      -C4      -C18     :-173.160667
 Pd2     -P1      -C4      -C19     : -52.321688
 Pd2     -P1      -C5      -C20     :  62.890670
 Pd2     -P1      -C5      -C21     : -52.690285
 Pd2     -P1      -C5      -C22     :-171.030664
 Pd2     -Br3     -H44     -C21     :-170.019282
 Pd2     -C76     -C75     -C74     :-177.095593
 Pd2     -C76     -C75     -H81     :   1.782994
 Pd2     -C76     -C77     -C78     : 176.927632
 Pd2     -C76     -C77     -H82     :  -1.646969
 Br3     -Pd2     -P1      -C3      : -92.400000
 Br3     -Pd2     -P1      -C4      : 147.107656
 Br3     -Pd2     -P1      -C5      :  24.038249
 Br3     -Pd2     -C76     -C75     : -92.990519
 Br3     -Pd2     -C76     -C77     :  90.728592
 Br3     -H44     -C21     -C5      : 134.093863
 Br3     -H44     -C21     -H45     :  11.308757
 Br3     -H44     -C21     -H46     :-103.342386
 C73     -C74     -C75     -C76     :   0.605200
 C73     -C74     -C75     -H81     :-178.279856
 C73     -C78     -C77     -C76     :  -0.275010
 C73     -C78     -C77     -H82     : 178.311769
 C74     -C73     -C78     -C77     :   0.102037
 C74     -C73     -C78     -H83     : 179.533252
 C74     -C75     -C76     -C77     :  -0.777681
 C75     -C74     -C73     -C78     :  -0.266097
 C75     -C74     -C73     -F79     : 179.374734
 C75     -C76     -C77     -C78     :   0.611093
 C75     -C76     -C77     -H82     :-177.963508
 C76     -Pd2     -P1      -C3      :  87.667642
 C76     -Pd2     -P1      -C4      : -32.824702
 C76     -Pd2     -P1      -C5      :-155.894109
 C76     -Pd2     -Br3     -H44     :-177.146433
 C76     -C75     -C74     -H80     :-179.644890
 C76     -C77     -C78     -H83     :-179.694551
 C77     -C76     -C75     -H81     : 178.100905
 C77     -C78     -C73     -F79     :-179.538673
 C78     -C73     -C74     -H80     : 179.979021
 F79     -C73     -C74     -H80     :  -0.380148
 F79     -C73     -C78     -H83     :  -0.107458
 H80     -C74     -C75     -H81     :   1.470054
 H82     -C77     -C78     -H83     :  -1.107772
 C3      -P1      -C4      -C17     : -59.314883
 C3      -P1      -C4      -C18     :  65.519293
 C3      -P1      -C4      -C19     :-173.641727
 C3      -P1      -C5      -C20     :-177.595796
 C3      -P1      -C5      -C21     :  66.823249
 C3      -P1      -C5      -C22     : -51.517131
 C3      -C12     -C6      -C7      :-105.457153
 C3      -C12     -C6      -C11     :  74.547585
 C3      -C12     -C13     -C14     :  -0.059613
 C3      -C12     -C13     -H28     : 179.909160
 C3      -C16     -C15     -C14     :   0.107798
 C3      -C16     -C15     -H30     :-179.945215
 C4      -P1      -C3      -C12     : 132.225580
 C4      -P1      -C3      -C16     : -49.164500
 C4      -P1      -C5      -C20     : -58.917219
 C4      -P1      -C5      -C21     :-174.498174
 C4      -P1      -C5      -C22     :  67.161446
 C5      -P1      -C3      -C12     :-107.553020
 C5      -P1      -C3      -C16     :  71.056900
 C5      -P1      -C4      -C17     :-175.815056
 C5      -P1      -C4      -C18     : -50.980880
 C5      -P1      -C4      -C19     :  69.858099
 C6      -C7      -C8      -C9      :  -0.011981
 C6      -C7      -C8      -H24     : 179.970654
 C6      -C11     -C10     -C9      :   0.040255
 C6      -C11     -C10     -H26     :-179.980554
 C6      -C12     -C3      -C16     :-179.763430
 C6      -C12     -C13     -C14     : 179.917547
 C6      -C12     -C13     -H28     :  -0.113679
 C7      -C6      -C11     -C10     :  -0.074732
 C7      -C6      -C11     -H27     : 179.848321
 C7      -C6      -C12     -C13     :  74.569205
 C7      -C8      -C9      -C10     :  -0.029064
 C7      -C8      -C9      -H25     : 179.990200
 C8      -C7      -C6      -C11     :   0.060605
 C8      -C7      -C6      -C12     :-179.935221
 C8      -C9      -C10     -C11     :   0.015975
 C8      -C9      -C10     -H26     :-179.963423
 C9      -C8      -C7      -H23     :-179.943483
 C9      -C10     -C11     -H27     :-179.890053
 C10     -C9      -C8      -H24     : 179.988104
 C10     -C11     -C6      -C12     : 179.920963
 C11     -C6      -C7      -H23     : 179.984505
 C11     -C6      -C12     -C13     :-105.426058
 C11     -C10     -C9      -H25     : 179.996718
 C12     -C3      -C16     -C15     :  -0.249043
 C12     -C3      -C16     -H31     : 179.674803
 C12     -C6      -C7      -H23     :  -0.011321
 C12     -C6      -C11     -H27     :  -0.155984
 C12     -C13     -C14     -C15     :  -0.073105
 C12     -C13     -C14     -H29     : 179.984555
 C13     -C12     -C3      -C16     :   0.211072
 C13     -C14     -C15     -C16     :   0.051014
 C13     -C14     -C15     -H30     :-179.896162
 C14     -C15     -C16     -H31     :-179.819709
 C15     -C14     -C13     -H28     : 179.954905
 C16     -C15     -C14     -H29     : 179.994058
 C17     -C4      -C18     -H35     :  61.394213
 C17     -C4      -C18     -H36     :-175.108926
 C17     -C4      -C18     -H37     : -56.987804
 C17     -C4      -C19     -H38     : -60.909139
 C17     -C4      -C19     -H39     :  58.957571
 C17     -C4      -C19     -H40     : 179.004213
 C18     -C4      -C17     -H32     : -62.191818
 C18     -C4      -C17     -H33     :  57.241310
 C18     -C4      -C17     -H34     : 177.356814
 C18     -C4      -C19     -H38     :-176.206687
 C18     -C4      -C19     -H39     : -56.339978
 C18     -C4      -C19     -H40     :  63.706664
 C19     -C4      -C17     -H32     :-176.313205
 C19     -C4      -C17     -H33     : -56.880076
 C19     -C4      -C17     -H34     :  63.235427
 C19     -C4      -C18     -H35     : 175.399296
 C19     -C4      -C18     -H36     : -61.103843
 C19     -C4      -C18     -H37     :  57.017279
 C20     -C5      -C21     -H44     : -59.893717
 C20     -C5      -C21     -H45     :  60.078488
 C20     -C5      -C21     -H46     :-179.989597
 C20     -C5      -C22     -H47     :  67.458488
 C20     -C5      -C22     -H48     :-170.004085
 C20     -C5      -C22     -H49     : -51.708331
 C21     -C5      -C20     -H41     :  64.392944
 C21     -C5      -C20     -H42     :-174.812645
 C21     -C5      -C20     -H43     : -55.497936
 C21     -C5      -C22     -H47     :-177.791448
 C21     -C5      -C22     -H48     : -55.254022
 C21     -C5      -C22     -H49     :  63.041732
 C22     -C5      -C20     -H41     : 179.093085
 C22     -C5      -C20     -H42     : -60.112503
 C22     -C5      -C20     -H43     :  59.202205
 C22     -C5      -C21     -H44     :-176.007825
 C22     -C5      -C21     -H45     : -56.035620
 C22     -C5      -C21     -H46     :  63.896294
 H23     -C7      -C8      -H24     :   0.039152
 H24     -C8      -C9      -H25     :   0.007368
 H25     -C9      -C10     -H26     :   0.017320
 H26     -C10     -C11     -H27     :   0.089139
 H28     -C13     -C14     -H29     :   0.012565
 H29     -C14     -C15     -H30     :   0.046882
 H30     -C15     -C16     -H31     :   0.127278
 
  nuclear repulsion energy.......          3861.768455051 hartrees
  
  Detected an organometallic with only one TM atom. 
  
  Formal charge on ligand        1 is    -1
  Formal multiplet on ligand     1 is     1
  Oxidation state on metal       2 is     2
  Formal multiplet on metal      2 is     1
  Formal charge on ligand        3 is    -1
  Formal multiplet on ligand     3 is     1
  
 
  Will use High-Quality Initial guess for organometallics
       including d-d repulsion (iguess=30)
 
 Non-default options chosen:
   SCF calculation type: DFT(b3pw91-d3)              
   DFT=Becke_3_Parameter/HF+Slater+Becke88+PW91+PW-GGAIIC (B3PW91-D3)
   Geometry will be optimized in redundant internal coordinates
   Solvation energy will be computed using PBF
     -solute cavity energy will not be included
     -surface area terms will not be included
   Vibrational frequencies and related properties will be computed
      from analytic second derivatives
   IR intensities will be computed
   Thermochemical properties will be computed
   Maximum number of geometry steps: 100
   Scaling standard convergence criteria by a factor of   5.00
   Solvent: benzene                                                         
   Internal dielectric constant:    1.000
   Continuum dielectric constant:   2.283
   Solvent probe molecule radius:   2.600
  
 Non-default print settings:
     11=  2
  
 Temporary integer options set:
     21= -1  73=  2
  
  atom       vdw   vdw2    cov     mass  grid  daf  charge   basis
  P1        2.147  2.074  1.060   30.974    Y    Y      Y    ps_6-31g*
  Pd2       1.450  1.450  1.280  105.903    Y    Y      Y    lacv3p*
  Br3       2.095  2.095  1.140   78.918    Y    Y      Y    lav3p*
  C73       1.949  1.900  0.770   12.000    Y    Y      Y    ps_6-31g*
  C74       1.949  1.900  0.770   12.000    Y    Y      Y    ps_6-31g*
  C75       1.949  1.900  0.770   12.000    Y    Y      Y    ps_6-31g*
  C76       1.949  1.900  0.770   12.000    Y    Y      Y    ps_6-31g*
  C77       1.949  1.900  0.770   12.000    Y    Y      Y    ps_6-31g*
  C78       1.949  1.900  0.770   12.000    Y    Y      Y    ps_6-31g*
  F79       1.736  1.682  0.720   18.998    Y    Y      Y    ps_6-31g*
  H80       1.597  1.150  0.320    1.008    Y    Y      Y    ps_6-31g*
  H81       1.597  1.150  0.320    1.008    Y    Y      Y    ps_6-31g*
  H82       1.597  1.150  0.320    1.008    Y    Y      Y    ps_6-31g*
  H83       1.597  1.150  0.320    1.008    Y    Y      Y    ps_6-31g*
  C3        1.949  1.900  0.770   12.000    Y    Y      Y    ps_6-31g*
  C4        1.949  1.900  0.770   12.000    Y    Y      Y    ps_6-31g*
  C5        1.949  1.900  0.770   12.000    Y    Y      Y    ps_6-31g*
  C6        1.949  1.900  0.770   12.000    Y    Y      Y    ps_6-31g*
  C7        1.949  1.900  0.770   12.000    Y    Y      Y    ps_6-31g*
  C8        1.949  1.900  0.770   12.000    Y    Y      Y    ps_6-31g*
  C9        1.949  1.900  0.770   12.000    Y    Y      Y    ps_6-31g*
  C10       1.949  1.900  0.770   12.000    Y    Y      Y    ps_6-31g*
  C11       1.949  1.900  0.770   12.000    Y    Y      Y    ps_6-31g*
  C12       1.949  1.900  0.770   12.000    Y    Y      Y    ps_6-31g*
  C13       1.949  1.900  0.770   12.000    Y    Y      Y    ps_6-31g*
  C14       1.949  1.900  0.770   12.000    Y    Y      Y    ps_6-31g*
  C15       1.949  1.900  0.770   12.000    Y    Y      Y    ps_6-31g*
  C16       1.949  1.900  0.770   12.000    Y    Y      Y    ps_6-31g*
  C17       1.949  1.900  0.770   12.000    Y    Y      Y    ps_6-31g*
  C18       1.949  1.900  0.770   12.000    Y    Y      Y    ps_6-31g*
  C19       1.949  1.900  0.770   12.000    Y    Y      Y    ps_6-31g*
  C20       1.949  1.900  0.770   12.000    Y    Y      Y    ps_6-31g*
  C21       1.949  1.900  0.770   12.000    Y    Y      Y    ps_6-31g*
  C22       1.949  1.900  0.770   12.000    Y    Y      Y    ps_6-31g*
  H23       1.597  1.150  0.320    1.008    Y    Y      Y    ps_6-31g*
  H24       1.597  1.150  0.320    1.008    Y    Y      Y    ps_6-31g*
  H25       1.597  1.150  0.320    1.008    Y    Y      Y    ps_6-31g*
  H26       1.597  1.150  0.320    1.008    Y    Y      Y    ps_6-31g*
  H27       1.597  1.150  0.320    1.008    Y    Y      Y    ps_6-31g*
  H28       1.597  1.150  0.320    1.008    Y    Y      Y    ps_6-31g*
  H29       1.597  1.150  0.320    1.008    Y    Y      Y    ps_6-31g*
  H30       1.597  1.150  0.320    1.008    Y    Y      Y    ps_6-31g*
  H31       1.597  1.150  0.320    1.008    Y    Y      Y    ps_6-31g*
  H32       1.597  1.150  0.320    1.008    Y    Y      Y    ps_6-31g*
  H33       1.597  1.150  0.320    1.008    Y    Y      Y    ps_6-31g*
  H34       1.597  1.150  0.320    1.008    Y    Y      Y    ps_6-31g*
  H35       1.597  1.150  0.320    1.008    Y    Y      Y    ps_6-31g*
  H36       1.597  1.150  0.320    1.008    Y    Y      Y    ps_6-31g*
  H37       1.597  1.150  0.320    1.008    Y    Y      Y    ps_6-31g*
  H38       1.597  1.150  0.320    1.008    Y    Y      Y    ps_6-31g*
  H39       1.597  1.150  0.320    1.008    Y    Y      Y    ps_6-31g*
  H40       1.597  1.150  0.320    1.008    Y    Y      Y    ps_6-31g*
  H41       1.597  1.150  0.320    1.008    Y    Y      Y    ps_6-31g*
  H42       1.597  1.150  0.320    1.008    Y    Y      Y    ps_6-31g*
  H43       1.597  1.150  0.320    1.008    Y    Y      Y    ps_6-31g*
  H44       1.597  1.150  0.320    1.008    Y    Y      Y    ps_6-31g*
  H45       1.597  1.150  0.320    1.008    Y    Y      Y    ps_6-31g*
  H46       1.597  1.150  0.320    1.008    Y    Y      Y    ps_6-31g*
  H47       1.597  1.150  0.320    1.008    Y    Y      Y    ps_6-31g*
  H48       1.597  1.150  0.320    1.008    Y    Y      Y    ps_6-31g*
  H49       1.597  1.150  0.320    1.008    Y    Y      Y    ps_6-31g*
 
  atom      formal  2spin      esp    mulk    frag
  P1          -1       0        Y    0.000       0
  Pd2          2       0        Y    0.000       0
  C73         -1       0        Y    0.000       0
  
  end of program pre
   
 Time(pre)  user:       1.075  user+sys:       1.075  wallclock:       1.218
  
  start of program onee
  
  smallest eigenvalue of S:    3.778E-04
  number of canonical orbitals.....          494
  end of program onee
   
 Time(onee)  user:       5.358  user+sys:       5.358  wallclock:       3.750
  
  start of program hfig
  
  initial wavefunction generated automatically from atomic wavefunctions
  Only one state below 0.010000
  Skip d-d repulsion considerations 
 
  Irreducible     Total no   No of occupied orbitals 
  representation  orbitals   Shell_1  Shell_2    ...
  No Symm          494        118
  ------------------------
  Orbital occupation/shell    1.000
 
  end of program hfig
   
 Time(hfig)  user:       0.863  user+sys:       0.863  wallclock:       1.000
  
  start of program probe
  
  end of program probe
   
 Time(probe)  user:       0.438  user+sys:       0.438  wallclock:       0.430
  
  start of program grid
  
   grid     grid set  grid #  grid sym
  ------    --------  ------  --------
  coarse        0        0        1
  medium        2        1        1
  fine          0        0        1
  ultrafine     4        2        1
  charge       -1        3        1
  gradient      4        2        1
  density       0        0        1
  DFT-fine    -11        4        1
  DFT-med.    -10        5        1
  DFT-grad    -12        6        1
  DFT-der2     -8        7        1
  DFT-cphf     -9        8        1
  LMP2-enrg     4        2        1
  LMP2-grad     2        1        1
  DFT-cphf2   -15        9        1
  PBF-dens      0        0        1
  plotting      0        0        1
  Rel-grad    -17        0        1
  
  number of gridpoints: 
     atom           P1         Pd2         Br3         C73         C74         C75         C76
  grid # 1         524         357         437          79          93          94          94
  grid # 2         369         317         360         331         317         306         354
  grid # 3           6         257         196          35          29          31          32
  grid # 4        8714        8714        8714        8714        8714        8714        8714
  grid # 5        1192        1192        1192        1192        1192        1192        1192
  grid # 6        9132        9132        9132        5922        5922        5922        5922
  grid # 7       23034       32968       11582       13950       13950       13950       13950
  grid # 8         722        1150         694         748         748         748         748
  grid # 9         366        2198         358         394         394         394         394
   
  number of gridpoints: 
     atom          C77         C78         F79         H80         H81         H82         H83
  grid # 1          94          93         584         113          94         100         114
  grid # 2         304         319         566         463         396         408         462
  grid # 3          27          31         360         375         176          62         387
  grid # 4        8714        8714        8714        8714        8714        8714        8714
  grid # 5        1192        1192        1192        1192        1192        1192        1192
  grid # 6        5922        5922        5922        5922        5922        5922        5922
  grid # 7       13950       13950       23190       15206       15206       15206       15206
  grid # 8         748         748         770         786         786         786         786
  grid # 9         394         394         420         420         420         420         420
   
  number of gridpoints: 
     atom           C3          C4          C5          C6          C7          C8          C9
  grid # 1          91          87          87          96          90          95          95
  grid # 2         355         337         344         349         318         325         324
  grid # 3           6           6           6          10          18          32          33
  grid # 4        8714        8714        8714        8714        8714        8714        8714
  grid # 5        1192        1192        1192        1192        1192        1192        1192
  grid # 6        5922        5922        5922        5922        5922        5922        5922
  grid # 7       13950       13950       13950       13950       13950       13950       13950
  grid # 8         748         748         748         748         748         748         748
  grid # 9         394         394         394         394         394         394         394
   
  number of gridpoints: 
     atom          C10         C11         C12         C13         C14         C15         C16
  grid # 1          95          92          97          93          97          95          89
  grid # 2         325         325         349         326         324         319         318
  grid # 3          30          21          10          28          40          23           7
  grid # 4        8714        8714        8714        8714        8714        8714        8714
  grid # 5        1192        1192        1192        1192        1192        1192        1192
  grid # 6        5922        5922        5922        5922        5922        5922        5922
  grid # 7       13950       13950       13950       13950       13950       13950       13950
  grid # 8         748         748         748         748         748         748         748
  grid # 9         394         394         394         394         394         394         394
   
  number of gridpoints: 
     atom          C17         C18         C19         C20         C21         C22         H23
  grid # 1          78          81          79          80          81          80         105
  grid # 2         248         240         247         248         241         242         419
  grid # 3           6           6           6           6           6           6         197
  grid # 4        8714        8714        8714        8714        8714        8714        8714
  grid # 5        1192        1192        1192        1192        1192        1192        1192
  grid # 6        5922        5922        5922        5922        5922        5922        5922
  grid # 7       13950       13950       13950       13950       13950       13950       15206
  grid # 8         748         748         748         748         748         748         786
  grid # 9         394         394         394         394         394         394         420
   
  number of gridpoints: 
     atom          H24         H25         H26         H27         H28         H29         H30
  grid # 1         117         118         115          96         116         118         118
  grid # 2         463         467         461         429         460         465         465
  grid # 3         389         426         342         153         363         420         402
  grid # 4        8714        8714        8714        8714        8714        8714        8714
  grid # 5        1192        1192        1192        1192        1192        1192        1192
  grid # 6        5922        5922        5922        5922        5922        5922        5922
  grid # 7       15206       15206       15206       15206       15206       15206       15206
  grid # 8         786         786         786         786         786         786         786
  grid # 9         420         420         420         420         420         420         420
   
  number of gridpoints: 
     atom          H31         H32         H33         H34         H35         H36         H37
  grid # 1          86         104         105          83          95          97         107
  grid # 2         362         440         427         372         394         404         443
  grid # 3          33         202         157          11         161         140         274
  grid # 4        8714        8714        8714        8714        8714        8714        8714
  grid # 5        1192        1192        1192        1192        1192        1192        1192
  grid # 6        5922        5922        5922        5922        5922        5922        5922
  grid # 7       15206       15206       15206       15206       15206       15206       15206
  grid # 8         786         786         786         786         786         786         786
  grid # 9         420         420         420         420         420         420         420
   
  number of gridpoints: 
     atom          H38         H39         H40         H41         H42         H43         H44
  grid # 1          87         109          87         104          91         107          74
  grid # 2         377         437         373         432         387         445         380
  grid # 3          58         217         115         152         149         274          10
  grid # 4        8714        8714        8714        8714        8714        8714        8714
  grid # 5        1192        1192        1192        1192        1192        1192        1192
  grid # 6        5922        5922        5922        5922        5922        5922        5922
  grid # 7       15206       15206       15206       15206       15206       15206       15206
  grid # 8         786         786         786         786         786         786         786
  grid # 9         420         420         420         420         420         420         420
   
  number of gridpoints: 
     atom          H45         H46         H47         H48         H49       total
  grid # 1         107         100          99         100         109        7402
  grid # 2         446         422         401         424         447       22818
  grid # 3         247         125         122         177         275        7901
  grid # 4        8714        8714        8714        8714        8714      531554
  grid # 5        1192        1192        1192        1192        1192       72712
  grid # 6        5922        5922        5922        5922        5922      370872
  grid # 7       15206       15206       15206       15206       15206      924860
  grid # 8         786         786         786         786         786       47150
  grid # 9         420         420         420         420         420       26606
   
  end of program grid
   
 Time(grid)  user:     165.789  user+sys:     165.789  wallclock:      85.045
  
  start of program rwr
  
  end of program rwr
   
 Time(rwr)  user:      15.810  user+sys:      15.810  wallclock:      19.721
  
  start of program scf
  
 number of electrons..........        236
 number of alpha electrons....        118
 number of beta electrons.....        118
 number of orbitals, total....        494
 number of doubly-occ'd orbs..        118
 number of open shell orbs....          0
 number of occupied orbitals..        118
 number of virtual orbitals...        376
 number of hamiltonians.......          1
 number of shells.............          1
 SCF type: DFT=Becke_3_Parameter/HF+Slater+Becke88+PW91+PW-GGAIIC (B3PW91-D3)
 Energy computed using pseudospectral method.
 Convergence Criterion:
    Energy (econv):       1.00E-05
    RMS density (dconv):  5.00E-06
  
       i  u  d  i  g                   
       t  p  i  c  r                                 RMS    maximum
       e  d  i  u  i                       energy  density   DIIS  
       r  t  s  t  d       total energy    change  change    error 
  
etot    1  N  N  5  M   -1585.15012624172           2.8E-03  1.9E-01
etot    2  Y  Y  6  M   -1587.71468531504  2.6E+00  5.8E-03  1.2E-01
etot    3  Y  Y  6  M   -1587.93180585938  2.2E-01  3.8E-03  8.2E-02
etot    4  N  Y  2  U   -1588.82342465554  8.9E-01  2.2E-03  4.9E-02
etot    5  Y  Y  6  M   -1589.09355303435  2.7E-01  1.4E-03  1.6E-02
etot    6  N  Y  2  U   -1589.12443617513  3.1E-02  6.4E-04  6.9E-03
etot    7  Y  Y  6  M   -1589.12480120432  3.7E-04  2.8E-04  5.0E-03
etot    8  Y  Y  6  M   -1589.13068478300  5.9E-03  7.8E-05  1.5E-03
etot    9  N  Y  2  U   -1589.13215344023  1.5E-03  2.9E-05  4.7E-04
etot   10  N  Y  2  U   -1589.13220630100  5.3E-05  1.6E-05  2.1E-04
etot   11  N  Y  2  U   -1589.13221239505  6.1E-06  9.6E-06  6.9E-05
etot   12  N  Y  2  U   -1589.13221454196  2.1E-06  4.6E-06  4.5E-05
etot   13  N  N  2  U   -1589.13221550386  9.6E-07  0.0E+00  0.0E+00
 
  Computing the dispersion energy correction and its gradients...
  
  
 Energy components, in hartrees:
   (A)  Nuclear repulsion............    3861.76845505096
   (E)  Total one-electron terms.....   -9911.09533391792
   (F)    Electron-nuclear...........  -11408.54995090717
   (H)    Kinetic....................    1497.45461698924
   (I)  Total two-electron terms.....    4460.19466336311
   (J)    Coulomb....................    4662.65191447926
   (K)    Exchange+Correlation.......    -202.45725111615
   (L)  Electronic energy............   -5450.90067055481  (E+I)
   (N0) D3 correction................      -0.12753185595
   (N)  Total energy.................   -1589.25974735981  (A+L+N0)
   (O)  Gas phase energy.............   -1589.25974735981
  
 SCFE: SCF energy: DFT(b3pw91-d3)     -1589.25974735981 hartrees   iterations:  13
  
 
 HOMO energy:    -0.11997
 LUMO energy:    -0.07037
 
  Orbital energies (hartrees): 
   -77.02511   -24.67703   -10.24251   -10.21579   -10.19781   -10.19768
   -10.19430   -10.19254   -10.19238   -10.18269   -10.18223   -10.18120
   -10.17908   -10.17789   -10.17591   -10.17440   -10.17411   -10.17380
   -10.17363   -10.17186   -10.16842   -10.16669   -10.16642   -10.16044
   -10.15480   -10.15379   -10.13301   -10.11692    -6.55929    -4.71487
    -4.71460    -4.71276    -3.33182    -2.06661    -2.06216    -2.03281
    -1.20861    -0.94948    -0.92187    -0.88833    -0.87913    -0.85544
    -0.82657    -0.80136    -0.79330    -0.76402    -0.75865    -0.74927
    -0.74682    -0.73178    -0.71808    -0.69283    -0.68029    -0.67442
    -0.64435    -0.62985    -0.62596    -0.60854    -0.60190    -0.59926
    -0.58998    -0.56441    -0.54828    -0.53001    -0.52038    -0.51320
    -0.50461    -0.49368    -0.49010    -0.48567    -0.48019    -0.47679
    -0.46958    -0.46353    -0.45862    -0.45419    -0.45187    -0.44761
    -0.44360    -0.44066    -0.43331    -0.42027    -0.41321    -0.40765
    -0.40396    -0.40012    -0.39674    -0.39203    -0.38904    -0.38407
    -0.38040    -0.37827    -0.36814    -0.36447    -0.36060    -0.35631
    -0.35505    -0.34756    -0.33840    -0.33118    -0.32396    -0.31897
    -0.30985    -0.29881    -0.29642    -0.29244    -0.28759    -0.27793
    -0.27472    -0.26694    -0.26321    -0.25200    -0.24513    -0.24272
    -0.22908    -0.20349    -0.17636    -0.11997    -0.07037    -0.05111
    -0.03305    -0.01321    -0.00958    -0.00337     0.00563     0.02651
     0.05071     0.05987
 
  end of program scf
   
 Time(scf)  user:     388.133  user+sys:     388.133  wallclock:     207.549
  
  start of program der1a
  
  end of program der1a
   
 Time(der1a)  user:      17.020  user+sys:      17.020  wallclock:       8.978
  
  start of program rwr
  
  end of program rwr
   
 Time(rwr)  user:      16.130  user+sys:      16.130  wallclock:      20.155
  
  start of program der1b
  
   
  forces (hartrees/bohr) : total     
   
 atom  label           x              y              z
 ---- --------   -------------  -------------  -------------
    1 P1          1.183427E-03   2.065496E-02   2.697538E-01
    2 Pd2        -1.637795E-03  -1.507259E-02   1.738246E-02
    3 Br3        -1.547942E-01  -1.369290E-01   7.642270E-01
    4 C73         1.508788E-03   6.865341E-03  -2.443285E-03
    5 C74        -9.157905E-03  -7.244529E-03   1.391823E-02
    6 C75        -2.872194E-02   4.584248E-02   8.334863E-02
    7 C76        -6.219295E-03  -2.438963E-02   9.842506E-02
    8 C77         1.191036E-02   2.007439E-02   4.850091E-02
    9 C78         2.406573E-03  -4.100767E-03   2.602144E-03
   10 F79        -3.320287E-04  -3.623527E-03  -3.584301E-04
   11 H80        -3.284101E-04   3.921581E-05  -1.243558E-04
   12 H81         8.767395E-03   3.157271E-02   2.577992E-02
   13 H82        -2.200395E-02   1.373536E-02  -1.535469E-03
   14 H83         7.054156E-04   5.144379E-04  -3.403933E-04
   15 C3          2.701767E-01   4.721709E-03  -8.782293E-02
   16 C4         -1.468850E-01   2.563983E-01  -8.986828E-02
   17 C5         -1.221649E-01  -2.618704E-01  -8.349963E-02
   18 C6          4.583413E-04  -5.793450E-03   6.437513E-02
   19 C7          2.458210E-02   3.810738E-03   8.568966E-03
   20 C8          1.545709E-03  -2.271967E-03   4.772508E-04
   21 C9         -9.953636E-04  -2.861703E-03  -2.111446E-03
   22 C10         1.266615E-02   4.054808E-03   8.288683E-03
   23 C11         2.320771E-02  -1.184937E-02  -3.667949E-03
   24 C12         2.058076E-02   9.207398E-03  -6.238364E-02
   25 C13         1.680310E-02   5.696761E-04  -2.923787E-03
   26 C14        -4.210958E-03   1.430961E-03  -1.752521E-03
   27 C15         6.542858E-04   4.036566E-04   3.525404E-03
   28 C16         3.590514E-02  -4.155575E-03  -2.344299E-02
   29 C17         2.018187E-02   2.427229E-02  -8.895410E-02
   30 C18        -3.316028E-02   3.276659E-02  -1.933433E-02
   31 C19        -4.118648E-02   7.151738E-03  -6.533458E-03
   32 C20        -2.488120E-02  -3.817987E-02  -5.471277E-03
   33 C21         2.413056E-02  -1.997430E-02  -2.168936E-01
   34 C22        -2.449199E-03  -2.758199E-02  -2.393643E-02
   35 H23         1.063708E-02  -1.853828E-02  -1.156968E-02
   36 H24        -3.962416E-03  -5.798258E-03  -9.538104E-03
   37 H25        -1.125185E-03   1.731069E-03  -1.078867E-02
   38 H26         1.430369E-03   1.037506E-02  -8.046003E-03
   39 H27         2.350382E-02   1.057310E-02  -8.081707E-03
   40 H28        -1.029966E-02  -1.490528E-03   1.163092E-02
   41 H29        -7.985172E-03  -8.785779E-04   8.455461E-03
   42 H30        -1.979828E-03  -1.914976E-03   1.061077E-02
   43 H31         3.811847E-02  -2.094524E-02   1.546595E-02
   44 H32        -7.862770E-03  -4.762388E-03  -2.809751E-03
   45 H33         4.252463E-03  -1.663194E-02  -4.639192E-03
   46 H34         1.194835E-02   1.486106E-02  -1.215123E-01
   47 H35        -3.258664E-02   2.216041E-02   7.330082E-03
   48 H36         1.596836E-03   2.162778E-02   4.378899E-03
   49 H37         3.893361E-03  -7.743751E-03   8.180237E-03
   50 H38        -8.286281E-03  -3.149684E-02  -4.278799E-02
   51 H39         1.021692E-02  -4.502513E-03   3.956700E-04
   52 H40         1.092174E-02   5.784776E-02   1.352988E-02
   53 H41        -8.365934E-04  -2.275082E-03  -1.377425E-02
   54 H42         8.840107E-03  -4.555966E-02  -7.089089E-03
   55 H43         1.044498E-02   5.215744E-03   2.581820E-03
   56 H44         7.418389E-02   1.104517E-01  -5.433888E-01
   57 H45         1.489881E-03   1.090645E-02  -1.022907E-03
   58 H46        -1.070712E-02  -1.358954E-03  -2.224127E-03
   59 H47         8.258618E-03  -2.415099E-02   4.793800E-03
   60 H48        -1.573864E-02  -3.518827E-03   4.540839E-03
   61 H49         3.326823E-03   8.302261E-03   8.433753E-03
 -------------   -------------  -------------  -------------
     total       -6.109433E-05   6.735237E-04  -1.169265E-03
   
  end of program der1b
   
 Time(der1b)  user:     112.586  user+sys:     112.586  wallclock:      59.751
  
  start of program geopt
  
 ----------------------------------------------------------------------------
  Geometry optimization step  1
  Total energy:     -1589.25974735981 hartrees
 ----------------------------------------------------------------------------
  
  
  Level shifts adjusted to satisfy step-size constraints
   Step size:    0.3000741
   Cos(theta):   0.8677057
   Final level shift:  -3.9510849E+00
  
  gradient maximum:        8.9612E-01 .  (  2.2500E-03 )
  gradient rms:            1.3725E-01 .  (  1.5000E-03 )
  displacement maximum:    1.5365E-01 .  (  9.0000E-03 )
  displacement rms:        2.0752E-02 .  (  6.0000E-03 )
  
  predicted energy change:  -4.3610E-01
  step size:     0.30000
  trust radius:  0.30000
  
  molecular structure not yet converged...
  
  center of mass moved by:
     x:    -1.2514E-01     y:     4.0574E-02     z:     6.4806E-02
  
  new geometry: 
                                   angstroms
  atom               x                 y                 z
  P1            0.0068799089     -0.0252366655     -0.0651857870 
  Pd2          -0.1173543112      0.0364883614      2.2095536802 
  Br3          -0.3106579598     -2.5155930691      2.4237035097 
  C73           0.2123037771      4.7807763226      2.3059831491 
  C74          -1.0375228436      4.2060390082      2.1420343792 
  C75          -1.1462836920      2.8144854882      2.1381764166 
  C76          -0.0128412270      2.0108456110      2.3203146853 
  C77           1.2333166532      2.6246694423      2.4793855296 
  C78           1.3531355347      4.0131206073      2.4751714638 
  F79           0.3210010221      6.1290650071      2.2965925415 
  H80          -1.9078914922      4.8425514436      2.0126299915 
  H81          -2.1190904235      2.3650936991      1.9905525323 
  H82           2.1271226829      2.0212334122      2.5690154577 
  H83           2.3155858047      4.5012800835      2.5927093691 
  C3            1.4774499820     -0.0628711519     -0.5562296938 
  C4           -0.6622428794      1.2494130152     -0.6391792277 
  C5           -0.6186426374     -1.3483747233     -0.5785477064 
  C6            2.8837818002     -0.5116027963      1.5999629319 
  C7            3.3993899342      0.4847258810      2.4679325297 
  C8            3.6383519895      0.2989420324      3.8387275497 
  C9            3.3820126850     -0.9339271557      4.4431805280 
  C10           2.8780727150     -1.9539776699      3.6343371464 
  C11           2.6434360976     -1.7319342875      2.2682529323 
  C12           2.6924758566     -0.2842462192      0.1880282415 
  C13           3.8707815150     -0.2744070667     -0.6020529843 
  C14           3.9227627279     -0.0773357572     -1.9853252049 
  C15           2.7390552925      0.1286211515     -2.6832041156 
  C16           1.5519581971      0.1290045118     -1.9514227759 
  C17           0.1303562681      2.4831610655     -0.1657942854 
  C18          -0.9306898549      1.4540240504     -2.1488640852 
  C19          -2.0788126804      1.3657997278     -0.0264639180 
  C20          -2.1236556716     -1.4989544030     -0.2694023966 
  C21           0.0651925675     -2.4914436397      0.1959418845 
  C22          -0.4396549002     -1.7241910176     -2.0662587657 
  H23           3.6551921308      1.4954725605      2.1324385237 
  H24           4.0414538722      1.1244383844      4.4479963853 
  H25           3.5653205669     -1.0935858504      5.5176818508 
  H26           2.6632746843     -2.9396236774      4.0783129780 
  H27           2.2510677935     -2.6106811121      1.7621124328 
  H28           4.8706591590     -0.4266772124     -0.1815789491 
  H29           4.8856298036     -0.0849618544     -2.5221261797 
  H30           2.7399508336      0.2856381364     -3.7739085049 
  H31           0.6504476859      0.2898249782     -2.5429987039 
  H32           1.1341990546      2.5342486263     -0.6404952193 
  H33          -0.3931097371      3.4298682998     -0.4237576994 
  H34           0.2749297129      2.4617278151      0.9402221855 
  H35          -0.0142144442      1.5026229743     -2.7660713517 
  H36          -1.5934302969      0.6704589664     -2.5676783054 
  H37          -1.4554345124      2.4188268105     -2.3270276046 
  H38          -2.0483730234      1.3322283952      1.0822218590 
  H39          -2.5756474931      2.3209756023     -0.3085590407 
  H40          -2.7462253942      0.5475703196     -0.3618571354 
  H41          -2.3410415267     -1.2929517382      0.8018989137 
  H42          -2.7457072401     -0.8189065874     -0.8838680494 
  H43          -2.4840441631     -2.5291770823     -0.4865350405 
  H44          -0.0907142664     -2.3635014912      1.3140608210 
  H45          -0.3381671579     -3.4870433660     -0.0947856307 
  H46           1.1613814168     -2.5156249840      0.0057861813 
  H47          -0.8696722071     -0.9714275866     -2.7549369136 
  H48           0.6282224188     -1.8726525684     -2.3320021688 
  H49          -0.9492529440     -2.6858315787     -2.2970764204 
   
 
  bond lengths (angstroms):
 
 P1      -Pd2     :   2.278966      P1      -C3      :   1.550844
 P1      -C4      :   1.549815      P1      -C5      :   1.550972
 Pd2     -Br3     :   2.568335      Pd2     -C76     :   1.980222
 Br3     -H44     :   1.141409      C73     -C74     :   1.385377
 C73     -C78     :   1.385430      C73     -F79     :   1.352696
 C74     -C75     :   1.395803      C74     -H80     :   1.086018
 C75     -C76     :   1.401322      C75     -H81     :   1.081711
 C76     -C77     :   1.398211      C77     -C78     :   1.393618
 C77     -H82     :   1.082154      C78     -H83     :   1.085553
 C3      -C12     :   1.441948      C3      -C16     :   1.410295
 C4      -C17     :   1.540922      C4      -C18     :   1.546958
 C4      -C19     :   1.547784      C5      -C20     :   1.543797
 C5      -C21     :   1.540802      C5      -C22     :   1.544849
 C6      -C7      :   1.418412      C6      -C11     :   1.411944
 C6      -C12     :   1.442861      C7      -C8      :   1.403815
 C7      -H23     :   1.095262      C8      -C9      :   1.396796
 C8      -H24     :   1.102336      C9      -C10     :   1.395953
 C9      -H25     :   1.101656      C10     -C11     :   1.403761
 C10     -H26     :   1.102157      C11     -H27     :   1.087349
 C12     -C13     :   1.418707      C13     -C14     :   1.398206
 C13     -H28     :   1.095326      C14     -C15     :   1.389466
 C14     -H29     :   1.102418      C15     -C16     :   1.394526
 C15     -H30     :   1.101949      C16     -H31     :   1.090205
 C17     -H32     :   1.111599      C17     -H33     :   1.112122
 C17     -H34     :   1.115631      C18     -H35     :   1.105999
 C18     -H36     :   1.108424      C18     -H37     :   1.112629
 C19     -H38     :   1.109612      C19     -H39     :   1.113006
 C19     -H40     :   1.107893      C20     -H41     :   1.112376
 C20     -H42     :   1.107692      C20     -H43     :   1.112828
 C21     -H44     :   1.136163      C21     -H45     :   1.112852
 C21     -H46     :   1.112823      C22     -H47     :   1.107179
 C22     -H48     :   1.110415      C22     -H49     :   1.112528
 
  bond angles:
 
 C3      -P1      -Pd2     : 111.616481  C4      -P1      -Pd2     : 108.896774
 C4      -P1      -C3      : 108.185028  C5      -P1      -Pd2     : 109.359853
 C5      -P1      -C3      : 104.887935  C5      -P1      -C4      : 113.886269
 Br3     -Pd2     -P1      :  93.463681  C76     -Pd2     -P1      :  94.586108
 C76     -Pd2     -Br3     : 171.905538  H44     -Br3     -Pd2     :  76.822472
 C78     -C73     -C74     : 121.834107  F79     -C73     -C74     : 119.024299
 F79     -C73     -C78     : 119.141318  C75     -C74     -C73     : 118.961387
 H80     -C74     -C73     : 119.601787  H80     -C74     -C75     : 121.435372
 C76     -C75     -C74     : 120.554472  H81     -C75     -C74     : 118.988428
 H81     -C75     -C76     : 120.457006  C75     -C76     -Pd2     : 121.455040
 C77     -C76     -Pd2     : 119.413498  C77     -C76     -C75     : 118.940485
 C78     -C77     -C76     : 120.908073  H82     -C77     -C76     : 120.049763
 H82     -C77     -C78     : 118.999058  C77     -C78     -C73     : 118.790562
 H83     -C78     -C73     : 119.611989  H83     -C78     -C77     : 121.595550
 C12     -C3      -P1      : 129.740396  C16     -C3      -P1      : 111.102344
 C16     -C3      -C12     : 119.142977  C17     -C4      -P1      : 108.823160
 C18     -C4      -P1      : 123.034480  C18     -C4      -C17     : 106.449253
 C19     -C4      -P1      : 108.081729  C19     -C4      -C17     : 106.794600
 C19     -C4      -C18     : 102.565832  C20     -C5      -P1      : 114.211546
 C21     -C5      -P1      : 106.709340  C21     -C5      -C20     : 105.049354
 C22     -C5      -P1      : 118.656564  C22     -C5      -C20     : 106.383520
 C22     -C5      -C21     : 104.605778  C11     -C6      -C7      : 112.293071
 C12     -C6      -C7      : 122.433997  C12     -C6      -C11     : 125.224851
 C8      -C7      -C6      : 124.503334  H23     -C7      -C6      : 123.071085
 H23     -C7      -C8      : 112.425539  C9      -C8      -C7      : 120.539666
 H24     -C8      -C7      : 120.188593  H24     -C8      -C9      : 119.268626
 C10     -C9      -C8      : 117.417687  H25     -C9      -C8      : 121.295842
 H25     -C9      -C10     : 121.285683  C11     -C10     -C9      : 120.572347
 H26     -C10     -C9      : 119.368461  H26     -C10     -C11     : 120.059139
 C10     -C11     -C6      : 124.671279  H27     -C11     -C6      : 122.655663
 H27     -C11     -C10     : 112.673003  C6      -C12     -C3      : 129.866279
 C13     -C12     -C3      : 114.288746  C13     -C12     -C6      : 115.844974
 C14     -C13     -C12     : 125.648354  H28     -C13     -C12     : 122.917139
 H28     -C13     -C14     : 111.434450  C15     -C14     -C13     : 119.085856
 H29     -C14     -C13     : 120.878910  H29     -C14     -C15     : 120.035201
 C16     -C15     -C14     : 117.495130  H30     -C15     -C14     : 121.169223
 H30     -C15     -C16     : 121.335647  C15     -C16     -C3      : 124.337684
 H31     -C16     -C3      : 120.877217  H31     -C16     -C15     : 114.784925
 H32     -C17     -C4      : 111.722449  H33     -C17     -C4      : 111.604697
 H33     -C17     -H32     : 106.671569  H34     -C17     -C4      : 110.844657
 H34     -C17     -H32     : 107.891726  H34     -C17     -H33     : 107.897039
 H35     -C18     -C4      : 113.992958  H36     -C18     -C4      : 112.271621
 H36     -C18     -H35     : 108.400556  H37     -C18     -C4      : 110.659039
 H37     -C18     -H35     : 105.268625  H37     -C18     -H36     : 105.694051
 H38     -C19     -C4      : 111.601796  H39     -C19     -C4      : 111.885060
 H39     -C19     -H38     : 106.944916  H40     -C19     -C4      : 112.084253
 H40     -C19     -H38     : 107.257058  H40     -C19     -H39     : 106.748722
 H41     -C20     -C5      : 111.426518  H42     -C20     -C5      : 112.117082
 H42     -C20     -H41     : 108.107577  H43     -C20     -C5      : 111.526983
 H43     -C20     -H41     : 107.221703  H43     -C20     -H42     : 106.156245
 H44     -C21     -C5      : 110.501271  H45     -C21     -C5      : 111.809469
 H45     -C21     -H44     : 107.944985  H46     -C21     -C5      : 111.556126
 H46     -C21     -H44     : 107.805174  H46     -C21     -H45     : 107.035068
 H47     -C22     -C5      : 112.867946  H48     -C22     -C5      : 111.988163
 H48     -C22     -H47     : 108.394231  H49     -C22     -C5      : 110.916304
 H49     -C22     -H47     : 106.303708  H49     -C22     -H48     : 105.979231
 C21     -H44     -Br3     : 165.504414
 
  torsional angles:
 
 P1      -Pd2     -Br3     -H44     :   7.538724
 P1      -Pd2     -C76     -C75     :  82.442571
 P1      -Pd2     -C76     -C77     : -92.481427
 P1      -C3      -C12     -C6      :  -1.105975
 P1      -C3      -C12     -C13     : 178.882918
 P1      -C3      -C16     -C15     :-179.143316
 P1      -C3      -C16     -H31     :   0.696799
 P1      -C4      -C17     -H32     :  69.123289
 P1      -C4      -C17     -H33     :-171.540993
 P1      -C4      -C17     -H34     : -51.245136
 P1      -C4      -C18     -H35     : -63.928739
 P1      -C4      -C18     -H36     :  59.826744
 P1      -C4      -C18     -H37     : 177.654656
 P1      -C4      -C19     -H38     :  53.877070
 P1      -C4      -C19     -H39     : 173.670234
 P1      -C4      -C19     -H40     : -66.453597
 P1      -C5      -C20     -H41     : -49.821062
 P1      -C5      -C20     -H42     :  71.503289
 P1      -C5      -C20     -H43     :-169.602740
 P1      -C5      -C21     -H44     :  58.618542
 P1      -C5      -C21     -H45     : 178.878295
 P1      -C5      -C21     -H46     : -61.296688
 P1      -C5      -C22     -H47     : -60.033916
 P1      -C5      -C22     -H48     :  62.624907
 P1      -C5      -C22     -H49     :-179.201125
 Pd2     -P1      -C3      -C12     :  11.461209
 Pd2     -P1      -C3      -C16     :-169.950375
 Pd2     -P1      -C4      -C17     :  63.127153
 Pd2     -P1      -C4      -C18     :-171.526695
 Pd2     -P1      -C4      -C19     : -52.494250
 Pd2     -P1      -C5      -C20     :  63.321816
 Pd2     -P1      -C5      -C21     : -52.287264
 Pd2     -P1      -C5      -C22     :-169.938606
 Pd2     -Br3     -H44     -C21     :-170.291186
 Pd2     -C76     -C75     -C74     :-176.210618
 Pd2     -C76     -C75     -H81     :   3.676281
 Pd2     -C76     -C77     -C78     : 175.861169
 Pd2     -C76     -C77     -H82     :  -1.727002
 Br3     -Pd2     -P1      -C3      : -93.175155
 Br3     -Pd2     -P1      -C4      : 147.453700
 Br3     -Pd2     -P1      -C5      :  22.429756
 Br3     -Pd2     -C76     -C75     : -91.520940
 Br3     -Pd2     -C76     -C77     :  93.555061
 Br3     -H44     -C21     -C5      : 134.017791
 Br3     -H44     -C21     -H45     :  11.468903
 Br3     -H44     -C21     -H46     :-103.836351
 C73     -C74     -C75     -C76     :   1.090610
 C73     -C74     -C75     -H81     :-178.797932
 C73     -C78     -C77     -C76     :  -0.189427
 C73     -C78     -C77     -H82     : 177.423678
 C74     -C73     -C78     -C77     :   0.010533
 C74     -C73     -C78     -H83     : 179.517459
 C74     -C75     -C76     -C77     :  -1.263214
 C75     -C74     -C73     -C78     :  -0.458798
 C75     -C74     -C73     -F79     : 179.348287
 C75     -C76     -C77     -C78     :   0.808817
 C75     -C76     -C77     -H82     :-176.779354
 C76     -Pd2     -P1      -C3      :  87.674828
 C76     -Pd2     -P1      -C4      : -31.696317
 C76     -Pd2     -P1      -C5      :-156.720261
 C76     -Pd2     -Br3     -H44     :-178.489419
 C76     -C75     -C74     -H80     :-179.349838
 C76     -C77     -C78     -H83     :-179.686150
 C77     -C76     -C75     -H81     : 178.623684
 C77     -C78     -C73     -F79     :-179.796331
 C78     -C73     -C74     -H80     : 179.973418
 F79     -C73     -C74     -H80     :  -0.219498
 F79     -C73     -C78     -H83     :  -0.289406
 H80     -C74     -C75     -H81     :   0.761621
 H82     -C77     -C78     -H83     :  -2.073045
 C3      -P1      -C4      -C17     : -58.359262
 C3      -P1      -C4      -C18     :  66.986890
 C3      -P1      -C4      -C19     :-173.980665
 C3      -P1      -C5      -C20     :-176.846941
 C3      -P1      -C5      -C21     :  67.543979
 C3      -P1      -C5      -C22     : -50.107362
 C3      -C12     -C6      -C7      :-105.261977
 C3      -C12     -C6      -C11     :  77.457230
 C3      -C12     -C13     -C14     :  -0.179632
 C3      -C12     -C13     -H28     : 179.914541
 C3      -C16     -C15     -C14     :   0.116345
 C3      -C16     -C15     -H30     :-179.881739
 C4      -P1      -C3      -C12     : 131.252884
 C4      -P1      -C3      -C16     : -50.158700
 C4      -P1      -C5      -C20     : -58.753525
 C4      -P1      -C5      -C21     :-174.362604
 C4      -P1      -C5      -C22     :  67.986054
 C5      -P1      -C3      -C12     :-106.853330
 C5      -P1      -C3      -C16     :  71.735086
 C5      -P1      -C4      -C17     :-174.542486
 C5      -P1      -C4      -C18     : -49.196335
 C5      -P1      -C4      -C19     :  69.836110
 C6      -C7      -C8      -C9      :   0.650868
 C6      -C7      -C8      -H24     :-179.995807
 C6      -C11     -C10     -C9      :   0.125862
 C6      -C11     -C10     -H26     :-179.957848
 C6      -C12     -C3      -C16     :-179.598156
 C6      -C12     -C13     -C14     : 179.810895
 C6      -C12     -C13     -H28     :  -0.094932
 C7      -C6      -C11     -C10     :   0.129616
 C7      -C6      -C11     -H27     :-179.779554
 C7      -C6      -C12     -C13     :  74.749272
 C7      -C8      -C9      -C10     :  -0.341923
 C7      -C8      -C9      -H25     : 179.976884
 C8      -C7      -C6      -C11     :  -0.515106
 C8      -C7      -C6      -C12     :-178.114556
 C8      -C9      -C10     -C11     :  -0.021613
 C8      -C9      -C10     -H26     :-179.938477
 C9      -C8      -C7      -H23     :-179.422249
 C9      -C10     -C11     -H27     :-179.957015
 C10     -C9      -C8      -H24     :-179.701150
 C10     -C11     -C6      -C12     : 177.649337
 C11     -C6      -C7      -H23     : 179.565549
 C11     -C6      -C12     -C13     :-102.531521
 C11     -C10     -C9      -H25     : 179.659615
 C12     -C3      -C16     -C15     :  -0.386049
 C12     -C3      -C16     -H31     : 179.454066
 C12     -C6      -C7      -H23     :   1.966098
 C12     -C6      -C11     -H27     :  -2.259833
 C12     -C13     -C14     -C15     :  -0.077836
 C12     -C13     -C14     -H29     : 179.987867
 C13     -C12     -C3      -C16     :   0.390737
 C13     -C14     -C15     -C16     :   0.115905
 C13     -C14     -C15     -H30     :-179.886008
 C14     -C15     -C16     -H31     :-179.732508
 C15     -C14     -C13     -H28     : 179.837236
 C16     -C15     -C14     -H29     :-179.949231
 C17     -C4      -C18     -H35     :  62.461331
 C17     -C4      -C18     -H36     :-173.783186
 C17     -C4      -C18     -H37     : -55.955274
 C17     -C4      -C19     -H38     : -63.064007
 C17     -C4      -C19     -H39     :  56.729158
 C17     -C4      -C19     -H40     : 176.605327
 C18     -C4      -C17     -H32     : -65.397610
 C18     -C4      -C17     -H33     :  53.938108
 C18     -C4      -C17     -H34     : 174.233965
 C18     -C4      -C19     -H38     :-174.799089
 C18     -C4      -C19     -H39     : -55.005924
 C18     -C4      -C19     -H40     :  64.870245
 C19     -C4      -C17     -H32     :-174.427635
 C19     -C4      -C17     -H33     : -55.091916
 C19     -C4      -C17     -H34     :  65.203941
 C19     -C4      -C18     -H35     : 174.453346
 C19     -C4      -C18     -H36     : -61.791171
 C19     -C4      -C18     -H37     :  56.036741
 C20     -C5      -C21     -H44     : -62.989636
 C20     -C5      -C21     -H45     :  57.270117
 C20     -C5      -C21     -H46     : 177.095134
 C20     -C5      -C22     -H47     :  70.342433
 C20     -C5      -C22     -H48     :-166.998744
 C20     -C5      -C22     -H49     : -48.824776
 C21     -C5      -C20     -H41     :  66.752341
 C21     -C5      -C20     -H42     :-171.923308
 C21     -C5      -C20     -H43     : -53.029337
 C21     -C5      -C22     -H47     :-178.784900
 C21     -C5      -C22     -H48     : -56.126077
 C21     -C5      -C22     -H49     :  62.047891
 C22     -C5      -C20     -H41     : 177.314533
 C22     -C5      -C20     -H42     : -61.361115
 C22     -C5      -C20     -H43     :  57.532855
 C22     -C5      -C21     -H44     :-174.822635
 C22     -C5      -C21     -H45     : -54.562882
 C22     -C5      -C21     -H46     :  65.262136
 H23     -C7      -C8      -H24     :  -0.068924
 H24     -C8      -C9      -H25     :   0.617656
 H25     -C9      -C10     -H26     :  -0.257249
 H26     -C10     -C11     -H27     :  -0.040725
 H28     -C13     -C14     -H29     :  -0.097062
 H29     -C14     -C15     -H30     :   0.048855
 H30     -C15     -C16     -H31     :   0.269408
 
  nuclear repulsion energy.......          3768.809118959 hartrees
 -------------------------------------------------
   end of geometry optimization iteration  1
 -------------------------------------------------
   
  end of program geopt
   
 Time(geopt)  user:       0.605  user+sys:       0.605  wallclock:       0.648
  
  start of program onee
  
  smallest eigenvalue of S:    4.045E-04
  number of canonical orbitals.....          495
  end of program onee
   
 Time(onee)  user:       5.333  user+sys:       5.333  wallclock:       3.745
  
  start of program probe
  
  end of program probe
   
 Time(probe)  user:       0.404  user+sys:       0.404  wallclock:       0.345
  
  start of program grid
  
  end of program grid
   
 Time(grid)  user:     168.480  user+sys:     168.480  wallclock:      86.444
  
  start of program rwr
  
  end of program rwr
   
 Time(rwr)  user:      14.880  user+sys:      14.880  wallclock:      18.936
  
  start of program scf
  
 Energy computed using pseudospectral method.
 Convergence Criterion:
    Energy (econv):       1.00E-05
    RMS density (dconv):  5.00E-06
  
       i  u  d  i  g                   
       t  p  i  c  r                                 RMS    maximum
       e  d  i  u  i                       energy  density   DIIS  
       r  t  s  t  d       total energy    change  change    error 
  
etot    1  N  N  2  U   -1589.44759166042           1.0E-03  1.5E-02
etot    2  Y  Y  6  M   -1589.50998049793  6.2E-02  7.9E-04  5.2E-03
etot    3  N  Y  2  U   -1589.51045814146  4.8E-04  2.6E-04  9.3E-03
etot    4  Y  Y  6  M   -1589.52310245788  1.3E-02  9.0E-05  2.0E-03
etot    5  N  Y  2  U   -1589.52374620780  6.4E-04  4.1E-05  5.8E-04
etot    6  N  Y  2  U   -1589.52382757785  8.1E-05  2.1E-05  2.6E-04
etot    7  N  Y  2  U   -1589.52385364721  2.6E-05  7.6E-06  4.9E-05
etot    8  N  Y  2  U   -1589.52385496329  1.3E-06  2.7E-06  2.4E-05
etot    9  N  N  2  U   -1589.52385534297  3.8E-07  0.0E+00  0.0E+00
 
  Computing the dispersion energy correction and its gradients...
  
  
 Energy components, in hartrees:
   (A)  Nuclear repulsion............    3768.80911895936
   (E)  Total one-electron terms.....   -9726.30999812051
   (F)    Electron-nuclear...........  -11222.17221916006
   (H)    Kinetic....................    1495.86222103955
   (I)  Total two-electron terms.....    4367.97702381818
   (J)    Coulomb....................    4570.11225138470
   (K)    Exchange+Correlation.......    -202.13522756652
   (L)  Electronic energy............   -5358.33297430233  (E+I)
   (N0) D3 correction................      -0.12609285813
   (N)  Total energy.................   -1589.64994820110  (A+L+N0)
   (O)  Gas phase energy.............   -1589.64994820110
  
 SCFE: SCF energy: DFT(b3pw91-d3)     -1589.64994820110 hartrees   iterations:   9
  
 
 HOMO energy:    -0.13224
 LUMO energy:    -0.07676
 
  Orbital energies (hartrees): 
   -77.04332   -24.67861   -10.24526   -10.21742   -10.19839   -10.19678
   -10.19418   -10.19362   -10.19207   -10.18444   -10.18306   -10.18264
   -10.18102   -10.18062   -10.17907   -10.17892   -10.17740   -10.17620
   -10.17431   -10.17396   -10.16943   -10.16919   -10.16484   -10.16434
   -10.16154   -10.15923   -10.13281   -10.12623    -6.56863    -4.72473
    -4.72447    -4.72278    -3.33127    -2.06629    -2.06070    -2.03192
    -1.21033    -0.92479    -0.88448    -0.87470    -0.86595    -0.85390
    -0.82371    -0.79916    -0.78805    -0.75461    -0.75040    -0.74547
    -0.74315    -0.72123    -0.70857    -0.69142    -0.68418    -0.66955
    -0.64257    -0.62627    -0.62094    -0.60551    -0.59802    -0.59612
    -0.58950    -0.55745    -0.53992    -0.52478    -0.51208    -0.50191
    -0.49883    -0.49129    -0.48231    -0.47734    -0.47449    -0.47335
    -0.46536    -0.46009    -0.45677    -0.45026    -0.44655    -0.44347
    -0.43974    -0.43171    -0.42598    -0.41798    -0.40991    -0.40569
    -0.40320    -0.40199    -0.39732    -0.39184    -0.38682    -0.38491
    -0.37789    -0.37372    -0.36615    -0.36386    -0.35901    -0.35697
    -0.35280    -0.34833    -0.33888    -0.33669    -0.32889    -0.32213
    -0.31713    -0.31125    -0.29929    -0.29490    -0.28825    -0.27764
    -0.27492    -0.26754    -0.26231    -0.25157    -0.25101    -0.24526
    -0.23910    -0.21163    -0.20215    -0.13224    -0.07676    -0.05125
    -0.03198    -0.01333    -0.00918    -0.00304     0.00933     0.03122
     0.05037     0.06037
 
  end of program scf
   
 Time(scf)  user:     318.935  user+sys:     318.935  wallclock:     169.419
  
  start of program der1a
  
  end of program der1a
   
 Time(der1a)  user:      16.795  user+sys:      16.795  wallclock:       9.024
  
  start of program rwr
  
  end of program rwr
   
 Time(rwr)  user:      15.397  user+sys:      15.397  wallclock:      19.887
  
  start of program der1b
  
   
  forces (hartrees/bohr) : total     
   
 atom  label           x              y              z
 ---- --------   -------------  -------------  -------------
    1 P1         -9.519200E-03   1.918685E-02   2.067252E-01
    2 Pd2        -1.165923E-03  -1.656604E-02   1.831890E-02
    3 Br3        -1.164903E-01  -4.788891E-02   5.535034E-01
    4 C73         7.237037E-04   6.121409E-03  -2.015332E-03
    5 C74        -6.691371E-03  -4.716025E-03   4.222177E-03
    6 C75        -7.700248E-03   2.386412E-02   4.588073E-02
    7 C76        -7.357834E-03  -1.153057E-02   4.455665E-02
    8 C77         1.790592E-03   1.105834E-02   2.675882E-02
    9 C78         2.856396E-03  -2.041785E-03   2.388272E-03
   10 F79        -4.118777E-04  -4.050623E-03  -6.394648E-04
   11 H80        -9.351407E-05   5.227874E-04   5.202387E-05
   12 H81         2.755131E-03   1.470089E-02   1.467750E-02
   13 H82        -9.913709E-03   5.126030E-03   7.441094E-04
   14 H83         6.591264E-04   6.631888E-04  -1.155809E-04
   15 C3          2.101081E-01  -3.047131E-03  -5.869065E-02
   16 C4         -1.125201E-01   2.021507E-01  -8.218138E-02
   17 C5         -9.572639E-02  -2.068184E-01  -6.288575E-02
   18 C6         -4.915458E-04  -3.945820E-03   6.127883E-02
   19 C7          1.489046E-02   9.401736E-03   3.253622E-03
   20 C8          1.670887E-03  -3.617919E-03   6.976181E-04
   21 C9         -1.661352E-03  -6.520695E-04  -7.139053E-04
   22 C10         4.479049E-03   2.766367E-03   2.802108E-03
   23 C11         2.881764E-03  -1.433903E-02  -3.861748E-04
   24 C12         9.811460E-03   7.730171E-03  -6.029483E-02
   25 C13         1.548645E-02   7.213319E-05  -2.076191E-03
   26 C14        -2.161728E-03   1.276867E-03  -3.135325E-03
   27 C15         5.867822E-04   6.905693E-04   1.105204E-03
   28 C16         2.595476E-02  -2.526619E-03  -1.892904E-02
   29 C17         2.121457E-02   1.985886E-02  -3.114005E-02
   30 C18        -1.444461E-02   1.329868E-02  -2.151990E-02
   31 C19        -2.924619E-02   1.143129E-03   3.377367E-03
   32 C20        -2.189559E-02  -1.120331E-02   1.425177E-03
   33 C21         3.490171E-02  -2.263738E-02  -1.578779E-01
   34 C22         2.013036E-03  -1.389910E-02  -2.119254E-02
   35 H23         2.309539E-03  -1.090499E-02  -1.155535E-02
   36 H24        -4.240107E-03  -5.482565E-03  -8.274663E-03
   37 H25        -1.569715E-03   1.454124E-03  -9.816818E-03
   38 H26        -1.378611E-06   8.913201E-03  -7.479836E-03
   39 H27         5.260534E-03   6.365789E-03  -8.033748E-03
   40 H28        -9.897082E-03  -1.049449E-03   1.172230E-02
   41 H29        -7.488497E-03  -5.183448E-04   7.729941E-03
   42 H30        -1.970082E-03  -1.526648E-03   9.857647E-03
   43 H31         2.139121E-02  -1.273278E-02   1.289686E-02
   44 H32        -8.504414E-03  -2.270069E-03   2.037852E-04
   45 H33         1.940767E-03  -1.193614E-02   3.928709E-04
   46 H34         7.444420E-03   6.325531E-03  -7.409008E-02
   47 H35        -1.882715E-02   1.249443E-02   4.976592E-03
   48 H36         4.504054E-03   7.641166E-03   2.549926E-03
   49 H37         3.855395E-03  -8.501631E-03   7.025816E-03
   50 H38        -4.201260E-03  -1.705895E-02  -3.103552E-02
   51 H39         8.772434E-03  -6.217151E-03   1.385518E-03
   52 H40         8.415182E-03   2.476583E-02   4.428349E-03
   53 H41         1.034308E-04  -1.251166E-03  -1.181614E-02
   54 H42         6.242574E-03  -1.798896E-02   2.181566E-03
   55 H43         8.716136E-03   7.541375E-03   2.571985E-03
   56 H44         7.664583E-02   4.255191E-02  -3.883955E-01
   57 H45         1.414782E-03   9.966186E-03  -7.914053E-04
   58 H46        -8.983180E-03  -9.462524E-04  -9.478005E-04
   59 H47         2.796333E-03  -9.128019E-03   3.859590E-03
   60 H48        -1.302608E-02  -2.223621E-04   2.695979E-03
   61 H49         2.942285E-03   9.259598E-03   7.234258E-03
 -------------   -------------  -------------  -------------
     total       -6.615190E-04  -3.041487E-04  -2.550197E-03
   
  end of program der1b
   
 Time(der1b)  user:     107.207  user+sys:     107.207  wallclock:      57.032
  
  start of program geopt
  
 ----------------------------------------------------------------------------
  Geometry optimization step  2
  Total energy:     -1589.64994820110 hartrees
 ----------------------------------------------------------------------------
  
  
  Level shifts adjusted to satisfy step-size constraints
   Step size:    0.3000810
   Cos(theta):   0.8835084
   Final level shift:  -2.0871507E+00
  
  energy change:          -3.9020E-01 .  (  2.5000E-04 )
  gradient maximum:        5.3371E-01 .  (  2.2500E-03 )
  gradient rms:            7.5329E-02 .  (  1.5000E-03 )
  displacement maximum:    1.8925E-01 .  (  9.0000E-03 )
  displacement rms:        2.0756E-02 .  (  6.0000E-03 )
  
  predicted energy change:  -2.3831E-01
  step size:     0.30007
  trust radius:  0.30000
  
  molecular structure not yet converged...
  
  center of mass moved by:
     x:     9.6094E-02     y:     4.3725E-02     z:     4.7532E-02
  
  new geometry: 
                                   angstroms
  atom               x                 y                 z
  P1           -0.0198352718     -0.0182547547     -0.1180007591 
  Pd2          -0.0564688022      0.0638462037      2.1802300608 
  Br3          -0.1862512900     -2.4797671440      2.5173615830 
  C73           0.2164028307      4.8147307720      2.4694831029 
  C74          -1.0332035455      4.2287134502      2.3506265362 
  C75          -1.1256649010      2.8373629372      2.2978264390 
  C76           0.0246416893      2.0388773283      2.3951859388 
  C77           1.2682373589      2.6675304334      2.5099741413 
  C78           1.3731858047      4.0566783744      2.5494857197 
  F79           0.3074732217      6.1628728214      2.5064949017 
  H80          -1.9167050531      4.8576293837      2.2911987316 
  H81          -2.1019408405      2.3861547676      2.1908561475 
  H82           2.1736801459      2.0777233839      2.5119460212 
  H83           2.3349816337      4.5533714261      2.6339270836 
  C3            1.4929041212     -0.0602359824     -0.6412272135 
  C4           -0.7774260767      1.2447342957     -0.7548806757 
  C5           -0.6621027574     -1.4022902450     -0.6016908656 
  C6            2.8197495859     -0.5203457093      1.5547369282 
  C7            3.3364841371      0.4567135538      2.4386564966 
[...]
    H29      Z    -0.00551  -0.01195   0.00000  -0.25993   0.00086   0.00323
    H30      X    -0.08325   0.00537   0.00017   0.04989  -0.00019  -0.00031
    H30      Y    -0.11311   0.00760   0.00018   0.07334  -0.00028  -0.00050
    H30      Z     0.64919  -0.04324  -0.00122  -0.41889   0.00155   0.00285
    H31      X    -0.08285   0.00539   0.00000   0.08745  -0.00056  -0.00202
    H31      Y     0.01729  -0.00115   0.00002  -0.01798   0.00012   0.00039
    H31      Z    -0.06838   0.00462   0.00005   0.07151  -0.00046  -0.00152
    H32      X     0.00251  -0.00045  -0.00107  -0.00153   0.00064   0.00016
    H32      Y    -0.00007   0.00005   0.00013  -0.00012  -0.00009   0.00001
    H32      Z    -0.00155   0.00025   0.00075   0.00099  -0.00037  -0.00013
    H33      X     0.00029   0.00011  -0.00059  -0.00064  -0.00001   0.00016
    H33      Y    -0.00028  -0.00018   0.00041   0.00070  -0.00003  -0.00020
    H33      Z     0.00019   0.00007  -0.00070  -0.00042   0.00003   0.00012
    H34      X    -0.00066   0.00031   0.00134   0.00008  -0.00042   0.00003
    H34      Y    -0.00098   0.00039   0.00075   0.00017  -0.00063   0.00008
    H34      Z    -0.00279   0.00115   0.00354   0.00057  -0.00178   0.00018
    H35      X     0.00699  -0.00043   0.00013  -0.00628   0.00004   0.00026
    H35      Y    -0.00156   0.00012  -0.00003   0.00134  -0.00001  -0.00005
    H35      Z    -0.00509   0.00030  -0.00010   0.00455  -0.00005  -0.00023
    H36      X     0.00084  -0.00009  -0.00018  -0.00139   0.00001   0.00020
    H36      Y     0.00128  -0.00008  -0.00025  -0.00212   0.00004   0.00027
    H36      Z     0.00011  -0.00002  -0.00003  -0.00016  -0.00001   0.00001
    H37      X     0.00058   0.00008  -0.00002  -0.00044   0.00010   0.00010
    H37      Y    -0.00117  -0.00010   0.00005   0.00091  -0.00014  -0.00014
    H37      Z     0.00055   0.00005  -0.00004  -0.00045   0.00010   0.00009
    H38      X    -0.00008   0.00009  -0.00012   0.00004  -0.00023   0.00001
    H38      Y    -0.00006   0.00014  -0.00028   0.00000  -0.00013   0.00005
    H38      Z    -0.00017   0.00028  -0.00063   0.00003  -0.00045   0.00005
    H39      X     0.00007   0.00020  -0.00019  -0.00025   0.00026   0.00010
    H39      Y    -0.00007  -0.00024   0.00024   0.00026  -0.00027  -0.00011
    H39      Z     0.00004   0.00016  -0.00019  -0.00013   0.00025   0.00007
    H40      X    -0.00006  -0.00012  -0.00006  -0.00007  -0.00030   0.00006
    H40      Y    -0.00011  -0.00013  -0.00009  -0.00013  -0.00043   0.00011
    H40      Z    -0.00000   0.00000   0.00004   0.00004   0.00005  -0.00003
    H41      X     0.00000   0.00005   0.00001   0.00003  -0.00001  -0.00017
    H41      Y    -0.00000  -0.00003   0.00002  -0.00000  -0.00003   0.00009
    H41      Z    -0.00010  -0.00031   0.00004  -0.00010  -0.00010   0.00071
    H42      X    -0.00008   0.00027  -0.00007  -0.00014   0.00009   0.00009
    H42      Y     0.00007  -0.00029   0.00009   0.00022  -0.00011  -0.00013
    H42      Z    -0.00002   0.00029  -0.00008  -0.00020   0.00011   0.00008
    H43      X    -0.00001  -0.00003  -0.00003  -0.00013   0.00002   0.00009
    H43      Y     0.00001  -0.00008  -0.00014  -0.00029   0.00008   0.00019
    H43      Z     0.00001  -0.00002  -0.00004  -0.00007   0.00003   0.00004
    H44      X     0.00012  -0.00030   0.00003  -0.00004   0.00003  -0.00016
    H44      Y    -0.00002  -0.00008   0.00003   0.00001  -0.00005   0.00021
    H44      Z    -0.00059  -0.00012  -0.00005   0.00023  -0.00015   0.00285
    H45      X     0.00001   0.00009  -0.00005  -0.00015   0.00002   0.00050
    H45      Y     0.00013   0.00020  -0.00016  -0.00041   0.00009   0.00125
    H45      Z     0.00001   0.00016  -0.00007  -0.00015   0.00005   0.00050
    H46      X     0.00018   0.00022   0.00012  -0.00017  -0.00005   0.00247
    H46      Y     0.00006  -0.00002   0.00001   0.00009  -0.00001   0.00015
    H46      Z    -0.00008  -0.00022  -0.00000   0.00002   0.00001   0.00002
    H47      X    -0.01146   0.00128  -0.00049   0.00255   0.00020  -0.00008
    H47      Y     0.01885  -0.00211   0.00081  -0.00411  -0.00034   0.00011
    H47      Z    -0.01737   0.00198  -0.00074   0.00378   0.00031  -0.00014
    H48      X    -0.00692   0.00073  -0.00035  -0.00072   0.00006   0.00038
    H48      Y    -0.00053   0.00005  -0.00001   0.00044  -0.00000  -0.00006
    H48      Z     0.00106  -0.00013   0.00007   0.00013  -0.00001  -0.00008
    H49      X     0.00210  -0.00021   0.00002  -0.00105  -0.00000   0.00014
    H49      Y     0.00387  -0.00037  -0.00002  -0.00209   0.00004   0.00032
    H49      Z     0.00117  -0.00013  -0.00003  -0.00046   0.00003   0.00009
  
  vibration #          175       176       177
                 --------- --------- ---------
  frequencies      3243.50   3251.46   3290.92
  intensities         1.88      5.25      1.20
  reduc. mass         0.83      0.86      0.91
  force const         5.12      5.38      5.83
    P1       X     0.00002  -0.00000   0.00001
    P1       Y     0.00001  -0.00002   0.00004
    P1       Z     0.00000   0.00017   0.00006
    Pd2      X    -0.00001  -0.00000   0.00003
    Pd2      Y    -0.00000   0.00000  -0.00001
    Pd2      Z     0.00000   0.00000  -0.00001
    Br3      X    -0.00000  -0.00000  -0.00001
    Br3      Y    -0.00001  -0.00000  -0.00001
    Br3      Z     0.00001  -0.00000   0.00000
    C73      X     0.00079   0.00001   0.00000
    C73      Y    -0.00099  -0.00003  -0.00001
    C73      Z    -0.00125  -0.00003  -0.00001
    C74      X     0.00122   0.00004   0.00002
    C74      Y    -0.00073  -0.00003  -0.00002
    C74      Z    -0.00136  -0.00005  -0.00002
    C75      X     0.00072   0.00001  -0.00005
    C75      Y    -0.00003   0.00001   0.00002
    C75      Z    -0.00057  -0.00000   0.00005
    C76      X     0.00184   0.00003  -0.00010
    C76      Y     0.00167   0.00001  -0.00005
    C76      Z    -0.00047  -0.00003  -0.00001
    C77      X    -0.04542  -0.00091  -0.00010
    C77      Y     0.03243   0.00067   0.00009
    C77      Z     0.05798   0.00117   0.00015
    C78      X    -0.01722  -0.00033  -0.00002
    C78      Y    -0.01219  -0.00023  -0.00002
    C78      Z     0.00564   0.00011   0.00001
    F79      X    -0.00002   0.00000   0.00000
    F79      Y     0.00017   0.00001   0.00001
    F79      Z     0.00013   0.00000   0.00000
    H80      X    -0.01229  -0.00042  -0.00019
    H80      Y     0.00911   0.00034   0.00020
    H80      Z     0.01491   0.00053   0.00027
    H81      X    -0.00468   0.00003   0.00076
    H81      Y    -0.00250  -0.00000   0.00040
    H81      Z     0.00192  -0.00002  -0.00040
    H82      X     0.52923   0.01071   0.00131
    H82      Y    -0.37219  -0.00769  -0.00086
    H82      Z    -0.66142  -0.01339  -0.00170
    H83      X     0.18338   0.00353   0.00036
    H83      Y     0.11250   0.00217   0.00025
    H83      Z    -0.07143  -0.00134  -0.00011
    C3       X     0.00012   0.00070   0.00002
    C3       Y     0.00015   0.00042  -0.00003
    C3       Z     0.00024  -0.00253   0.00009
    C4       X    -0.00001  -0.00019  -0.00000
    C4       Y    -0.00004  -0.00006  -0.00004
    C4       Z     0.00001  -0.00000  -0.00003
    C5       X    -0.00003  -0.00008   0.00004
    C5       Y     0.00000   0.00001   0.00015
    C5       Z    -0.00003   0.00006   0.00007
    C6       X    -0.00001   0.00003   0.00150
    C6       Y     0.00031   0.00002   0.00200
    C6       Z    -0.00007  -0.00002  -0.00181
    C7       X    -0.00094  -0.00014   0.00042
    C7       Y    -0.00097  -0.00020   0.00055
    C7       Z     0.00061   0.00014   0.00024
    C8       X    -0.00021  -0.00005   0.00047
    C8       Y    -0.00021  -0.00006   0.00056
    C8       Z    -0.00010  -0.00006   0.00033
    C9       X     0.00007   0.00000   0.00047
    C9       Y     0.00005   0.00000   0.00057
    C9       Z     0.00007  -0.00006   0.00103
    C10      X     0.00016   0.00005  -0.00418
    C10      Y     0.00019   0.00007  -0.00534
    C10      Z    -0.00022  -0.00004   0.00638
    C11      X     0.00008   0.00004  -0.04160
    C11      Y     0.00005   0.00005  -0.05765
    C11      Z     0.00019   0.00004  -0.04094
    C12      X    -0.00017  -0.00052  -0.00015
    C12      Y     0.00032   0.00012  -0.00018
    C12      Z    -0.00014  -0.00040   0.00004
    C13      X    -0.00043  -0.00138  -0.00001
    C13      Y     0.00007   0.00036  -0.00002
    C13      Z    -0.00028  -0.00140   0.00019
    C14      X    -0.00016  -0.00350   0.00004
    C14      Y    -0.00002   0.00022   0.00002
    C14      Z     0.00008   0.00028  -0.00008
    C15      X     0.00011  -0.00439   0.00002
    C15      Y     0.00006  -0.00268  -0.00000
    C15      Z    -0.00027   0.01625   0.00002
    C16      X    -0.00128   0.06335   0.00007
    C16      Y     0.00022  -0.01256  -0.00002
    C16      Z    -0.00103   0.04904   0.00005
    C17      X    -0.00030  -0.00076   0.00000
    C17      Y    -0.00040   0.00018  -0.00001
    C17      Z    -0.00175   0.00048  -0.00001
    C18      X     0.00001  -0.00114  -0.00001
    C18      Y    -0.00005  -0.00010   0.00005
    C18      Z    -0.00002   0.00113   0.00001
    C19      X    -0.00004   0.00004   0.00003
    C19      Y    -0.00011   0.00005   0.00002
    C19      Z    -0.00005   0.00015   0.00008
    C20      X     0.00001  -0.00000  -0.00005
    C20      Y    -0.00002   0.00001   0.00001
    C20      Z    -0.00001   0.00003  -0.00004
    C21      X     0.00002  -0.00002   0.00024
    C21      Y    -0.00000   0.00005  -0.00036
    C21      Z    -0.00005   0.00008  -0.00134
    C22      X    -0.00000  -0.00085   0.00000
    C22      Y     0.00002  -0.00071   0.00004
    C22      Z    -0.00000   0.00054  -0.00005
    H23      X     0.00905   0.00150  -0.00111
    H23      Y     0.01291   0.00201  -0.00153
    H23      Z    -0.00947  -0.00139   0.00087
    H24      X     0.00169   0.00060  -0.00415
    H24      Y     0.00220   0.00074  -0.00509
    H24      Z     0.00178   0.00062  -0.00382
    H25      X     0.00001   0.00001  -0.00033
    H25      Y     0.00003  -0.00002  -0.00060
    H25      Z    -0.00078   0.00062  -0.00706
    H26      X    -0.00181  -0.00059   0.04593
    H26      Y    -0.00215  -0.00071   0.05828
    H26      Z     0.00150   0.00053  -0.04345
    H27      X    -0.00106  -0.00032   0.48346
    H27      Y    -0.00133  -0.00046   0.66514
    H27      Z    -0.00103  -0.00038   0.47651
    H28      X     0.00461   0.01526  -0.00043
    H28      Y    -0.00103  -0.00336   0.00003
    H28      Z     0.00333   0.01219  -0.00045
    H29      X     0.00184   0.03057  -0.00073
    H29      Y     0.00000  -0.00044  -0.00006
    H29      Z    -0.00079  -0.01048   0.00035
    H30      X    -0.00038   0.02429   0.00005
    H30      Y    -0.00037   0.02871   0.00003
    H30      Z     0.00268  -0.16629  -0.00011
    H31      X     0.01509  -0.72972  -0.00066
    H31      Y    -0.00316   0.14559   0.00014
    H31      Z     0.01167  -0.56930  -0.00043
    H32      X    -0.00217   0.00809   0.00002
    H32      Y     0.00005   0.00003   0.00002
    H32      Z     0.00035  -0.00486  -0.00003
    H33      X     0.00297   0.00152  -0.00001
    H33      Y    -0.00273  -0.00149  -0.00003
    H33      Z     0.00257   0.00083   0.00000
    H34      X     0.00279   0.00009   0.00002
    H34      Y     0.00740  -0.00070   0.00002
    H34      Z     0.01798  -0.00219   0.00013
    H35      X    -0.00060   0.02630   0.00019
    H35      Y     0.00008  -0.00586   0.00000
    H35      Z     0.00037  -0.01517  -0.00016
    H36      X     0.00067   0.00162  -0.00022
    H36      Y     0.00081   0.00416  -0.00018
    H36      Z     0.00016   0.00092  -0.00002
    H37      X    -0.00030  -0.00044   0.00004
    H37      Y     0.00030  -0.00094  -0.00016
    H37      Z    -0.00027   0.00107  -0.00003
    H38      X     0.00029  -0.00056  -0.00022
    H38      Y     0.00032  -0.00054  -0.00044
    H38      Z     0.00105  -0.00105  -0.00086
    H39      X    -0.00043  -0.00010  -0.00016
    H39      Y     0.00041   0.00010   0.00020
    H39      Z    -0.00030  -0.00019  -0.00021
    H40      X     0.00066   0.00048   0.00000
    H40      Y     0.00081   0.00047   0.00002
    H40      Z    -0.00013  -0.00013   0.00007
    H41      X    -0.00003   0.00041   0.00001
    H41      Y     0.00005  -0.00014   0.00010
    H41      Z     0.00025  -0.00091   0.00023
    H42      X    -0.00011   0.00001   0.00093
    H42      Y     0.00012   0.00000  -0.00073
    H42      Z    -0.00014   0.00007   0.00067
    H43      X    -0.00003  -0.00030  -0.00019
    H43      Y     0.00003  -0.00049  -0.00007
    H43      Z    -0.00000  -0.00006  -0.00010
    H44      X    -0.00022   0.00025  -0.00873
    H44      Y     0.00005   0.00006  -0.00189
    H44      Z     0.00072  -0.00094   0.00516
    H45      X     0.00003  -0.00026   0.00042
    H45      Y     0.00009  -0.00060   0.00028
    H45      Z     0.00001  -0.00023   0.00103
    H46      X    -0.00008   0.00034  -0.00727
    H46      Y     0.00001   0.00010  -0.00177
    H46      Z    -0.00005   0.00006  -0.00471
    H47      X     0.00012  -0.00424   0.00057
    H47      Y    -0.00023   0.00764  -0.00100
    H47      Z     0.00017  -0.00624   0.00136
    H48      X     0.00003   0.01293  -0.00005
    H48      Y     0.00005  -0.00158   0.00006
    H48      Z    -0.00004  -0.00150   0.00002
    H49      X    -0.00003   0.00297  -0.00017
    H49      Y    -0.00011   0.00535  -0.00044
    H49      Z    -0.00001   0.00078  -0.00030
  
  Number of imaginary frequencies:   0
   
  Writing vibrational animation data to ox_add_L_trans_L1_PL139.vib
  Writing IR vibrational spectrum data to ox_add_L_trans_L1_PL139_vib.spm
  rotational symmetry number:  1

  rotational temperatures (K):      0.006253      0.005736      0.004849
   
  The Quasi-Harmonic approximation will be applied to compute
  vibrational constributions to thermodynamic properties.
  Frequencies will be adjusted to a minimum value of  100.00 cm^-1.

  vibrational temperatures:
       mode:      1        2        3        4        5        6
  temp. (K):   143.88   143.88   143.88   143.88   143.88   143.88
   
       mode:      7        8        9       10       11       12
  temp. (K):   143.88   143.88   143.88   149.99   165.37   179.48
   
       mode:     13       14       15       16       17       18
  temp. (K):   193.19   213.65   216.40   232.40   244.50   256.88
   
       mode:     19       20       21       22       23       24
  temp. (K):   270.21   298.64   314.29   332.18   342.25   365.19
   
       mode:     25       26       27       28       29       30
  temp. (K):   371.62   380.06   395.46   410.57   420.79   444.19
   
       mode:     31       32       33       34       35       36
  temp. (K):   453.92   463.16   473.76   490.24   521.78   536.13
   
       mode:     37       38       39       40       41       42
  temp. (K):   551.88   575.96   579.41   591.22   606.43   611.72
   
       mode:     43       44       45       46       47       48
  temp. (K):   622.25   633.30   642.82   707.81   739.12   758.11
   
       mode:     49       50       51       52       53       54
  temp. (K):   762.57   781.63   818.81   838.34   845.47   866.99
   
       mode:     55       56       57       58       59       60
  temp. (K):   898.96   907.09   912.17   990.86  1004.20  1049.63
   
       mode:     61       62       63       64       65       66
  temp. (K):  1092.99  1112.28  1117.19  1152.48  1173.36  1188.14
   
       mode:     67       68       69       70       71       72
  temp. (K):  1190.66  1202.31  1219.87  1252.02  1310.76  1359.27
   
       mode:     73       74       75       76       77       78
  temp. (K):  1361.95  1374.59  1375.43  1380.18  1392.31  1414.15
   
       mode:     79       80       81       82       83       84
  temp. (K):  1418.64  1425.47  1430.17  1435.40  1462.40  1467.40
   
       mode:     85       86       87       88       89       90
  temp. (K):  1471.10  1473.78  1480.70  1505.66  1513.55  1519.38
   
       mode:     91       92       93       94       95       96
  temp. (K):  1525.54  1532.82  1540.19  1546.35  1606.23  1614.41
   
       mode:     97       98       99      100      101      102
  temp. (K):  1626.75  1675.39  1719.85  1729.92  1734.68  1739.19
   
       mode:    103      104      105      106      107      108
  temp. (K):  1748.27  1766.66  1769.54  1776.98  1790.20  1799.00
   
       mode:    109      110      111      112      113      114
  temp. (K):  1848.21  1852.05  1878.76  1900.24  1928.22  1938.77
   
       mode:    115      116      117      118      119      120
  temp. (K):  1948.25  1988.60  2048.00  2050.26  2056.26  2059.58
   
       mode:    121      122      123      124      125      126
  temp. (K):  2065.29  2100.80  2113.23  2115.44  2143.36  2161.63
   
       mode:    127      128      129      130      131      132
  temp. (K):  2165.48  2168.76  2176.50  2182.75  2186.51  2187.82
   
       mode:    133      134      135      136      137      138
  temp. (K):  2201.02  2204.83  2206.63  2215.10  2219.52  2226.25
   
       mode:    139      140      141      142      143      144
  temp. (K):  2234.41  2244.22  2330.05  2359.62  2366.58  2373.63
   
       mode:    145      146      147      148      149      150
  temp. (K):  2384.68  2401.92  4387.15  4390.17  4392.59  4394.33
   
       mode:    151      152      153      154      155      156
  temp. (K):  4400.53  4402.99  4485.39  4495.95  4501.43  4505.38
   
       mode:    157      158      159      160      161      162
  temp. (K):  4508.00  4509.03  4539.75  4546.87  4550.51  4558.47
   
       mode:    163      164      165      166      167      168
  temp. (K):  4562.90  4584.76  4588.92  4594.52  4601.08  4608.53
   
       mode:    169      170      171      172      173      174
  temp. (K):  4609.99  4619.56  4622.91  4628.06  4631.80  4638.04
   
       mode:    175      176      177
  temp. (K):  4666.67  4678.12  4734.90
   
   
  Thermodynamic properties calculated assuming an ideal gas

  In the table below, the units for temperature
  are kelvins, the units for U, H, and G are
  kcal/mol and the units for Cv and S are cal/(mol K)

  The zero point energy (ZPE):    319.360 kcal/mol
  is not included in U, H, or G in the table below
  
 
  =============================================================================
  Thermodynamic properties for P = 1.00E+00 atm, calculated at   1 temperatures


  T =   298.15 K, P = 1.00E+00 atm
   
                  U         Cv          S          H          G        ln(Q)
              =========  =========  =========  =========  =========  =========
  trans.          0.889      2.981     44.948      1.481    -11.920   20.11858
  rot.            0.889      2.981     36.567      0.889    -10.014   16.90111
  vib.           17.442    115.267    104.891     17.442    -13.831   23.34476
  elec.           0.000      0.000      0.000      0.000      0.000    0.00000
  ----------------------------------------------------------------------------
  total          19.219    121.229    186.406     19.812    -35.765   60.36445
   
   Total internal energy, Utot(SCFE + ZPE + U):   -1589.770661 hartrees
   Total enthalpy, Htot (Utot + nRT), with n=1:   -1589.769717 hartrees
    Total Gibbs free energy, Gtot (Htot - T*S):   -1589.858285 hartrees
   
  end of program freq
   
 Time(freq)  user:       0.314  user+sys:       0.314  wallclock:       0.380
  
  start of program post
  
  Writing input files for PBF
  end of program post
   
 Time(post)  user:       0.167  user+sys:       0.167  wallclock:       0.104

 Total cpu seconds     user:   47448.169   user+sys:   47448.169
  
 Total elapsed time:    27251 seconds

Job ox_add_L_trans_L1_PL139 completed on bp1-compute052.data.bp.acrc.priv at Thu May  1 01:25:47 2025
