Job ox_add_Br_trans_L1_PL139 started on bp1-compute086.data.bp.acrc.priv at Wed Apr 23 17:57:20 2025
jobid: bp1-compute086-0-68091bec

  +--------------------------------------------------------------------+
  |  Jaguar version 12.5, release 138                                  |
  |                                                                    |
  |  Copyright Schrodinger, Inc.                                       |
  |  All Rights Reserved.                                              |
  |                                                                    |
  |  The following have contributed to Jaguar (listed alphabetically): |
  |  Ty Balduf, Mike Beachy, Chandler Bennett, Art Bochevarov,         |
  |  Dale Braden, Yixiang Cao, Alan Chien, Chris Cortis,               |
  |  Rich Friesner, Jim Furness, Bill Goddard, Hod Greeley,            |
  |  Tom Hughes, Leif Jacobson, Jean-Marc Langlois, Daniel Levine,     |
  |  Rob Murphy, Dean Philipp, Tom Pollard, Murco Ringnalda,           |
  |  Daniel Mainz, Pablo Videla, Mark Watson, Haoyu Yu.                |
  |                                                                    |
  |  Use of this program should be acknowledged in publications as:    |
  |                                                                    |
  |  Jaguar, version 12.5, Schrodinger, Inc., New York, NY, 2024.      |
  |                                                                    |
  |  A. D. Bochevarov, E. Harder, T. F. Hughes, J. R. Greenwood,       |
  |  D. A. Braden, D. M. Philipp, D. Rinaldo, M. D. Halls,             |
  |  J. Zhang, R. A. Friesner, "Jaguar: A High-Performance Quantum     |
  |  Chemistry Software Program with Strengths in Life and Materials   |
  |  Sciences", Int. J. Quantum Chem., 2013, 113(18), 2110-2142.       |
  +--------------------------------------------------------------------+
  
  start of program pre
  
  Job name: ox_add_Br_trans_L1_PL139
  Executables used: /software/local/apps/schrodinger2024-3/jaguar-v12.5/bin/Linux-x86_64
  Temporary files : /tmp/ar21627/ox_add_Br_trans_L1_PL139#bp1-compute086-0-68091bec
  Basis file : using default basis file from /software/local/apps/schrodinger2024-3
  Maestro file (input):  ox_add_Br_trans_L1_PL139.mae
  Maestro file (output): ox_add_Br_trans_L1_PL139.01.mae
  
 Contents of input file: &gen and (if present) &atomic sections only
 ----------------Contents start----------------
&gen
dftname=b3pw91-d3
basis=6-31G*
numd=5
ip11=2
iaccg=3
isolv=2
igeopt=1
solvent=benzene
ifreq=1
&
&atomic
atom basis
Pd2 lacv3p*
Br3 lacv3p*
&
 -----------------Contents end-----------------
 
  PS calculation requested. Using PS version of 6-31g*
  basis set:               non_standard                    
  net molecular charge:    0
  multiplicity:            1
  
  Using up to   4 threads per process
  
  This run will use ECP on            2  atoms
  number of basis functions....          498
  
 Input geometry:
                                   angstroms
  atom               x                 y                 z
  P1            0.0000000000      0.0000000000      0.0000000000 
  Pd2           0.0000000000      0.0000000000      2.3939100518 
  Br3          -2.3824177548      0.5063985264      2.9438771575 
  C73           1.3067271417     -0.1529420581      6.9743739903 
  C74           0.8004170561     -1.3035758347      6.3855515605 
  C75           0.3128715157     -1.2258638939      5.0773016488 
  C76           0.3506895496     -0.0203388394      4.3631094256 
  C77           0.8436945368      1.1239963537      5.0022370772 
  C78           1.3320187496      1.0657957980      6.3101427576 
  F79           1.7835174756     -0.2186896614      8.2397291806 
  H80           0.7833079507     -2.2329289240      6.9491590222 
  H81          -0.0999281567     -2.1216246081      4.6160493344 
  H82           0.8532972397      2.0791848887      4.4813268881 
  H83           1.7221088423      1.9453974857      6.8166244065 
  C3            1.4037020000      0.0000000000     -0.5287930000 
  C4           -0.7175880000      1.2185950000     -0.5000930000 
  C5           -0.6270920000     -1.2611540000     -0.5159910000 
  C6            2.7260500000     -0.4853270000      1.6271060000 
  C7            3.2037415467      0.4890420836      2.5421914869 
  C8            3.3427076298      0.2842074305      3.9252858075 
  C9            3.0029181845     -0.9436439155      4.4993369091 
  C10           2.5252920939     -1.9426734330      3.6472603508 
  C11           2.3990175195     -1.7026668968      2.2690586205 
  C12           2.6019460000     -0.2304150000      0.2176440000 
  C13           3.7878870000     -0.1958030000     -0.5613940000 
  C14           3.8431800000      0.0372740000     -1.9422500000 
  C15           2.6594980000      0.2557690000     -2.6437450000 
  C16           1.4669940000      0.2303350000     -1.9171010000 
  C17           0.2640520000      2.4117330000     -0.4822660000 
  C18          -1.4101740000      1.1825170000     -1.8807340000 
  C19          -1.8189460000      1.5454690000      0.5361260000 
  C20          -2.1080070000     -1.3722510000     -0.0979990000 
  C21           0.1221730000     -2.4158010000      0.1891870000 
  C22          -0.5185810000     -1.5249020000     -2.0327640000 
  H23           3.5106140782      1.4986757485      2.2438585944 
  H24           3.7228140409      1.0933906243      4.5725414540 
  H25           3.1073365851     -1.1176845047      5.5835144817 
  H26           2.2473488768     -2.9241184415      4.0688263639 
  H27           2.0137140197     -2.5696189083      1.7348519269 
  H28           4.7885530000     -0.3513670000     -0.1424820000 
  H29           4.8080470000      0.0488480000     -2.4782120000 
  H30           2.6670950000      0.4405860000     -3.7314160000 
  H31           0.5556520000      0.4025780000     -2.4991290000 
  H32           1.0643220000      2.3023090000     -1.2470840000 
  H33          -0.2516670000      3.3752090000     -0.6985240000 
  H34           0.7608810000      2.5175410000      0.5094590000 
  H35          -0.7084710000      1.0355330000     -2.7274080000 
  H36          -2.1957070000      0.3992420000     -1.9347810000 
  H37          -1.9262770000      2.1470210000     -2.0906830000 
  H38          -1.3958000000      1.6592640000      1.5607770000 
  H39          -2.3500650000      2.4951940000      0.2968930000 
  H40          -2.5919700000      0.7468300000      0.5862940000 
  H41          -2.2342810000     -1.2048910000      0.9961800000 
  H42          -2.7473770000     -0.6357650000     -0.6300580000 
  H43          -2.5273370000     -2.3781680000     -0.3286700000 
  H44           0.0340770000     -2.3450000000      1.2976900000 
  H45          -0.2765190000     -3.4128720000     -0.1076560000 
  H46           1.2083020000     -2.4115640000     -0.0586600000 
  H47          -0.9941950000     -0.7270730000     -2.6402850000 
  H48           0.5384110000     -1.6346130000     -2.3615300000 
  H49          -1.0269740000     -2.4759130000     -2.3116700000 
   
  principal moments of inertia:
        amu*angstrom^2:              2489.14347              4567.86467              5977.70222
                g*cm^2:          4.13331947E-37          7.58511680E-37          9.92620682E-37
   
  rotational constants:
               cm^(-1):      0.00677246      0.00369048      0.00282009
                   GHz:      0.20303330      0.11063791      0.08454403
   
  Molecular weight:     578.04 amu
   
  Stoichiometry: PdC26PH31BrF
  Molecular Point Group: C1      
  Point Group used: C1
  
 
Number of optimization coordinates:   202
Number of independent coordinates:    202
Number of non-redundant coordinates:  177
Number of frozen coordinates:           0
Number of harmonic constraints:         0
 
Number of geometric degrees of freedom:   177
Maximum geometric degrees of freedom:     177
 " " " " " excluding dummy atoms:         177
 
 
  bond lengths (angstroms):
 
 P1      -Pd2     :   2.393910      P1      -C3      :   1.500000
 P1      -C4      :   1.500000      P1      -C5      :   1.500000
 Pd2     -Br3     :   2.496962      Pd2     -C76     :   2.000286
 C73     -C74     :   1.388171      C73     -C78     :   1.388224
 C73     -F79     :   1.353800      C74     -C75     :   1.398305
 C74     -H80     :   1.087034      C75     -C76     :   1.401710
 C75     -H81     :   1.088827      C76     -C77     :   1.400372
 C77     -C78     :   1.397306      C77     -H82     :   1.088037
 C78     -H83     :   1.087379      C3      -C12     :   1.430401
 C3      -C16     :   1.408708      C4      -C17     :   1.545158
 C4      -C18     :   1.545039      C4      -C19     :   1.547122
 C5      -C20     :   1.542780      C5      -C21     :   1.546572
 C5      -C22     :   1.543353      C6      -C7      :   1.419495
 C6      -C11     :   1.414556      C6      -C12     :   1.437694
 C7      -C8      :   1.405069      C7      -H23     :   1.096601
 C8      -C9      :   1.397358      C8      -H24     :   1.103720
 C9      -C10     :   1.397219      C9      -H25     :   1.103011
 C10     -C11     :   1.404631      C10     -H26     :   1.103723
 C11     -H27     :   1.088780      C12     -C13     :   1.419350
 C13     -C14     :   1.401480      C13     -H28     :   1.095911
 C14     -C15     :   1.393176      C14     -H29     :   1.103792
 C15     -C16     :   1.396683      C15     -H30     :   1.103287
 C16     -H31     :   1.094974      C17     -H32     :   1.112363
 C17     -H33     :   1.114011      C17     -H34     :   1.114250
 C18     -H35     :   1.109436      C18     -H36     :   1.110632
 C18     -H37     :   1.113871      C19     -H38     :   1.114411
 C19     -H39     :   1.114135      C19     -H40     :   1.112613
 C20     -H41     :   1.114084      C20     -H42     :   1.110987
 C20     -H43     :   1.113964      C21     -H44     :   1.114250
 C21     -H45     :   1.114101      C21     -H46     :   1.114057
 C22     -H47     :   1.109875      C22     -H48     :   1.112365
 C22     -H49     :   1.113855
 
  bond angles:
 
 C3      -P1      -Pd2     : 110.642051  C4      -P1      -Pd2     : 109.474992
 C4      -P1      -C3      : 109.277784  C5      -P1      -Pd2     : 110.120396
 C5      -P1      -C3      : 105.661559  C5      -P1      -C4      : 111.614203
 Br3     -Pd2     -P1      : 102.723983  C76     -Pd2     -P1      : 169.885589
 C76     -Pd2     -Br3     :  87.277873  C78     -C73     -C74     : 122.098525
 F79     -C73     -C74     : 118.990092  F79     -C73     -C78     : 118.910051
 C75     -C74     -C73     : 118.552117  H80     -C74     -C73     : 119.634489
 H80     -C74     -C75     : 121.810823  C76     -C75     -C74     : 121.003524
 H81     -C75     -C74     : 118.868929  H81     -C75     -C76     : 120.127545
 C75     -C76     -Pd2     : 120.371939  C77     -C76     -Pd2     : 120.180024
 C77     -C76     -C75     : 118.669095  C78     -C77     -C76     : 121.077373
 H82     -C77     -C76     : 120.131815  H82     -C77     -C78     : 118.790726
 C77     -C78     -C73     : 118.558919  H83     -C78     -C73     : 119.592635
 H83     -C78     -C77     : 121.847482  C12     -C3      -P1      : 126.866735
 C16     -C3      -P1      : 112.921406  C16     -C3      -C12     : 120.197482
 C17     -C4      -P1      : 108.635479  C18     -C4      -P1      : 119.564083
 C18     -C4      -C17     : 108.247562  C19     -C4      -P1      : 106.792043
 C19     -C4      -C17     : 106.342742  C19     -C4      -C18     : 106.518855
 C20     -C5      -P1      : 111.631893  C21     -C5      -P1      : 105.564318
 C21     -C5      -C20     : 106.722903  C22     -C5      -P1      : 116.895060
 C22     -C5      -C20     : 108.750722  C22     -C5      -C21     : 106.646205
 C11     -C6      -C7      : 112.083859  C12     -C6      -C7      : 122.638665
 C12     -C6      -C11     : 125.277476  C8      -C7      -C6      : 124.596171
 H23     -C7      -C6      : 123.420160  H23     -C7      -C8      : 111.983632
 C9      -C8      -C7      : 120.559660  H24     -C8      -C7      : 120.294259
 H24     -C8      -C9      : 119.146078  C10     -C9      -C8      : 117.443483
 H25     -C9      -C8      : 121.293605  H25     -C9      -C10     : 121.262909
 C11     -C10     -C9      : 120.458961  H26     -C10     -C9      : 119.271939
 H26     -C10     -C11     : 120.269097  C10     -C11     -C6      : 124.857824
 H27     -C11     -C6      : 122.983415  H27     -C11     -C10     : 112.158723
 C6      -C12     -C3      : 127.767778  C13     -C12     -C3      : 114.179167
 C13     -C12     -C6      : 118.053050  C14     -C13     -C12     : 125.296897
 H28     -C13     -C12     : 123.344249  H28     -C13     -C14     : 111.358848
 C15     -C14     -C13     : 119.253491  H29     -C14     -C13     : 120.974078
 H29     -C14     -C15     : 119.772406  C16     -C15     -C14     : 117.425968
 H30     -C15     -C14     : 121.118955  H30     -C15     -C16     : 121.455055
 C15     -C16     -C3      : 123.646561  H31     -C16     -C3      : 120.808706
 H31     -C16     -C15     : 115.544693  H32     -C17     -C4      : 111.910845
 H33     -C17     -C4      : 111.807544  H33     -C17     -H32     : 106.538408
 H34     -C17     -C4      : 111.522463  H34     -C17     -H32     : 107.488352
 H34     -C17     -H33     : 107.281718  H35     -C18     -C4      : 113.673662
 H36     -C18     -C4      : 112.148234  H36     -C18     -H35     : 108.467982
 H37     -C18     -C4      : 110.849242  H37     -C18     -H35     : 105.303521
 H37     -C18     -H36     : 105.890065  H38     -C19     -C4      : 111.536748
 H39     -C19     -C4      : 112.063982  H39     -C19     -H38     : 106.941488
 H40     -C19     -C4      : 111.909518  H40     -C19     -H38     : 107.196505
 H40     -C19     -H39     : 106.879073  H41     -C20     -C5      : 111.350636
 H42     -C20     -C5      : 112.020047  H42     -C20     -H41     : 107.790504
 H43     -C20     -C5      : 111.731603  H43     -C20     -H41     : 107.239005
 H43     -C20     -H42     : 106.428016  H44     -C21     -C5      : 111.584181
 H45     -C21     -C5      : 111.919355  H45     -C21     -H44     : 107.076047
 H46     -C21     -C5      : 111.595099  H46     -C21     -H44     : 107.347393
 H46     -C21     -H45     : 107.038637  H47     -C22     -C5      : 112.642254
 H48     -C22     -C5      : 111.970515  H48     -C22     -H47     : 108.440249
 H49     -C22     -C5      : 111.094202  H49     -C22     -H47     : 106.325725
 H49     -C22     -H48     : 105.991230
 
  torsional angles:
 
 P1      -Pd2     -C76     -C75     : -94.452095
 P1      -Pd2     -C76     -C77     :  75.306101
 P1      -C3      -C12     -C6      :  -1.244791
 P1      -C3      -C12     -C13     : 178.729711
 P1      -C3      -C16     -C15     :-178.962339
 P1      -C3      -C16     -H31     :   0.961507
 P1      -C4      -C17     -H32     :  69.066294
 P1      -C4      -C17     -H33     :-171.500578
 P1      -C4      -C17     -H34     : -51.385074
 P1      -C4      -C18     -H35     : -63.625205
 P1      -C4      -C18     -H36     :  59.871656
 P1      -C4      -C18     -H37     : 177.992778
 P1      -C4      -C19     -H38     :  54.960151
 P1      -C4      -C19     -H39     : 174.826861
 P1      -C4      -C19     -H40     : -65.126497
 P1      -C5      -C20     -H41     : -50.476119
 P1      -C5      -C20     -H42     :  70.318293
 P1      -C5      -C20     -H43     :-170.366999
 P1      -C5      -C21     -H44     :  59.004770
 P1      -C5      -C21     -H45     : 178.976975
 P1      -C5      -C21     -H46     : -61.091110
 P1      -C5      -C22     -H47     : -60.037413
 P1      -C5      -C22     -H48     :  62.500013
 P1      -C5      -C22     -H49     :-179.204233
 Pd2     -P1      -C3      -C12     :  11.615731
 Pd2     -P1      -C3      -C16     :-169.774349
 Pd2     -P1      -C4      -C17     :  82.405157
 Pd2     -P1      -C4      -C18     :-152.760667
 Pd2     -P1      -C4      -C19     : -31.921688
 Pd2     -P1      -C5      -C20     :  62.890670
 Pd2     -P1      -C5      -C21     : -52.690285
 Pd2     -P1      -C5      -C22     :-171.030664
 Pd2     -C76     -C75     -C74     : 167.622400
 Pd2     -C76     -C75     -H81     : -12.357611
 Pd2     -C76     -C77     -C78     :-167.803463
 Pd2     -C76     -C77     -H82     :  12.088620
 Br3     -Pd2     -P1      -C3      : 168.000000
 Br3     -Pd2     -P1      -C4      :  47.507656
 Br3     -Pd2     -P1      -C5      : -75.561751
 Br3     -Pd2     -C76     -C75     :  94.023527
 Br3     -Pd2     -C76     -C77     : -96.218277
 C73     -C74     -C75     -C76     :   0.978288
 C73     -C74     -C75     -H81     :-179.041455
 C73     -C78     -C77     -C76     :  -0.660408
 C73     -C78     -C77     -H82     : 179.446091
 C74     -C73     -C78     -C77     :  -0.712150
 C74     -C73     -C78     -H83     : 178.937316
 C74     -C75     -C76     -C77     :  -2.288612
 C75     -C74     -C73     -C78     :   0.554537
 C75     -C74     -C73     -F79     :-179.870066
 C75     -C76     -C77     -C78     :   2.127464
 C75     -C76     -C77     -H82     :-177.980453
 C76     -Pd2     -P1      -C3      :  -3.319248
 C76     -Pd2     -P1      -C4      :-123.811592
 C76     -Pd2     -P1      -C5      : 113.119001
 C76     -C75     -C74     -H80     :-179.607446
 C76     -C77     -C78     -H83     : 179.698421
 C77     -C76     -C75     -H81     : 177.731377
 C77     -C78     -C73     -F79     : 179.712125
 C78     -C73     -C74     -H80     :-178.872806
 F79     -C73     -C74     -H80     :   0.702591
 F79     -C73     -C78     -H83     :  -0.638409
 H80     -C74     -C75     -H81     :   0.372812
 H82     -C77     -C78     -H83     :  -0.195079
 C3      -P1      -C4      -C17     : -38.914883
 C3      -P1      -C4      -C18     :  85.919293
 C3      -P1      -C4      -C19     :-153.241727
 C3      -P1      -C5      -C20     :-177.595796
 C3      -P1      -C5      -C21     :  66.823249
 C3      -P1      -C5      -C22     : -51.517131
 C3      -C12     -C6      -C7      :-105.457153
 C3      -C12     -C6      -C11     :  74.547585
 C3      -C12     -C13     -C14     :  -0.059613
 C3      -C12     -C13     -H28     : 179.909160
 C3      -C16     -C15     -C14     :   0.107798
 C3      -C16     -C15     -H30     :-179.945215
 C4      -P1      -C3      -C12     : 132.225580
 C4      -P1      -C3      -C16     : -49.164500
 C4      -P1      -C5      -C20     : -58.917219
 C4      -P1      -C5      -C21     :-174.498174
 C4      -P1      -C5      -C22     :  67.161446
 C5      -P1      -C3      -C12     :-107.553020
 C5      -P1      -C3      -C16     :  71.056900
 C5      -P1      -C4      -C17     :-155.415056
 C5      -P1      -C4      -C18     : -30.580880
 C5      -P1      -C4      -C19     :  90.258099
 C6      -C7      -C8      -C9      :  -0.011981
 C6      -C7      -C8      -H24     : 179.970654
 C6      -C11     -C10     -C9      :   0.040255
 C6      -C11     -C10     -H26     :-179.980554
 C6      -C12     -C3      -C16     :-179.763430
 C6      -C12     -C13     -C14     : 179.917547
 C6      -C12     -C13     -H28     :  -0.113679
 C7      -C6      -C11     -C10     :  -0.074732
 C7      -C6      -C11     -H27     : 179.848321
 C7      -C6      -C12     -C13     :  74.569205
 C7      -C8      -C9      -C10     :  -0.029064
 C7      -C8      -C9      -H25     : 179.990200
 C8      -C7      -C6      -C11     :   0.060605
 C8      -C7      -C6      -C12     :-179.935221
 C8      -C9      -C10     -C11     :   0.015975
 C8      -C9      -C10     -H26     :-179.963423
 C9      -C8      -C7      -H23     :-179.943483
 C9      -C10     -C11     -H27     :-179.890053
 C10     -C9      -C8      -H24     : 179.988104
 C10     -C11     -C6      -C12     : 179.920963
 C11     -C6      -C7      -H23     : 179.984505
 C11     -C6      -C12     -C13     :-105.426058
 C11     -C10     -C9      -H25     : 179.996718
 C12     -C3      -C16     -C15     :  -0.249043
 C12     -C3      -C16     -H31     : 179.674803
 C12     -C6      -C7      -H23     :  -0.011321
 C12     -C6      -C11     -H27     :  -0.155984
 C12     -C13     -C14     -C15     :  -0.073105
 C12     -C13     -C14     -H29     : 179.984555
 C13     -C12     -C3      -C16     :   0.211072
 C13     -C14     -C15     -C16     :   0.051014
 C13     -C14     -C15     -H30     :-179.896162
 C14     -C15     -C16     -H31     :-179.819709
 C15     -C14     -C13     -H28     : 179.954905
 C16     -C15     -C14     -H29     : 179.994058
 C17     -C4      -C18     -H35     :  61.394213
 C17     -C4      -C18     -H36     :-175.108926
 C17     -C4      -C18     -H37     : -56.987804
 C17     -C4      -C19     -H38     : -60.909139
 C17     -C4      -C19     -H39     :  58.957571
 C17     -C4      -C19     -H40     : 179.004213
 C18     -C4      -C17     -H32     : -62.191818
 C18     -C4      -C17     -H33     :  57.241310
 C18     -C4      -C17     -H34     : 177.356814
 C18     -C4      -C19     -H38     :-176.206687
 C18     -C4      -C19     -H39     : -56.339978
 C18     -C4      -C19     -H40     :  63.706664
 C19     -C4      -C17     -H32     :-176.313205
 C19     -C4      -C17     -H33     : -56.880076
 C19     -C4      -C17     -H34     :  63.235427
 C19     -C4      -C18     -H35     : 175.399296
 C19     -C4      -C18     -H36     : -61.103843
 C19     -C4      -C18     -H37     :  57.017279
 C20     -C5      -C21     -H44     : -59.893717
 C20     -C5      -C21     -H45     :  60.078488
 C20     -C5      -C21     -H46     :-179.989597
 C20     -C5      -C22     -H47     :  67.458488
 C20     -C5      -C22     -H48     :-170.004085
 C20     -C5      -C22     -H49     : -51.708331
 C21     -C5      -C20     -H41     :  64.392944
 C21     -C5      -C20     -H42     :-174.812645
 C21     -C5      -C20     -H43     : -55.497936
 C21     -C5      -C22     -H47     :-177.791448
 C21     -C5      -C22     -H48     : -55.254022
 C21     -C5      -C22     -H49     :  63.041732
 C22     -C5      -C20     -H41     : 179.093085
 C22     -C5      -C20     -H42     : -60.112503
 C22     -C5      -C20     -H43     :  59.202205
 C22     -C5      -C21     -H44     :-176.007825
 C22     -C5      -C21     -H45     : -56.035620
 C22     -C5      -C21     -H46     :  63.896294
 H23     -C7      -C8      -H24     :   0.039152
 H24     -C8      -C9      -H25     :   0.007368
 H25     -C9      -C10     -H26     :   0.017320
 H26     -C10     -C11     -H27     :   0.089139
 H28     -C13     -C14     -H29     :   0.012565
 H29     -C14     -C15     -H30     :   0.046882
 H30     -C15     -C16     -H31     :   0.127278
 
  nuclear repulsion energy.......          3719.091125430 hartrees
  
  Detected an organometallic with only one TM atom. 
  
  Oxidation state on metal       2 is     2
  Formal multiplet on metal      2 is     1
  Formal charge on ligand        3 is    -1
  Formal multiplet on ligand     3 is     1
  Formal charge on ligand        4 is    -1
  Formal multiplet on ligand     4 is     1
  
 
  Will use High-Quality Initial guess for organometallics
       including d-d repulsion (iguess=30)
 
 Non-default options chosen:
   SCF calculation type: DFT(b3pw91-d3)              
   DFT=Becke_3_Parameter/HF+Slater+Becke88+PW91+PW-GGAIIC (B3PW91-D3)
   Geometry will be optimized in redundant internal coordinates
   Solvation energy will be computed using PBF
     -solute cavity energy will not be included
     -surface area terms will not be included
   Vibrational frequencies and related properties will be computed
      from analytic second derivatives
   IR intensities will be computed
   Thermochemical properties will be computed
   Maximum number of geometry steps: 100
   Scaling standard convergence criteria by a factor of   5.00
   Solvent: benzene                                                         
   Internal dielectric constant:    1.000
   Continuum dielectric constant:   2.283
   Solvent probe molecule radius:   2.600
  
 Non-default print settings:
     11=  2
  
 Temporary integer options set:
     21= -1  73=  2
  
  atom       vdw   vdw2    cov     mass  grid  daf  charge   basis
  P1        2.147  2.074  1.060   30.974    Y    Y      Y    ps_6-31g*
  Pd2       1.450  1.450  1.280  105.903    Y    Y      Y    lacv3p*
  Br3       2.095  2.095  1.140   78.918    Y    Y      Y    lav3p*
  C73       1.949  1.900  0.770   12.000    Y    Y      Y    ps_6-31g*
  C74       1.949  1.900  0.770   12.000    Y    Y      Y    ps_6-31g*
  C75       1.949  1.900  0.770   12.000    Y    Y      Y    ps_6-31g*
  C76       1.949  1.900  0.770   12.000    Y    Y      Y    ps_6-31g*
  C77       1.949  1.900  0.770   12.000    Y    Y      Y    ps_6-31g*
  C78       1.949  1.900  0.770   12.000    Y    Y      Y    ps_6-31g*
  F79       1.736  1.682  0.720   18.998    Y    Y      Y    ps_6-31g*
  H80       1.597  1.150  0.320    1.008    Y    Y      Y    ps_6-31g*
  H81       1.597  1.150  0.320    1.008    Y    Y      Y    ps_6-31g*
  H82       1.597  1.150  0.320    1.008    Y    Y      Y    ps_6-31g*
  H83       1.597  1.150  0.320    1.008    Y    Y      Y    ps_6-31g*
  C3        1.949  1.900  0.770   12.000    Y    Y      Y    ps_6-31g*
  C4        1.949  1.900  0.770   12.000    Y    Y      Y    ps_6-31g*
  C5        1.949  1.900  0.770   12.000    Y    Y      Y    ps_6-31g*
  C6        1.949  1.900  0.770   12.000    Y    Y      Y    ps_6-31g*
  C7        1.949  1.900  0.770   12.000    Y    Y      Y    ps_6-31g*
  C8        1.949  1.900  0.770   12.000    Y    Y      Y    ps_6-31g*
  C9        1.949  1.900  0.770   12.000    Y    Y      Y    ps_6-31g*
  C10       1.949  1.900  0.770   12.000    Y    Y      Y    ps_6-31g*
  C11       1.949  1.900  0.770   12.000    Y    Y      Y    ps_6-31g*
  C12       1.949  1.900  0.770   12.000    Y    Y      Y    ps_6-31g*
  C13       1.949  1.900  0.770   12.000    Y    Y      Y    ps_6-31g*
  C14       1.949  1.900  0.770   12.000    Y    Y      Y    ps_6-31g*
  C15       1.949  1.900  0.770   12.000    Y    Y      Y    ps_6-31g*
  C16       1.949  1.900  0.770   12.000    Y    Y      Y    ps_6-31g*
  C17       1.949  1.900  0.770   12.000    Y    Y      Y    ps_6-31g*
  C18       1.949  1.900  0.770   12.000    Y    Y      Y    ps_6-31g*
  C19       1.949  1.900  0.770   12.000    Y    Y      Y    ps_6-31g*
  C20       1.949  1.900  0.770   12.000    Y    Y      Y    ps_6-31g*
  C21       1.949  1.900  0.770   12.000    Y    Y      Y    ps_6-31g*
  C22       1.949  1.900  0.770   12.000    Y    Y      Y    ps_6-31g*
  H23       1.597  1.150  0.320    1.008    Y    Y      Y    ps_6-31g*
  H24       1.597  1.150  0.320    1.008    Y    Y      Y    ps_6-31g*
  H25       1.597  1.150  0.320    1.008    Y    Y      Y    ps_6-31g*
  H26       1.597  1.150  0.320    1.008    Y    Y      Y    ps_6-31g*
  H27       1.597  1.150  0.320    1.008    Y    Y      Y    ps_6-31g*
  H28       1.597  1.150  0.320    1.008    Y    Y      Y    ps_6-31g*
  H29       1.597  1.150  0.320    1.008    Y    Y      Y    ps_6-31g*
  H30       1.597  1.150  0.320    1.008    Y    Y      Y    ps_6-31g*
  H31       1.597  1.150  0.320    1.008    Y    Y      Y    ps_6-31g*
  H32       1.597  1.150  0.320    1.008    Y    Y      Y    ps_6-31g*
  H33       1.597  1.150  0.320    1.008    Y    Y      Y    ps_6-31g*
  H34       1.597  1.150  0.320    1.008    Y    Y      Y    ps_6-31g*
  H35       1.597  1.150  0.320    1.008    Y    Y      Y    ps_6-31g*
  H36       1.597  1.150  0.320    1.008    Y    Y      Y    ps_6-31g*
  H37       1.597  1.150  0.320    1.008    Y    Y      Y    ps_6-31g*
  H38       1.597  1.150  0.320    1.008    Y    Y      Y    ps_6-31g*
  H39       1.597  1.150  0.320    1.008    Y    Y      Y    ps_6-31g*
  H40       1.597  1.150  0.320    1.008    Y    Y      Y    ps_6-31g*
  H41       1.597  1.150  0.320    1.008    Y    Y      Y    ps_6-31g*
  H42       1.597  1.150  0.320    1.008    Y    Y      Y    ps_6-31g*
  H43       1.597  1.150  0.320    1.008    Y    Y      Y    ps_6-31g*
  H44       1.597  1.150  0.320    1.008    Y    Y      Y    ps_6-31g*
  H45       1.597  1.150  0.320    1.008    Y    Y      Y    ps_6-31g*
  H46       1.597  1.150  0.320    1.008    Y    Y      Y    ps_6-31g*
  H47       1.597  1.150  0.320    1.008    Y    Y      Y    ps_6-31g*
  H48       1.597  1.150  0.320    1.008    Y    Y      Y    ps_6-31g*
  H49       1.597  1.150  0.320    1.008    Y    Y      Y    ps_6-31g*
 
  atom      formal  2spin      esp    mulk    frag
  P1           0       0        Y    0.000       0
  Pd2          2       0        Y    0.000       0
  Br3         -1       0        Y    0.000       0
  C73         -1       0        Y    0.000       0
  
  end of program pre
   
 Time(pre)  user:       1.112  user+sys:       1.112  wallclock:       1.156
  
  start of program onee
  
  smallest eigenvalue of S:    3.754E-04
  number of canonical orbitals.....          496
  end of program onee
   
 Time(onee)  user:       5.649  user+sys:       5.649  wallclock:       4.313
  
  start of program hfig
  
  initial wavefunction generated automatically from atomic wavefunctions
  Only one state below 0.010000
  Skip d-d repulsion considerations 
 
  Irreducible     Total no   No of occupied orbitals 
  representation  orbitals   Shell_1  Shell_2    ...
  No Symm          496        118
  ------------------------
  Orbital occupation/shell    1.000
 
  end of program hfig
   
 Time(hfig)  user:       0.911  user+sys:       0.911  wallclock:       1.038
  
  start of program probe
  
  end of program probe
   
 Time(probe)  user:       0.416  user+sys:       0.416  wallclock:       0.369
  
  start of program grid
  
   grid     grid set  grid #  grid sym
  ------    --------  ------  --------
  coarse        0        0        1
  medium        2        1        1
  fine          0        0        1
  ultrafine     4        2        1
  charge       -1        3        1
  gradient      4        2        1
  density       0        0        1
  DFT-fine    -11        4        1
  DFT-med.    -10        5        1
  DFT-grad    -12        6        1
  DFT-der2     -8        7        1
  DFT-cphf     -9        8        1
  LMP2-enrg     4        2        1
  LMP2-grad     2        1        1
  DFT-cphf2   -15        9        1
  PBF-dens      0        0        1
  plotting      0        0        1
  Rel-grad    -17        0        1
  
  number of gridpoints: 
     atom           P1         Pd2         Br3         C73         C74         C75         C76
  grid # 1         529         352         491          79          93          95          99
  grid # 2         371         308         463         330         317         319         395
  grid # 3           6         215         293          32          29          21          13
  grid # 4        8714        8714        8714        8714        8714        8714        8714
  grid # 5        1192        1192        1192        1192        1192        1192        1192
  grid # 6        9132        9132        9132        5922        5922        5922        5922
  grid # 7       23034       32968       11582       13950       13950       13950       13950
  grid # 8         722        1150         694         748         748         748         748
  grid # 9         366        2198         358         394         394         394         394
   
  number of gridpoints: 
     atom          C77         C78         F79         H80         H81         H82         H83
  grid # 1          95          93         583         114         114         117         114
  grid # 2         322         319         564         463         454         457         462
  grid # 3          21          29         343         376         240         275         381
  grid # 4        8714        8714        8714        8714        8714        8714        8714
  grid # 5        1192        1192        1192        1192        1192        1192        1192
  grid # 6        5922        5922        5922        5922        5922        5922        5922
  grid # 7       13950       13950       23190       15206       15206       15206       15206
  grid # 8         748         748         770         786         786         786         786
  grid # 9         394         394         420         420         420         420         420
   
  number of gridpoints: 
     atom           C3          C4          C5          C6          C7          C8          C9
  grid # 1          91          87          87          96          92          95          95
  grid # 2         354         337         344         349         325         322         320
  grid # 3           6           6           6          10          18          29          29
  grid # 4        8714        8714        8714        8714        8714        8714        8714
  grid # 5        1192        1192        1192        1192        1192        1192        1192
  grid # 6        5922        5922        5922        5922        5922        5922        5922
  grid # 7       13950       13950       13950       13950       13950       13950       13950
  grid # 8         748         748         748         748         748         748         748
  grid # 9         394         394         394         394         394         394         394
   
  number of gridpoints: 
     atom          C10         C11         C12         C13         C14         C15         C16
  grid # 1          95          93          97          93          97          95          89
  grid # 2         322         324         349         326         323         318         315
  grid # 3          29          21          11          28          39          18           6
  grid # 4        8714        8714        8714        8714        8714        8714        8714
  grid # 5        1192        1192        1192        1192        1192        1192        1192
  grid # 6        5922        5922        5922        5922        5922        5922        5922
  grid # 7       13950       13950       13950       13950       13950       13950       13950
  grid # 8         748         748         748         748         748         748         748
  grid # 9         394         394         394         394         394         394         394
   
  number of gridpoints: 
     atom          C17         C18         C19         C20         C21         C22         H23
  grid # 1          78          81          79          80          81          80         115
  grid # 2         248         240         247         249         241         242         457
  grid # 3           6           6           6           6           6           6         308
  grid # 4        8714        8714        8714        8714        8714        8714        8714
  grid # 5        1192        1192        1192        1192        1192        1192        1192
  grid # 6        5922        5922        5922        5922        5922        5922        5922
  grid # 7       13950       13950       13950       13950       13950       13950       15206
  grid # 8         748         748         748         748         748         748         786
  grid # 9         394         394         394         394         394         394         420
   
  number of gridpoints: 
     atom          H24         H25         H26         H27         H28         H29         H30
  grid # 1         115         111         115         104         116         118         118
  grid # 2         453         439         451         432         460         465         467
  grid # 3         302         234         294         177         363         420         404
  grid # 4        8714        8714        8714        8714        8714        8714        8714
  grid # 5        1192        1192        1192        1192        1192        1192        1192
  grid # 6        5922        5922        5922        5922        5922        5922        5922
  grid # 7       15206       15206       15206       15206       15206       15206       15206
  grid # 8         786         786         786         786         786         786         786
  grid # 9         420         420         420         420         420         420         420
   
  number of gridpoints: 
     atom          H31         H32         H33         H34         H35         H36         H37
  grid # 1          90         102         107         104          98          98         107
  grid # 2         387         429         445         441         401         415         443
  grid # 3          48         187         282         186         150         135         274
  grid # 4        8714        8714        8714        8714        8714        8714        8714
  grid # 5        1192        1192        1192        1192        1192        1192        1192
  grid # 6        5922        5922        5922        5922        5922        5922        5922
  grid # 7       15206       15206       15206       15206       15206       15206       15206
  grid # 8         786         786         786         786         786         786         786
  grid # 9         420         420         420         420         420         420         420
   
  number of gridpoints: 
     atom          H38         H39         H40         H41         H42         H43         H44
  grid # 1          90         108          92          99          95         107          99
  grid # 2         426         447         409         425         408         445         424
  grid # 3          90         262         103         115         145         280         101
  grid # 4        8714        8714        8714        8714        8714        8714        8714
  grid # 5        1192        1192        1192        1192        1192        1192        1192
  grid # 6        5922        5922        5922        5922        5922        5922        5922
  grid # 7       15206       15206       15206       15206       15206       15206       15206
  grid # 8         786         786         786         786         786         786         786
  grid # 9         420         420         420         420         420         420         420
   
  number of gridpoints: 
     atom          H45         H46         H47         H48         H49       total
  grid # 1         108         100          96         100         109        7570
  grid # 2         447         422         403         424         447       23351
  grid # 3         272         125         124         177         275        8399
  grid # 4        8714        8714        8714        8714        8714      531554
  grid # 5        1192        1192        1192        1192        1192       72712
  grid # 6        5922        5922        5922        5922        5922      370872
  grid # 7       15206       15206       15206       15206       15206      924860
  grid # 8         786         786         786         786         786       47150
  grid # 9         420         420         420         420         420       26606
   
  end of program grid
   
 Time(grid)  user:     170.995  user+sys:     170.995  wallclock:      87.557
  
  start of program rwr
  
  end of program rwr
   
 Time(rwr)  user:      14.272  user+sys:      14.272  wallclock:      17.120
  
  start of program scf
  
 number of electrons..........        236
 number of alpha electrons....        118
 number of beta electrons.....        118
 number of orbitals, total....        496
 number of doubly-occ'd orbs..        118
 number of open shell orbs....          0
 number of occupied orbitals..        118
 number of virtual orbitals...        378
 number of hamiltonians.......          1
 number of shells.............          1
 SCF type: DFT=Becke_3_Parameter/HF+Slater+Becke88+PW91+PW-GGAIIC (B3PW91-D3)
 Energy computed using pseudospectral method.
 Convergence Criterion:
    Energy (econv):       1.00E-05
    RMS density (dconv):  5.00E-06
  
       i  u  d  i  g                   
       t  p  i  c  r                                 RMS    maximum
       e  d  i  u  i                       energy  density   DIIS  
       r  t  s  t  d       total energy    change  change    error 
  
etot    1  N  N  5  M   -1585.89451911967           3.0E-03  1.9E-01
etot    2  Y  Y  6  M   -1588.55013417627  2.7E+00  4.8E-03  1.1E-01
etot    3  Y  Y  6  M   -1589.33994487223  7.9E-01  2.1E-03  6.4E-02
etot    4  N  Y  2  U   -1589.64908443676  3.1E-01  1.8E-03  2.7E-02
etot    5  Y  Y  6  M   -1589.76641231566  1.2E-01  1.0E-03  8.9E-03
etot    6  N  Y  2  U   -1589.77876785401  1.2E-02  6.9E-04  5.4E-03
etot    7  Y  Y  6  M   -1589.77754195877 -1.2E-03  2.0E-04  5.6E-03
etot    8  Y  Y  6  M   -1589.78341426932  5.9E-03  6.1E-05  1.8E-03
etot    9  N  Y  2  U   -1589.78420325048  7.9E-04  1.9E-05  1.7E-04
etot   10  N  Y  2  U   -1589.78420973132  6.5E-06  8.4E-06  7.7E-05
etot   11  N  Y  2  U   -1589.78421186931  2.1E-06  3.3E-06  3.1E-05
etot   12  N  N  2  U   -1589.78421200624  1.4E-07  0.0E+00  0.0E+00
 
  Computing the dispersion energy correction and its gradients...
  
  
 Energy components, in hartrees:
   (A)  Nuclear repulsion............    3719.09112542979
   (E)  Total one-electron terms.....   -9628.00324622352
   (F)    Electron-nuclear...........  -11123.46991531115
   (H)    Kinetic....................    1495.46666908762
   (I)  Total two-electron terms.....    4319.12790878749
   (J)    Coulomb....................    4521.12330525155
   (K)    Exchange+Correlation.......    -201.99539646406
   (L)  Electronic energy............   -5308.87533743603  (E+I)
   (N0) D3 correction................      -0.12213513552
   (N)  Total energy.................   -1589.90634714176  (A+L+N0)
   (O)  Gas phase energy.............   -1589.90634714176
  
 SCFE: SCF energy: DFT(b3pw91-d3)     -1589.90634714176 hartrees   iterations:  12
  
 
 HOMO energy:    -0.19102
 LUMO energy:    -0.08129
 
  Orbital energies (hartrees): 
   -76.99441   -24.67461   -10.23965   -10.21926   -10.21528   -10.20036
   -10.19856   -10.19688   -10.19663   -10.19355   -10.19296   -10.18499
   -10.18323   -10.18064   -10.18008   -10.17699   -10.17622   -10.17349
   -10.17329   -10.17062   -10.16943   -10.16612   -10.16481   -10.16477
   -10.16431   -10.16419   -10.15827   -10.14105    -6.53243    -4.68859
    -4.68829    -4.68380    -3.33537    -2.07204    -2.06036    -2.03748
    -1.20614    -0.93280    -0.88494    -0.86521    -0.84781    -0.83391
    -0.80561    -0.78967    -0.75890    -0.75023    -0.74303    -0.73014
    -0.72725    -0.71386    -0.70083    -0.69552    -0.69444    -0.66916
    -0.64769    -0.62948    -0.61502    -0.60712    -0.60112    -0.59385
    -0.58888    -0.55998    -0.52948    -0.52754    -0.51514    -0.50301
    -0.49900    -0.49220    -0.47947    -0.47355    -0.46972    -0.46799
    -0.46078    -0.45713    -0.45408    -0.45053    -0.44304    -0.44162
    -0.42691    -0.42465    -0.41726    -0.41550    -0.41141    -0.40782
    -0.40369    -0.39760    -0.39112    -0.38935    -0.38184    -0.38169
    -0.37985    -0.37789    -0.37011    -0.36949    -0.36206    -0.35600
    -0.35341    -0.34682    -0.34150    -0.33665    -0.33409    -0.32944
    -0.32509    -0.30962    -0.30509    -0.29143    -0.28505    -0.27818
    -0.26774    -0.26624    -0.25859    -0.25497    -0.23579    -0.23211
    -0.22388    -0.21534    -0.20803    -0.19102    -0.08129    -0.05498
    -0.03745    -0.02168    -0.02014     0.01132     0.01881     0.03392
     0.05364     0.06059
 
  end of program scf
   
 Time(scf)  user:     312.836  user+sys:     312.836  wallclock:     168.060
  
  start of program der1a
  
  end of program der1a
   
 Time(der1a)  user:      17.062  user+sys:      17.062  wallclock:       9.083
  
  start of program rwr
  
  end of program rwr
   
 Time(rwr)  user:      14.845  user+sys:      14.845  wallclock:      18.922
  
  start of program der1b
  
   
  forces (hartrees/bohr) : total     
   
 atom  label           x              y              z
 ---- --------   -------------  -------------  -------------
    1 P1         -1.476367E-03   7.256399E-03   3.071190E-01
    2 Pd2         2.557326E-02  -6.176208E-03   1.517110E-02
    3 Br3        -1.957682E-02  -3.098344E-02   7.028194E-02
    4 C73        -2.554905E-03   2.466325E-03   4.801107E-03
    5 C74        -7.671220E-03   3.409422E-04   1.108975E-03
    6 C75        -1.137907E-02   4.635781E-03   4.898880E-03
    7 C76        -1.265276E-02   1.702543E-03   8.631161E-03
    8 C77        -8.323945E-03   2.238893E-04  -1.630120E-03
    9 C78        -7.738285E-04  -4.727683E-04   1.432561E-03
   10 F79        -7.455930E-04  -2.299344E-04  -2.843163E-03
   11 H80         2.503959E-04   4.170380E-04  -1.698743E-04
   12 H81        -5.089829E-04   1.319060E-03   6.988128E-04
   13 H82        -4.270708E-04  -1.659179E-05   4.529986E-05
   14 H83        -2.766358E-04  -6.786927E-04  -2.783256E-04
   15 C3          2.719887E-01  -3.918409E-03  -9.507751E-02
   16 C4         -1.479313E-01   2.612900E-01  -9.927160E-02
   17 C5         -1.269212E-01  -2.669111E-01  -9.465049E-02
   18 C6         -1.326941E-02   3.263940E-03   6.196051E-02
   19 C7          9.707115E-03   2.060730E-02   8.671514E-03
   20 C8          8.001560E-03  -8.751530E-03  -1.080726E-03
   21 C9          2.046354E-02  -6.401549E-03  -5.942666E-03
   22 C10         1.604334E-02   2.412714E-03   9.794164E-04
   23 C11        -9.615793E-03  -2.455102E-02   7.966273E-03
   24 C12         1.671526E-02   8.866312E-03  -6.763627E-02
   25 C13         1.790522E-02   9.259527E-05  -2.736860E-03
   26 C14        -4.085003E-03   4.360888E-04  -9.003374E-04
   27 C15        -1.055081E-03   7.259254E-04   1.172446E-03
   28 C16         3.325594E-02   3.216270E-03  -2.477171E-02
   29 C17         6.157335E-03   2.617405E-02  -3.311830E-03
   30 C18        -2.146277E-02   2.184952E-02  -1.709575E-02
   31 C19        -1.254731E-02   2.925871E-02  -2.018615E-02
   32 C20        -2.143573E-02  -1.379457E-02   2.611559E-03
   33 C21         2.420239E-03  -2.772008E-02   2.900713E-03
   34 C22        -6.158008E-03  -2.491418E-02  -2.465005E-02
   35 H23        -4.995779E-03  -7.176435E-03  -1.133512E-02
   36 H24        -4.404823E-03  -7.354580E-03  -9.639759E-03
   37 H25         1.121209E-03   2.246964E-03  -1.598100E-02
   38 H26         2.437393E-03   9.780110E-03  -7.774653E-03
   39 H27         6.253765E-03   7.921961E-03  -5.869333E-03
   40 H28        -9.837453E-03  -1.292467E-03   1.148851E-02
   41 H29        -8.160454E-03  -7.413967E-04   8.479689E-03
   42 H30        -1.714432E-03  -1.519362E-03   1.080007E-02
   43 H31         2.185549E-02  -7.072608E-04   1.254378E-02
   44 H32        -9.370448E-03   5.176556E-03   1.018492E-02
   45 H33         4.240495E-04  -1.136075E-02   4.375270E-03
   46 H34        -4.728507E-03  -2.350522E-03  -8.777758E-03
   47 H35        -1.689230E-02   9.441278E-03   6.545569E-03
   48 H36         8.326154E-03   1.508781E-02  -1.007376E-03
   49 H37         5.911909E-03  -6.926008E-03   6.321915E-03
   50 H38        -4.099555E-05   1.318681E-02  -3.898084E-02
   51 H39         5.111744E-03  -6.568428E-03  -3.885230E-03
   52 H40         1.508056E-02   2.065843E-02  -4.367432E-03
   53 H41         1.379801E-03  -3.964548E-03  -1.371464E-02
   54 H42         5.435112E-03  -1.357300E-02   7.044940E-03
   55 H43         7.935416E-03   8.024231E-03   3.372932E-04
   56 H44        -3.129273E-03   2.704613E-04  -1.279116E-02
   57 H45         1.434064E-03   1.050918E-02  -1.096879E-04
   58 H46        -1.464681E-02  -1.451901E-03  -3.873441E-04
   59 H47         8.559828E-03  -2.292133E-02   6.215467E-03
   60 H48        -1.438463E-02  -4.082195E-03   3.839874E-03
   61 H49         2.934853E-03   7.603165E-03   6.991888E-03
 -------------   -------------  -------------  -------------
     total       -4.714732E-04  -1.047886E-03  -1.234353E-03
   
  end of program der1b
   
 Time(der1b)  user:     103.230  user+sys:     103.230  wallclock:      55.039
  
  start of program geopt
  
 ----------------------------------------------------------------------------
  Geometry optimization step  1
  Total energy:     -1589.90634714176 hartrees
 ----------------------------------------------------------------------------
  
  
  Level shifts adjusted to satisfy step-size constraints
   Step size:    0.3000486
   Cos(theta):   0.9826586
   Final level shift:  -2.4997348E+00
  
  gradient maximum:        4.4343E-01 .  (  2.2500E-03 )
  gradient rms:            7.3498E-02 .  (  1.5000E-03 )
  displacement maximum:    1.3630E-01 .  (  9.0000E-03 )
  displacement rms:        1.9991E-02 .  (  6.0000E-03 )
  
  predicted energy change:  -2.5441E-01
  step size:     0.28412
  trust radius:  0.30000
  
  molecular structure not yet converged...
  
  center of mass moved by:
     x:    -3.5457E-02     y:    -5.5970E-02     z:     7.2906E-02
  
  new geometry: 
                                   angstroms
  atom               x                 y                 z
  P1            0.0017856363      0.0122313831     -0.0109848246 
  Pd2          -0.0295046693     -0.0065333427      2.4002057512 
  Br3          -2.4008689374      0.3659819196      3.1013689633 
  C73           1.0349331661     -0.1185812457      7.0472370673 
  C74           0.5716300980     -1.2775086061      6.4399225485 
  C75           0.1529427466     -1.2122028731      5.1077192926 
  C76           0.2124422471     -0.0109121436      4.3887036578 
  C77           0.6625328070      1.1407905057      5.0449802610 
  C78           1.0835063225      1.0955912291      6.3767267041 
  F79           1.4452564877     -0.1725021107      8.3357109994 
  H80           0.5336489001     -2.2035039287      7.0078676578 
  H81          -0.2267908151     -2.1143472820      4.6312617383 
  H82           0.6944053243      2.0922454935      4.5181721873 
  H83           1.4377321051      1.9822480178      6.8967923931 
  C3            1.4658351159      0.0298865305     -0.5605264970 
  C4           -0.6965074140      1.3106146671     -0.5570344122 
  C5           -0.6761629428     -1.3059384865     -0.5166070229 
  C6            2.9076465108     -0.4595021921      1.5423341101 
  C7            3.4144133087      0.5245248376      2.4281657195 
  C8            3.6782721449      0.3011664707      3.7861572576 
  C9            3.4528410842     -0.9532478769      4.3536489933 
  C10           2.9643165609     -1.9634019420      3.5247566100 
  C11           2.7034515785     -1.7084491644      2.1720358989 
  C12           2.6968653722     -0.1888446533      0.1430425628 
  C13           3.8634893731     -0.1254394141     -0.6596541556 
  C14           3.8846475970      0.1237531334     -2.0347019639 
  C15           2.6826905655      0.3299480629     -2.7018257196 
  C16           1.5094017193      0.2766546988     -1.9496836100 
  C17           0.3096357796      2.4852392742     -0.5364285971 
  C18          -1.3880918694      1.3531954030     -1.9409783231 
  C19          -1.8158234045      1.7629322908      0.4027214653 
  C20          -2.1635656578     -1.4112059681     -0.1157496761 
  C21           0.0264877195     -2.4793788855      0.2061487350 
  C22          -0.5864907007     -1.6693015129     -2.0160518910 
  H23           3.6339472143      1.5512602007      2.1147217393 
  H24           4.0720454111      1.1152896594      4.4149936351 
  H25           3.6562455102     -1.1432083041      5.4181425285 
  H26           2.7764982377     -2.9641960554      3.9449075618 
  H27           2.3193859595     -2.5770514488      1.6416133328 
  H28           4.8703601156     -0.2715014323     -0.2544476510 
  H29           4.8367616165      0.1572192537     -2.5881530701 
  H30           2.6584083325      0.5275491562     -3.7850311760 
  H31           0.5927412666      0.4462178509     -2.5158294615 
  H32           1.1168214448      2.3561755827     -1.2870976223 
  H33          -0.1866525682      3.4536944087     -0.7655763586 
  H34           0.7944767099      2.5885550775      0.4594588726 
  H35          -0.7004208594      1.1964016593     -2.7934842011 
  H36          -2.2137779479      0.6190659376     -2.0204444272 
  H37          -1.8502640268      2.3491772359     -2.1176148031 
  H38          -1.4302740910      1.9062582329      1.4328039846 
  H39          -2.2702116018      2.7273953854      0.0836747959 
  H40          -2.6388233329      1.0228135610      0.4566983869 
  H41          -2.3047207800     -1.2219611093      0.9704506334 
  H42          -2.7981089254     -0.6913253357     -0.6701150249 
  H43          -2.5740918598     -2.4219159681     -0.3319794659 
  H44          -0.0655153649     -2.3903831036      1.3107969765 
  H45          -0.4084678054     -3.4615112337     -0.0828554139 
  H46           1.1101940760     -2.5189402412     -0.0378376657 
  H47          -1.0409438011     -0.9035271235     -2.6720002557 
  H48           0.4618241523     -1.8326232766     -2.3420128518 
  H49          -1.1242929882     -2.6197405833     -2.2265333830 
   
 
  bond lengths (angstroms):
 
 P1      -Pd2     :   2.411467      P1      -C3      :   1.563889
 P1      -C4      :   1.572127      P1      -C5      :   1.566154
 Pd2     -Br3     :   2.500753      Pd2     -C76     :   2.003168
 C73     -C74     :   1.388018      C73     -C78     :   1.387861
 C73     -F79     :   1.353306      C74     -C75     :   1.397973
 C74     -H80     :   1.086955      C75     -C76     :   1.401293
 C75     -H81     :   1.088611      C76     -C77     :   1.399893
 C77     -C78     :   1.397430      C77     -H82     :   1.088030
 C78     -H83     :   1.087246      C3      -C12     :   1.434674
 C3      -C16     :   1.411577      C4      -C17     :   1.546768
 C4      -C18     :   1.547709      C4      -C19     :   1.542268
 C5      -C20     :   1.544064      C5      -C21     :   1.546951
 C5      -C22     :   1.545448      C6      -C7      :   1.417681
 C6      -C11     :   1.413538      C6      -C12     :   1.440729
 C7      -C8      :   1.401303      C7      -H23     :   1.095732
 C8      -C9      :   1.395142      C8      -H24     :   1.101494
 C9      -C10     :   1.395038      C9      -H25     :   1.100275
 C10     -C11     :   1.401037      C10     -H26     :   1.101540
 C11     -H27     :   1.087807      C12     -C13     :   1.417517
 C13     -C14     :   1.397605      C13     -H28     :   1.095132
 C14     -C15     :   1.390062      C14     -H29     :   1.101794
 C15     -C16     :   1.394692      C15     -H30     :   1.101349
 C16     -H31     :   1.090660      C17     -H32     :   1.109824
 C17     -H33     :   1.112077      C17     -H34     :   1.112446
 C18     -H35     :   1.106455      C18     -H36     :   1.107709
 C18     -H37     :   1.112108      C19     -H38     :   1.109171
 C19     -H39     :   1.112856      C19     -H40     :   1.108160
 C20     -H41     :   1.111562      C20     -H42     :   1.108239
 C20     -H43     :   1.112125      C21     -H44     :   1.112040
 C21     -H45     :   1.112337      C21     -H46     :   1.111537
 C22     -H47     :   1.105987      C22     -H48     :   1.109905
 C22     -H49     :   1.112146
 
  bond angles:
 
 C3      -P1      -Pd2     : 111.320785  C4      -P1      -Pd2     : 110.362294
 C4      -P1      -C3      : 106.525432  C5      -P1      -Pd2     : 108.097804
 C5      -P1      -C3      : 107.535473  C5      -P1      -C4      : 112.998295
 Br3     -Pd2     -P1      : 106.947413  C76     -Pd2     -P1      : 172.312663
 C76     -Pd2     -Br3     :  80.591694  C78     -C73     -C74     : 122.056395
 F79     -C73     -C74     : 118.980817  F79     -C73     -C78     : 118.961771
 C75     -C74     -C73     : 118.549618  H80     -C74     -C73     : 119.627094
 H80     -C74     -C75     : 121.820475  C76     -C75     -C74     : 121.084315
 H81     -C75     -C74     : 118.871185  H81     -C75     -C76     : 120.044228
 C75     -C76     -Pd2     : 120.404159  C77     -C76     -Pd2     : 120.159371
 C77     -C76     -C75     : 118.580239  C78     -C77     -C76     : 121.132324
 H82     -C77     -C76     : 120.123626  H82     -C77     -C78     : 118.743343
 C77     -C78     -C73     : 118.565956  H83     -C78     -C73     : 119.587717
 H83     -C78     -C77     : 121.844761  C12     -C3      -P1      : 128.993415
 C16     -C3      -P1      : 112.128191  C16     -C3      -C12     : 118.867416
 C17     -C4      -P1      : 109.488878  C18     -C4      -P1      : 122.125593
 C18     -C4      -C17     : 106.360671  C19     -C4      -P1      : 110.391324
 C19     -C4      -C17     : 103.950498  C19     -C4      -C18     : 102.949075
 C20     -C5      -P1      : 112.989130  C21     -C5      -P1      : 106.917023
 C21     -C5      -C20     : 105.339609  C22     -C5      -P1      : 119.078401
 C22     -C5      -C20     : 106.962690  C22     -C5      -C21     : 104.394769
 C11     -C6      -C7      : 112.741301  C12     -C6      -C7      : 121.922696
 C12     -C6      -C11     : 125.276264  C8      -C7      -C6      : 124.208386
 H23     -C7      -C6      : 122.907170  H23     -C7      -C8      : 112.882862
 C9      -C8      -C7      : 120.469549  H24     -C8      -C7      : 120.182337
 H24     -C8      -C9      : 119.347175  C10     -C9      -C8      : 117.772507
 H25     -C9      -C8      : 121.258257  H25     -C9      -C10     : 120.968850
 C11     -C10     -C9      : 120.471895  H26     -C10     -C9      : 119.403556
 H26     -C10     -C11     : 120.122570  C10     -C11     -C6      : 124.333222
 H27     -C11     -C6      : 122.635839  H27     -C11     -C10     : 113.030771
 C6      -C12     -C3      : 129.085196  C13     -C12     -C3      : 114.939722
 C13     -C12     -C6      : 115.974985  C14     -C13     -C12     : 125.279434
 H28     -C13     -C12     : 122.764428  H28     -C13     -C14     : 111.956130
 C15     -C14     -C13     : 119.047570  H29     -C14     -C13     : 120.844428
 H29     -C14     -C15     : 120.107997  C16     -C15     -C14     : 117.576216
 H30     -C15     -C14     : 121.177810  H30     -C15     -C16     : 121.245964
 C15     -C16     -C3      : 124.289037  H31     -C16     -C3      : 120.802452
 H31     -C16     -C15     : 114.908170  H32     -C17     -C4      : 112.072367
 H33     -C17     -C4      : 111.610452  H33     -C17     -H32     : 106.647261
 H34     -C17     -C4      : 111.466377  H34     -C17     -H32     : 107.417402
 H34     -C17     -H33     : 107.342656  H35     -C18     -C4      : 114.037990
 H36     -C18     -C4      : 112.271282  H36     -C18     -H35     : 108.305405
 H37     -C18     -C4      : 110.631981  H37     -C18     -H35     : 105.237618
 H37     -C18     -H36     : 105.805522  H38     -C19     -C4      : 111.318453
 H39     -C19     -C4      : 111.845087  H39     -C19     -H38     : 107.228880
 H40     -C19     -C4      : 111.927721  H40     -C19     -H38     : 107.410842
 H40     -C19     -H39     : 106.830891  H41     -C20     -C5      : 111.371254
 H42     -C20     -C5      : 112.173297  H42     -C20     -H41     : 107.788778
 H43     -C20     -C5      : 111.535229  H43     -C20     -H41     : 107.328118
 H43     -C20     -H42     : 106.363060  H44     -C21     -C5      : 111.458205
 H45     -C21     -C5      : 111.762301  H45     -C21     -H44     : 107.241529
 H46     -C21     -C5      : 111.548400  H46     -C21     -H44     : 107.551036
 H46     -C21     -H45     : 107.024575  H47     -C22     -C5      : 112.879788
 H48     -C22     -C5      : 111.983707  H48     -C22     -H47     : 108.409457
 H49     -C22     -C5      : 110.885219  H49     -C22     -H47     : 106.306106
 H49     -C22     -H48     : 105.985992
 
  torsional angles:
 
 P1      -Pd2     -C76     -C75     : -99.339876
 P1      -Pd2     -C76     -C77     :  69.917531
 P1      -C3      -C12     -C6      :  -1.155791
 P1      -C3      -C12     -C13     : 178.963332
 P1      -C3      -C16     -C15     :-179.180291
 P1      -C3      -C16     -H31     :   1.042920
 P1      -C4      -C17     -H32     :  69.248832
 P1      -C4      -C17     -H33     :-171.203972
 P1      -C4      -C17     -H34     : -51.184402
 P1      -C4      -C18     -H35     : -63.749348
 P1      -C4      -C18     -H36     :  59.912982
 P1      -C4      -C18     -H37     : 177.862914
 P1      -C4      -C19     -H38     :  55.314356
 P1      -C4      -C19     -H39     : 175.247499
 P1      -C4      -C19     -H40     : -64.907502
 P1      -C5      -C20     -H41     : -50.428323
 P1      -C5      -C20     -H42     :  70.485426
 P1      -C5      -C20     -H43     :-170.313289
 P1      -C5      -C21     -H44     :  58.992863
 P1      -C5      -C21     -H45     : 178.981701
 P1      -C5      -C21     -H46     : -61.244241
 P1      -C5      -C22     -H47     : -60.018538
 P1      -C5      -C22     -H48     :  62.665872
 P1      -C5      -C22     -H49     :-179.175135
 Pd2     -P1      -C3      -C12     :  11.621762
 Pd2     -P1      -C3      -C16     :-169.615230
 Pd2     -P1      -C4      -C17     :  82.519744
 Pd2     -P1      -C4      -C18     :-152.377336
 Pd2     -P1      -C4      -C19     : -31.332909
 Pd2     -P1      -C5      -C20     :  63.243964
 Pd2     -P1      -C5      -C21     : -52.185195
 Pd2     -P1      -C5      -C22     :-169.989804
 Pd2     -C76     -C75     -C74     : 167.438975
 Pd2     -C76     -C75     -H81     : -12.752929
 Pd2     -C76     -C77     -C78     :-167.557910
 Pd2     -C76     -C77     -H82     :  12.132361
 Br3     -Pd2     -P1      -C3      : 170.383017
 Br3     -Pd2     -P1      -C4      :  52.313009
 Br3     -Pd2     -P1      -C5      : -71.724132
 Br3     -Pd2     -C76     -C75     :  91.771403
 Br3     -Pd2     -C76     -C77     : -98.971190
 C73     -C74     -C75     -C76     :   0.808668
 C73     -C74     -C75     -H81     :-179.001635
 C73     -C78     -C77     -C76     :  -0.626913
 C73     -C78     -C77     -H82     : 179.678634
 C74     -C73     -C78     -C77     :  -0.607873
 C74     -C73     -C78     -H83     : 178.945360
 C74     -C75     -C76     -C77     :  -1.985705
 C75     -C74     -C73     -C78     :   0.517641
 C75     -C74     -C73     -F79     :-179.853352
 C75     -C76     -C77     -C78     :   1.893422
 C75     -C76     -C77     -H82     :-178.416307
 C76     -Pd2     -P1      -C3      :   1.847133
 C76     -Pd2     -P1      -C4      :-116.222875
 C76     -Pd2     -P1      -C5      : 119.739984
 C76     -C75     -C74     -H80     :-179.804027
 C76     -C77     -C78     -H83     : 179.830437
 C77     -C76     -C75     -H81     : 177.822391
 C77     -C78     -C73     -F79     : 179.763052
 C78     -C73     -C74     -H80     :-178.883449
 F79     -C73     -C74     -H80     :   0.745558
 F79     -C73     -C78     -H83     :  -0.683716
 H80     -C74     -C75     -H81     :   0.385671
 H82     -C77     -C78     -H83     :   0.135984
 C3      -P1      -C4      -C17     : -38.454445
 C3      -P1      -C4      -C18     :  86.648475
 C3      -P1      -C4      -C19     :-152.307098
 C3      -P1      -C5      -C20     :-176.463240
 C3      -P1      -C5      -C21     :  68.107601
 C3      -P1      -C5      -C22     : -49.697008
 C3      -C12     -C6      -C7      :-105.309092
 C3      -C12     -C6      -C11     :  77.709461
 C3      -C12     -C13     -C14     :  -0.126956
 C3      -C12     -C13     -H28     : 179.909784
 C3      -C16     -C15     -C14     :   0.103165
 C3      -C16     -C15     -H30     :-179.933543
 C4      -P1      -C3      -C12     : 131.980576
 C4      -P1      -C3      -C16     : -49.256417
 C4      -P1      -C5      -C20     : -59.193859
 C4      -P1      -C5      -C21     :-174.623019
 C4      -P1      -C5      -C22     :  67.572372
 C5      -P1      -C3      -C12     :-106.610094
 C5      -P1      -C3      -C16     :  72.152913
 C5      -P1      -C4      -C17     :-156.316503
 C5      -P1      -C4      -C18     : -31.213582
 C5      -P1      -C4      -C19     :  89.830844
 C6      -C7      -C8      -C9      :   0.366639
 C6      -C7      -C8      -H24     :-179.988269
 C6      -C11     -C10     -C9      :   0.327770
 C6      -C11     -C10     -H26     : 179.812948
 C6      -C12     -C3      -C16     :-179.847307
 C6      -C12     -C13     -C14     : 179.975899
 C6      -C12     -C13     -H28     :   0.012639
 C7      -C6      -C11     -C10     :   0.177818
 C7      -C6      -C11     -H27     :-179.981831
 C7      -C6      -C12     -C13     :  74.570755
 C7      -C8      -C9      -C10     :   0.174069
 C7      -C8      -C9      -H25     : 179.950213
 C8      -C7      -C6      -C11     :  -0.522797
 C8      -C7      -C6      -C12     :-177.851065
 C8      -C9      -C10     -C11     :  -0.500986
 C8      -C9      -C10     -H26     :-179.989846
 C9      -C8      -C7      -H23     : 179.919681
 C9      -C10     -C11     -H27     :-179.526143
 C10     -C9      -C8      -H24     :-179.473970
 C10     -C11     -C6      -C12     : 177.400018
 C11     -C6      -C7      -H23     : 179.967684
 C11     -C6      -C12     -C13     :-102.410691
 C11     -C10     -C9      -H25     : 179.722188
 C12     -C3      -C16     -C15     :  -0.278104
 C12     -C3      -C16     -H31     : 179.945108
 C12     -C6      -C7      -H23     :   2.639416
 C12     -C6      -C11     -H27     :  -2.759631
 C12     -C13     -C14     -C15     :  -0.041063
 C12     -C13     -C14     -H29     : 179.984998
 C13     -C12     -C3      -C16     :   0.271816
 C13     -C14     -C15     -C16     :   0.057834
 C13     -C14     -C15     -H30     :-179.905485
 C14     -C15     -C16     -H31     : 179.891778
 C15     -C14     -C13     -H28     : 179.925626
 C16     -C15     -C14     -H29     :-179.968031
 C17     -C4      -C18     -H35     :  62.756623
 C17     -C4      -C18     -H36     :-173.581047
 C17     -C4      -C18     -H37     : -55.631115
 C17     -C4      -C19     -H38     : -62.013777
 C17     -C4      -C19     -H39     :  57.919366
 C17     -C4      -C19     -H40     : 177.764366
 C18     -C4      -C17     -H32     : -64.523633
 C18     -C4      -C17     -H33     :  55.023563
 C18     -C4      -C17     -H34     : 175.043133
 C18     -C4      -C19     -H38     :-172.803238
 C18     -C4      -C19     -H39     : -52.870096
 C18     -C4      -C19     -H40     :  66.974904
 C19     -C4      -C17     -H32     :-172.797862
 C19     -C4      -C17     -H33     : -53.250666
 C19     -C4      -C17     -H34     :  66.768904
 C19     -C4      -C18     -H35     : 171.741290
 C19     -C4      -C18     -H36     : -64.596381
 C19     -C4      -C18     -H37     :  53.353551
 C20     -C5      -C21     -H44     : -61.453601
 C20     -C5      -C21     -H45     :  58.535237
 C20     -C5      -C21     -H46     : 178.309295
 C20     -C5      -C22     -H47     :  69.537338
 C20     -C5      -C22     -H48     :-167.778253
 C20     -C5      -C22     -H49     : -49.619260
 C21     -C5      -C20     -H41     :  65.940308
 C21     -C5      -C20     -H42     :-173.145943
 C21     -C5      -C20     -H43     : -53.944658
 C21     -C5      -C22     -H47     :-179.127554
 C21     -C5      -C22     -H48     : -56.443144
 C21     -C5      -C22     -H49     :  61.715849
 C22     -C5      -C20     -H41     : 176.622283
 C22     -C5      -C20     -H42     : -62.463968
 C22     -C5      -C20     -H43     :  56.737318
 C22     -C5      -C21     -H44     :-173.956898
 C22     -C5      -C21     -H45     : -53.968060
 C22     -C5      -C21     -H46     :  65.805998
 H23     -C7      -C8      -H24     :  -0.435227
 H24     -C8      -C9      -H25     :   0.302175
 H25     -C9      -C10     -H26     :   0.233328
 H26     -C10     -C11     -H27     :  -0.040965
 H28     -C13     -C14     -H29     :  -0.048312
 H29     -C14     -C15     -H30     :   0.068650
 H30     -C15     -C16     -H31     :  -0.144930
 
  nuclear repulsion energy.......          3627.706644741 hartrees
 -------------------------------------------------
   end of geometry optimization iteration  1
 -------------------------------------------------
   
  end of program geopt
   
 Time(geopt)  user:       0.617  user+sys:       0.617  wallclock:       0.695
  
  start of program onee
  
  smallest eigenvalue of S:    4.028E-04
  number of canonical orbitals.....          496
  end of program onee
   
 Time(onee)  user:       5.423  user+sys:       5.423  wallclock:       4.114
  
  start of program probe
  
  end of program probe
   
 Time(probe)  user:       0.436  user+sys:       0.436  wallclock:       0.411
  
  start of program grid
  
  end of program grid
   
 Time(grid)  user:     166.482  user+sys:     166.482  wallclock:      85.794
  
  start of program rwr
  
  end of program rwr
   
 Time(rwr)  user:      13.352  user+sys:      13.352  wallclock:      16.881
  
  start of program scf
  
 Energy computed using pseudospectral method.
 Convergence Criterion:
    Energy (econv):       1.00E-05
    RMS density (dconv):  5.00E-06
  
       i  u  d  i  g                   
       t  p  i  c  r                                 RMS    maximum
       e  d  i  u  i                       energy  density   DIIS  
       r  t  s  t  d       total energy    change  change    error 
  
etot    1  N  N  2  U   -1589.92341253062           5.6E-04  1.3E-02
etot    2  Y  Y  6  M   -1589.96666494226  4.3E-02  3.9E-04  4.4E-03
etot    3  N  Y  2  U   -1589.97059004115  3.9E-03  2.0E-04  5.1E-03
etot    4  Y  Y  6  M   -1589.97686303516  6.3E-03  4.0E-05  7.4E-04
etot    5  N  Y  2  U   -1589.97697190155  1.1E-04  1.8E-05  6.8E-04
etot    6  N  Y  2  U   -1589.97699772210  2.6E-05  9.0E-06  4.8E-04
etot    7  N  Y  2  U   -1589.97701232120  1.5E-05  2.9E-06  5.1E-05
etot    8  N  N  2  U   -1589.97701316448  8.4E-07  0.0E+00  0.0E+00
 
  Computing the dispersion energy correction and its gradients...
  
  
 Energy components, in hartrees:
   (A)  Nuclear repulsion............    3627.70664474075
   (E)  Total one-electron terms.....   -9445.94073842138
   (F)    Electron-nuclear...........  -10940.28893424396
   (H)    Kinetic....................    1494.34819582258
   (I)  Total two-electron terms.....    4228.25708051615
   (J)    Coulomb....................    4430.02513505993
   (K)    Exchange+Correlation.......    -201.76805454379
   (L)  Electronic energy............   -5217.68365790524  (E+I)
   (N0) D3 correction................      -0.11740634655
   (N)  Total energy.................   -1590.09441951103  (A+L+N0)
   (O)  Gas phase energy.............   -1590.09441951103
  
 SCFE: SCF energy: DFT(b3pw91-d3)     -1590.09441951103 hartrees   iterations:   8
  
 
 HOMO energy:    -0.20076
 LUMO energy:    -0.08417
 
  Orbital energies (hartrees): 
   -77.01738   -24.67224   -10.23759   -10.21829   -10.21001   -10.19891
   -10.19686   -10.19537   -10.19526   -10.19174   -10.19107   -10.18490
   -10.18428   -10.18322   -10.18305   -10.18293   -10.17947   -10.17834
   -10.17424   -10.17192   -10.17156   -10.16547   -10.16409   -10.16368
   -10.16357   -10.16290   -10.16267   -10.14918    -6.54394    -4.70063
    -4.70054    -4.69629    -3.33078    -2.06832    -2.05484    -2.03349
    -1.20389    -0.91359    -0.87987    -0.86155    -0.84539    -0.83206
    -0.80385    -0.78607    -0.75693    -0.74526    -0.74161    -0.72672
    -0.71650    -0.70169    -0.69539    -0.69459    -0.68784    -0.67551
    -0.64605    -0.62744    -0.61250    -0.60705    -0.59913    -0.59148
    -0.58678    -0.55539    -0.52692    -0.52485    -0.50957    -0.49754
    -0.49284    -0.48665    -0.47315    -0.46900    -0.46811    -0.46635
    -0.45874    -0.45507    -0.45098    -0.44490    -0.44203    -0.43967
    -0.42459    -0.42405    -0.41764    -0.41425    -0.41015    -0.40818
    -0.40074    -0.39264    -0.38627    -0.38254    -0.38017    -0.37887
    -0.37847    -0.37251    -0.37075    -0.36230    -0.35787    -0.35368
    -0.35052    -0.34859    -0.34619    -0.33549    -0.33424    -0.32772
    -0.32563    -0.31497    -0.31016    -0.28765    -0.27994    -0.27744
    -0.26966    -0.26434    -0.26054    -0.25500    -0.24094    -0.23940
    -0.22590    -0.21764    -0.21552    -0.20076    -0.08417    -0.05404
    -0.03568    -0.01879    -0.01433     0.00657     0.02208     0.03268
     0.05515     0.06198
 
  end of program scf
   
 Time(scf)  user:     253.914  user+sys:     253.914  wallclock:     135.969
  
  start of program der1a
  
  end of program der1a
   
 Time(der1a)  user:      17.056  user+sys:      17.056  wallclock:       9.142
  
  start of program rwr
  
  end of program rwr
   
 Time(rwr)  user:      13.792  user+sys:      13.792  wallclock:      17.718
  
  start of program der1b
  
   
  forces (hartrees/bohr) : total     
   
 atom  label           x              y              z
 ---- --------   -------------  -------------  -------------
    1 P1         -7.528033E-03   7.470614E-03   2.181439E-01
    2 Pd2         1.545474E-02   1.184324E-03   1.761578E-02
    3 Br3        -5.168188E-03  -9.568528E-03   1.755781E-02
    4 C73         8.422872E-04   3.015674E-04   2.651313E-03
    5 C74         1.502106E-04   3.653179E-04  -2.894845E-03
    6 C75        -2.386316E-03  -8.993244E-04  -1.114822E-03
    7 C76         3.714362E-03  -4.123866E-03   4.241392E-03
    8 C77        -1.523499E-03   2.108142E-03  -3.687780E-03
    9 C78         7.286156E-04  -1.139599E-03  -1.325223E-03
   10 F79        -1.108870E-03   9.367958E-05  -2.803702E-03
   11 H80         1.222582E-04   4.241459E-04  -4.239320E-04
   12 H81        -3.913975E-04   8.507334E-04   4.420398E-04
   13 H82        -9.444740E-04   2.218439E-04   1.897814E-04
   14 H83        -1.556927E-04  -5.827618E-04  -6.022042E-04
   15 C3          1.881192E-01  -9.184803E-03  -7.169476E-02
   16 C4         -1.009474E-01   1.917255E-01  -7.326073E-02
   17 C5         -9.316403E-02  -1.943088E-01  -6.767123E-02
   18 C6         -5.276684E-03  -2.647901E-03   5.960775E-02
   19 C7          5.477767E-03   1.808769E-02   5.063528E-03
   20 C8          1.287214E-03  -3.460293E-03   1.101195E-03
   21 C9          2.615951E-03  -2.307261E-03   1.044204E-03
   22 C10         2.932374E-03   2.841060E-03   3.965695E-03
   23 C11        -8.266500E-03  -1.717379E-02   1.401733E-03
   24 C12         5.936171E-03   7.841530E-03  -5.954734E-02
   25 C13         1.596974E-02   9.360820E-04  -3.712619E-03
   26 C14        -1.296613E-03   6.886136E-04  -1.731834E-03
   27 C15        -2.072110E-03   3.230431E-04   1.361788E-04
   28 C16         2.488483E-02  -2.461584E-03  -2.151325E-02
   29 C17         1.237744E-02   1.865333E-02  -1.625239E-03
   30 C18        -1.199565E-02   5.637641E-03  -1.782522E-02
   31 C19        -1.540983E-02   1.142300E-02   6.773263E-03
   32 C20        -1.722527E-02  -1.139903E-03   6.229080E-03
   33 C21         7.717081E-03  -1.770063E-02   8.274099E-03
   34 C22        -6.320262E-04  -9.149403E-03  -1.930450E-02
   35 H23        -4.369553E-03  -6.706855E-03  -9.825520E-03
   36 H24        -4.703277E-03  -5.710891E-03  -7.762939E-03
   37 H25        -2.971907E-03   2.357054E-03  -9.205608E-03
   38 H26         4.879091E-04   8.652835E-03  -6.297753E-03
   39 H27         1.771171E-03   6.179126E-03  -7.644682E-03
   40 H28        -9.110191E-03  -1.446319E-03   1.098592E-02
   41 H29        -7.145112E-03  -9.219390E-04   7.490366E-03
   42 H30        -1.331854E-03  -1.539726E-03   9.538544E-03
   43 H31         1.237913E-02  -4.171547E-03   9.793556E-03
   44 H32        -8.128389E-03   5.344825E-03   8.872182E-03
   45 H33         1.215442E-04  -1.072041E-02   4.054780E-03
   46 H34        -3.776645E-03  -1.871479E-03  -7.745689E-03
   47 H35        -1.185534E-02   3.759474E-03   4.669541E-03
   48 H36         7.521278E-03   7.065904E-03   1.651285E-04
   49 H37         5.425786E-03  -7.727999E-03   5.006193E-03
   50 H38        -4.071764E-03   1.575599E-03  -1.624865E-02
   51 H39         5.631270E-03  -8.029604E-03  -1.490624E-03
   52 H40         9.057880E-03   9.993514E-03   1.139969E-03
   53 H41         6.522377E-04  -1.922393E-03  -1.189229E-02
   54 H42         4.850757E-03  -7.187284E-03   5.046763E-03
   55 H43         7.561381E-03   7.842037E-03   2.506130E-04
   56 H44        -1.311775E-04  -1.039371E-04  -8.998226E-03
   57 H45         1.803370E-03   1.017659E-02   6.183403E-05
   58 H46        -1.091184E-02   2.002753E-04   5.841344E-04
   59 H47         4.580650E-03  -9.773085E-03   4.659244E-03
   60 H48        -9.589073E-03   1.474253E-03   2.637346E-03
   61 H49         3.343015E-03   8.149580E-03   5.385667E-03
 -------------   -------------  -------------  -------------
     total       -7.110980E-05   2.670731E-04  -3.070707E-03
   
  end of program der1b
   
 Time(der1b)  user:      98.986  user+sys:      98.986  wallclock:      52.838
  
  start of program geopt
  
 ----------------------------------------------------------------------------
  Geometry optimization step  2
  Total energy:     -1590.09441951103 hartrees
 ----------------------------------------------------------------------------
  
  
  Level shifts adjusted to satisfy step-size constraints
   Step size:    0.3001201
   Cos(theta):   0.9911882
   Final level shift:  -1.3793854E+00
  
  energy change:          -1.8807E-01 .  (  2.5000E-04 )
  gradient maximum:        2.6896E-01 .  (  2.2500E-03 )
  gradient rms:            3.6077E-02 .  (  1.5000E-03 )
  displacement maximum:    1.2502E-01 .  (  9.0000E-03 )
  displacement rms:        1.6833E-02 .  (  6.0000E-03 )
  
  predicted energy change:  -1.1262E-01
  step size:     0.23924
  trust radius:  0.30000
  
  molecular structure not yet converged...
  
  center of mass moved by:
     x:     1.1099E-01     y:    -2.6287E-02     z:     1.4176E-02
  
  new geometry: 
                                   angstroms
  atom               x                 y                 z
  P1           -0.0592293155      0.0304904313     -0.0627844287 
  Pd2           0.0234972158     -0.0024425707      2.3510760901 
  Br3          -2.2962637838      0.3003468370      3.2393587088 
  C73           1.3096875894     -0.1856533457      6.9332399868 
  C74           0.8272454024     -1.3386261942      6.3292779788 
  C75           0.3455522964     -1.2555241790      5.0204331587 
  C76           0.3645281782     -0.0423758753      4.3209106777 
  C77           0.8329671541      1.1035569616      4.9729031501 
  C78           1.3162110978      1.0399554615      6.2820465860 
  F79           1.7805277465     -0.2570140025      8.1991750210 
  H80           0.8241026466     -2.2740399541      6.8825712172 
  H81          -0.0497837963     -2.1526674566      4.5476954997 
  H82           0.8261846082      2.0640649622      4.4618051163 
  H83           1.6874710630      1.9209039521      6.7994861655 
  C3            1.4625429956      0.0669712513     -0.6163441088 
  C4           -0.8103650454      1.3759850077     -0.6190327765 
  C5           -0.7759200131     -1.3476021456     -0.5491351374 
  C6            2.7025287484     -0.4006267610      1.6028709641 
  C7            3.1329792412      0.5984646165      2.5097779393 
  C8            3.2637586672      0.3952415151      3.8885385894 
  C9            2.9746837335     -0.8472992556      4.4523329992 
  C10           2.5486535533     -1.8653226849      3.5992021915 
  C11           2.4190273352     -1.6373331064      2.2239295192 
  C12           2.6341738683     -0.1476904470      0.1762794935 
  C13           3.8765965778     -0.1060445209     -0.4958386467 
  C14           4.0236483874      0.1261135495     -1.8630468471 
  C15           2.8859069624      0.3325221150     -2.6353841632 
  C16           1.6457266221      0.2969822272     -1.9986196195 
  C17           0.1808284455      2.5660689912     -0.6497959914 
  C18          -1.5623760669      1.4247772892     -1.9743929342 
  C19          -1.9048128170      1.8658910780      0.3537569924 
  C20          -2.2444912857     -1.4725629449     -0.0853767551 
  C21          -0.0414553040     -2.5230852457      0.1410645617 
[...]
    H29      Z    -0.01924  -0.00538   0.00281  -0.01997  -0.26276   0.02320
    H30      X    -0.06548  -0.04815  -0.00105   0.00506   0.04760  -0.00430
    H30      Y    -0.04677  -0.03448  -0.00078   0.00383   0.03640  -0.00327
    H30      Z     0.53905   0.39746   0.00890  -0.04436  -0.42507   0.03812
    H31      X    -0.05695  -0.04133  -0.00124   0.00550   0.06972  -0.00690
    H31      Y    -0.00245  -0.00176  -0.00006   0.00027   0.00307  -0.00032
    H31      Z    -0.04827  -0.03512  -0.00113   0.00483   0.05869  -0.00583
    H32      X     0.00017  -0.00003   0.00005  -0.00012  -0.00042   0.00002
    H32      Y     0.00001   0.00007   0.00001  -0.00002  -0.00015   0.00001
    H32      Z    -0.00002  -0.00005  -0.00005   0.00014   0.00031   0.00002
    H33      X    -0.00008   0.00025   0.00022  -0.00018  -0.00035   0.00010
    H33      Y     0.00009  -0.00045  -0.00053   0.00028   0.00070  -0.00033
    H33      Z    -0.00005   0.00009   0.00009  -0.00005  -0.00004   0.00003
    H34      X    -0.00006   0.00019   0.00001  -0.00009   0.00008  -0.00003
    H34      Y     0.00001  -0.00010   0.00005   0.00006  -0.00005   0.00007
    H34      Z    -0.00050   0.00113   0.00017  -0.00069   0.00025  -0.00024
    H35      X     0.00671   0.00499   0.00011  -0.00075  -0.00682   0.00056
    H35      Y    -0.00132  -0.00100  -0.00001   0.00016   0.00131  -0.00009
    H35      Z    -0.00549  -0.00408  -0.00012   0.00062   0.00565  -0.00049
    H36      X     0.00243   0.00186   0.00018  -0.00046  -0.00212   0.00032
    H36      Y     0.00231   0.00175   0.00019  -0.00040  -0.00204   0.00033
    H36      Z     0.00087   0.00069   0.00006  -0.00018  -0.00076   0.00010
    H37      X     0.00040   0.00019   0.00016   0.00003  -0.00058   0.00024
    H37      Y    -0.00118  -0.00069  -0.00036  -0.00005   0.00156  -0.00056
    H37      Z     0.00021   0.00005   0.00014   0.00003  -0.00021   0.00020
    H38      X    -0.00001  -0.00001   0.00004  -0.00005   0.00007  -0.00004
    H38      Y     0.00003  -0.00002   0.00006   0.00004  -0.00002   0.00003
    H38      Z    -0.00001  -0.00004   0.00027  -0.00027   0.00029   0.00003
    H39      X     0.00006  -0.00006   0.00019   0.00009  -0.00017   0.00018
    H39      Y    -0.00013   0.00010  -0.00046  -0.00018   0.00035  -0.00040
    H39      Z     0.00004  -0.00003   0.00014   0.00006  -0.00006   0.00010
    H40      X    -0.00002   0.00007  -0.00004  -0.00043   0.00003   0.00020
    H40      Y    -0.00002   0.00005  -0.00001  -0.00036   0.00000   0.00020
    H40      Z    -0.00002  -0.00000  -0.00003  -0.00008   0.00001   0.00005
    H41      X     0.00006   0.00001  -0.00001  -0.00004   0.00002  -0.00010
    H41      Y    -0.00007   0.00001  -0.00004   0.00005   0.00000   0.00005
    H41      Z    -0.00030  -0.00007  -0.00010   0.00011  -0.00004   0.00041
    H42      X    -0.00012   0.00022  -0.00003   0.00026  -0.00009  -0.00002
    H42      Y     0.00014  -0.00029  -0.00001  -0.00034   0.00021  -0.00005
    H42      Z    -0.00010   0.00021   0.00001   0.00026  -0.00015   0.00002
    H43      X     0.00002  -0.00012   0.00012  -0.00004  -0.00020   0.00028
    H43      Y     0.00002  -0.00010   0.00019  -0.00001  -0.00028   0.00044
    H43      Z     0.00002  -0.00005   0.00006  -0.00002  -0.00008   0.00013
    H44      X    -0.00012   0.00016  -0.00011   0.00025  -0.00005  -0.00013
    H44      Y    -0.00011   0.00013  -0.00005   0.00006   0.00002  -0.00006
    H44      Z    -0.00028   0.00049   0.00006   0.00006   0.00011   0.00003
    H45      X     0.00025  -0.00029   0.00017  -0.00010  -0.00018   0.00027
    H45      Y     0.00075  -0.00089   0.00047  -0.00067  -0.00027   0.00070
    H45      Z     0.00041  -0.00050   0.00023  -0.00040  -0.00009   0.00032
    H46      X     0.00535  -0.00699   0.00184  -0.00666   0.00040   0.00209
    H46      Y    -0.00048   0.00060  -0.00015   0.00048   0.00005  -0.00017
    H46      Z     0.00003  -0.00006   0.00008  -0.00030   0.00005   0.00011
    H47      X     0.00022   0.00024   0.00000   0.00008   0.00003  -0.00001
    H47      Y    -0.00024  -0.00041  -0.00003  -0.00027  -0.00039   0.00002
    H47      Z     0.00019   0.00035  -0.00000   0.00021   0.00023  -0.00005
    H48      X     0.00412   0.00287  -0.00001  -0.00049  -0.00407   0.00024
    H48      Y    -0.00100  -0.00068  -0.00001   0.00014   0.00110  -0.00009
    H48      Z    -0.00095  -0.00061  -0.00002   0.00013   0.00090  -0.00008
    H49      X     0.00094   0.00046   0.00018  -0.00018  -0.00127   0.00039
    H49      Y     0.00122   0.00057   0.00028  -0.00022  -0.00158   0.00058
    H49      Z     0.00034   0.00009   0.00015  -0.00006  -0.00041   0.00030
  
  vibration #          175       176       177
                 --------- --------- ---------
  frequencies      3217.07   3228.13   3256.91
  intensities         5.58      6.67      6.46
  reduc. mass         0.25      0.35      0.88
  force const         1.55      2.18      5.50
    P1       X     0.00001   0.00001  -0.00002
    P1       Y     0.00000  -0.00000   0.00002
    P1       Z     0.00002  -0.00000  -0.00012
    Pd2      X    -0.00000   0.00002   0.00001
    Pd2      Y    -0.00000  -0.00000  -0.00000
    Pd2      Z     0.00000   0.00000   0.00000
    Br3      X    -0.00000  -0.00000   0.00000
    Br3      Y     0.00000  -0.00000  -0.00000
    Br3      Z    -0.00000   0.00000   0.00000
    C73      X     0.00023   0.00001   0.00000
    C73      Y     0.00062  -0.00003   0.00000
    C73      Z     0.00042   0.00001   0.00002
    C74      X    -0.00008   0.00004   0.00000
    C74      Y    -0.00952   0.00058  -0.00003
    C74      Z     0.00802  -0.00053   0.00002
    C75      X    -0.00391   0.00052  -0.00001
    C75      Y    -0.01195   0.00158  -0.00004
    C75      Z    -0.00505   0.00060  -0.00002
    C76      X    -0.00005   0.00002  -0.00002
    C76      Y     0.00034  -0.00004   0.00000
    C76      Z    -0.00038  -0.00004   0.00001
    C77      X     0.00006   0.00002  -0.00000
    C77      Y    -0.00019  -0.00007   0.00003
    C77      Z     0.00031   0.00004  -0.00003
    C78      X    -0.00013  -0.00005   0.00001
    C78      Y    -0.00047  -0.00027   0.00003
    C78      Z    -0.00031  -0.00012   0.00001
    F79      X    -0.00003   0.00000  -0.00000
    F79      Y    -0.00003   0.00000  -0.00000
    F79      Z    -0.00008   0.00000  -0.00001
    H80      X     0.00194  -0.00018   0.00000
    H80      Y     0.10732  -0.00688   0.00034
    H80      Z    -0.08683   0.00576  -0.00029
    H81      X     0.04355  -0.00579   0.00011
    H81      Y     0.13688  -0.01798   0.00041
    H81      Z     0.05222  -0.00683   0.00017
    H82      X    -0.00028  -0.00005  -0.00003
    H82      Y     0.00334   0.00042  -0.00025
    H82      Z    -0.00262  -0.00038   0.00021
    H83      X     0.00168   0.00086  -0.00011
    H83      Y     0.00627   0.00328  -0.00038
    H83      Z     0.00281   0.00145  -0.00017
    C3       X     0.00003   0.00002  -0.00076
    C3       Y     0.00001   0.00000  -0.00030
    C3       Z     0.00003  -0.00006   0.00265
    C4       X    -0.00000  -0.00000   0.00012
    C4       Y    -0.00001  -0.00000   0.00001
    C4       Z    -0.00000   0.00001  -0.00008
    C5       X     0.00005  -0.00002   0.00006
    C5       Y     0.00001  -0.00000   0.00002
    C5       Z    -0.00001   0.00001  -0.00007
    C6       X     0.00061   0.00028  -0.00004
    C6       Y     0.00219  -0.00027  -0.00002
    C6       Z    -0.00034   0.00082   0.00003
    C7       X    -0.00178  -0.00104   0.00002
    C7       Y    -0.01855  -0.01245   0.00017
    C7       Z     0.00924   0.00648  -0.00009
    C8       X    -0.01786  -0.01625   0.00004
    C8       Y    -0.02900  -0.02865   0.00005
    C8       Z    -0.02459  -0.02102   0.00006
    C9       X    -0.00234  -0.02235   0.00002
    C9       Y     0.00556   0.01460  -0.00001
    C9       Z    -0.00855  -0.05817   0.00006
    C10      X    -0.00371   0.00496  -0.00000
    C10      Y    -0.04022   0.03513  -0.00006
    C10      Z     0.01672  -0.01091   0.00001
    C11      X    -0.01828   0.00664  -0.00000
    C11      Y    -0.03609   0.01204  -0.00000
    C11      Z    -0.03166   0.01174  -0.00002
    C12      X    -0.00005  -0.00005   0.00057
    C12      Y    -0.00022   0.00002   0.00002
    C12      Z    -0.00004   0.00004   0.00042
    C13      X    -0.00037  -0.00036   0.00107
    C13      Y     0.00000  -0.00000   0.00005
    C13      Z    -0.00018  -0.00040   0.00111
    C14      X    -0.00001  -0.00041   0.00263
    C14      Y     0.00002  -0.00007   0.00034
    C14      Z    -0.00002   0.00020  -0.00004
    C15      X     0.00005   0.00001   0.00410
    C15      Y     0.00001  -0.00001   0.00151
    C15      Z    -0.00004   0.00011  -0.01377
    C16      X    -0.00006  -0.00014  -0.06387
    C16      Y    -0.00000  -0.00001  -0.00297
    C16      Z     0.00000  -0.00011  -0.05113
    C17      X    -0.00001   0.00003   0.00009
    C17      Y     0.00002  -0.00002   0.00001
    C17      Z    -0.00006  -0.00001  -0.00022
    C18      X    -0.00000   0.00003   0.00343
    C18      Y     0.00000  -0.00001   0.00009
    C18      Z    -0.00000  -0.00001  -0.00199
    C19      X    -0.00001   0.00001  -0.00008
    C19      Y    -0.00003  -0.00000  -0.00002
    C19      Z     0.00001  -0.00001  -0.00013
    C20      X    -0.00002   0.00001  -0.00002
    C20      Y    -0.00001  -0.00000   0.00004
    C20      Z    -0.00003   0.00002  -0.00002
    C21      X     0.00043  -0.00002   0.00004
    C21      Y    -0.00003   0.00003  -0.00006
    C21      Z    -0.00005   0.00001  -0.00011
    C22      X     0.00002   0.00003   0.00206
    C22      Y     0.00000  -0.00000  -0.00085
    C22      Z    -0.00001   0.00001   0.00004
    H23      X     0.02860   0.01829  -0.00025
    H23      Y     0.21001   0.13547  -0.00169
    H23      Z    -0.08430  -0.05515   0.00068
    H24      X     0.19831   0.17860  -0.00044
    H24      Y     0.33068   0.30094  -0.00068
    H24      Z     0.26974   0.24111  -0.00061
    H25      X     0.03809   0.24364  -0.00023
    H25      Y    -0.03090  -0.16409   0.00016
    H25      Z     0.10361   0.64369  -0.00061
    H26      X     0.05120  -0.04448   0.00006
    H26      Y     0.45462  -0.37382   0.00063
    H26      Z    -0.17066   0.13575  -0.00027
    H27      X     0.20279  -0.06910  -0.00006
    H27      Y     0.41999  -0.14127  -0.00010
    H27      Z     0.34837  -0.11902   0.00001
    H28      X     0.00391   0.00430  -0.01178
    H28      Y    -0.00011   0.00014  -0.00060
    H28      Z     0.00288   0.00354  -0.00957
    H29      X    -0.00009   0.00471  -0.02173
    H29      Y    -0.00003   0.00076  -0.00335
    H29      Z     0.00003  -0.00194   0.00721
    H30      X    -0.00006   0.00011  -0.02011
    H30      Y    -0.00008   0.00010  -0.01256
    H30      Z     0.00062  -0.00122   0.14001
    H31      X     0.00044   0.00156   0.73553
    H31      Y     0.00005   0.00007   0.03513
    H31      Z     0.00035   0.00114   0.58583
    H32      X    -0.00009  -0.00025  -0.00195
    H32      Y     0.00003  -0.00000   0.00023
    H32      Z    -0.00000   0.00023   0.00090
    H33      X     0.00010  -0.00010   0.00027
    H33      Y    -0.00018   0.00023  -0.00049
    H33      Z     0.00005  -0.00003  -0.00005
    H34      X     0.00007   0.00001   0.00039
    H34      Y    -0.00004  -0.00002  -0.00004
    H34      Z     0.00058  -0.00002   0.00170
    H35      X    -0.00001  -0.00020  -0.03568
    H35      Y    -0.00000   0.00003   0.00845
    H35      Z    -0.00000   0.00018   0.02944
    H36      X     0.00007  -0.00008  -0.00921
    H36      Y     0.00006  -0.00009  -0.00858
    H36      Z     0.00003  -0.00003  -0.00310
    H37      X    -0.00002  -0.00006  -0.00159
    H37      Y     0.00001   0.00017   0.00416
    H37      Z    -0.00002  -0.00002  -0.00040
    H38      X    -0.00003   0.00003   0.00042
    H38      Y    -0.00004  -0.00001   0.00007
    H38      Z    -0.00008   0.00010   0.00194
    H39      X    -0.00008  -0.00005   0.00025
    H39      Y     0.00019   0.00010  -0.00044
    H39      Z    -0.00008  -0.00001   0.00003
    H40      X     0.00023  -0.00004   0.00018
    H40      Y     0.00021  -0.00005   0.00027
    H40      Z     0.00005  -0.00000   0.00003
    H41      X    -0.00007   0.00003  -0.00021
    H41      Y     0.00008  -0.00002   0.00009
    H41      Z     0.00034  -0.00009   0.00049
    H42      X     0.00020  -0.00014   0.00016
    H42      Y    -0.00023   0.00021  -0.00021
    H42      Z     0.00014  -0.00014   0.00017
    H43      X     0.00004  -0.00005   0.00024
    H43      Y     0.00014  -0.00010   0.00010
    H43      Z     0.00002  -0.00002   0.00001
    H44      X     0.00040  -0.00005  -0.00028
    H44      Y     0.00003   0.00001   0.00013
    H44      Z    -0.00020   0.00005   0.00083
    H45      X    -0.00003  -0.00025   0.00031
    H45      Y    -0.00067  -0.00015   0.00044
    H45      Z    -0.00044  -0.00004   0.00019
    H46      X    -0.00792   0.00142  -0.00069
    H46      Y     0.00051   0.00004   0.00005
    H46      Z    -0.00040   0.00040  -0.00004
    H47      X     0.00001  -0.00002  -0.00319
    H47      Y    -0.00004   0.00010   0.00148
    H47      Z     0.00004  -0.00008  -0.00213
    H48      X    -0.00018  -0.00025  -0.02400
    H48      Y     0.00004   0.00008   0.00516
    H48      Z     0.00008   0.00006   0.00518
    H49      X    -0.00003  -0.00011  -0.00460
    H49      Y    -0.00004  -0.00014  -0.00477
    H49      Z    -0.00001  -0.00003  -0.00100
  
  Number of imaginary frequencies:   0
   
  Writing vibrational animation data to ox_add_Br_trans_L1_PL139.vib
  Writing IR vibrational spectrum data to ox_add_Br_trans_L1_PL139_vib.spm
  rotational symmetry number:  1

  rotational temperatures (K):      0.008794      0.005002      0.003881
   
  The Quasi-Harmonic approximation will be applied to compute
  vibrational constributions to thermodynamic properties.
  Frequencies will be adjusted to a minimum value of  100.00 cm^-1.

  vibrational temperatures:
       mode:      1        2        3        4        5        6
  temp. (K):   143.88   143.88   143.88   143.88   143.88   143.88
   
       mode:      7        8        9       10       11       12
  temp. (K):   143.88   143.88   143.88   148.31   160.45   175.65
   
       mode:     13       14       15       16       17       18
  temp. (K):   183.36   186.20   199.97   240.71   256.72   279.03
   
       mode:     19       20       21       22       23       24
  temp. (K):   299.47   313.33   329.56   350.02   354.15   358.30
   
       mode:     25       26       27       28       29       30
  temp. (K):   369.46   392.34   395.64   411.32   434.52   450.55
   
       mode:     31       32       33       34       35       36
  temp. (K):   472.13   474.38   487.80   498.86   510.27   523.66
   
       mode:     37       38       39       40       41       42
  temp. (K):   543.69   556.59   586.31   588.64   591.14   592.79
   
       mode:     43       44       45       46       47       48
  temp. (K):   596.30   604.23   622.05   698.44   735.48   742.77
   
       mode:     49       50       51       52       53       54
  temp. (K):   751.43   796.75   814.44   844.35   856.34   895.39
   
       mode:     55       56       57       58       59       60
  temp. (K):   897.26   903.41   907.65   998.40  1014.80  1025.86
   
       mode:     61       62       63       64       65       66
  temp. (K):  1096.08  1106.80  1113.55  1148.98  1173.85  1193.52
   
       mode:     67       68       69       70       71       72
  temp. (K):  1195.52  1198.65  1202.50  1245.92  1311.82  1348.16
   
       mode:     73       74       75       76       77       78
  temp. (K):  1354.46  1372.33  1377.17  1382.29  1387.01  1392.97
   
       mode:     79       80       81       82       83       84
  temp. (K):  1411.44  1419.88  1420.72  1430.05  1455.62  1458.83
   
       mode:     85       86       87       88       89       90
  temp. (K):  1471.18  1472.59  1477.82  1504.82  1519.56  1523.19
   
       mode:     91       92       93       94       95       96
  temp. (K):  1525.37  1532.90  1544.40  1553.99  1598.96  1606.11
   
       mode:     97       98       99      100      101      102
  temp. (K):  1616.85  1685.33  1715.57  1737.42  1744.53  1750.14
   
       mode:    103      104      105      106      107      108
  temp. (K):  1755.62  1757.84  1775.30  1787.01  1798.34  1800.76
   
       mode:    109      110      111      112      113      114
  temp. (K):  1836.04  1847.21  1878.15  1896.29  1924.43  1939.90
   
       mode:    115      116      117      118      119      120
  temp. (K):  1954.92  1990.92  2044.52  2050.49  2052.14  2057.21
   
       mode:    121      122      123      124      125      126
  temp. (K):  2059.51  2096.61  2108.08  2116.25  2129.63  2164.18
   
       mode:    127      128      129      130      131      132
  temp. (K):  2165.94  2170.35  2173.47  2175.01  2182.41  2191.13
   
       mode:    133      134      135      136      137      138
  temp. (K):  2197.93  2202.17  2203.26  2209.16  2214.56  2218.29
   
       mode:    139      140      141      142      143      144
  temp. (K):  2225.97  2238.99  2328.55  2347.29  2362.90  2372.24
   
       mode:    145      146      147      148      149      150
  temp. (K):  2379.05  2381.61  4370.60  4372.78  4378.87  4383.19
   
       mode:    151      152      153      154      155      156
  temp. (K):  4384.78  4391.58  4472.47  4473.32  4484.98  4487.35
   
       mode:    157      158      159      160      161      162
  temp. (K):  4493.40  4511.12  4519.46  4520.50  4535.46  4544.84
   
       mode:    163      164      165      166      167      168
  temp. (K):  4547.42  4572.38  4579.77  4590.93  4598.04  4601.98
   
       mode:    169      170      171      172      173      174
  temp. (K):  4605.32  4606.08  4620.05  4621.03  4625.14  4625.72
   
       mode:    175      176      177
  temp. (K):  4628.64  4644.56  4685.97
   
   
  Thermodynamic properties calculated assuming an ideal gas

  In the table below, the units for temperature
  are kelvins, the units for U, H, and G are
  kcal/mol and the units for Cv and S are cal/(mol K)

  The zero point energy (ZPE):    318.682 kcal/mol
  is not included in U, H, or G in the table below
  
 
  =============================================================================
  Thermodynamic properties for P = 1.00E+00 atm, calculated at   1 temperatures


  T =   298.15 K, P = 1.00E+00 atm
   
                  U         Cv          S          H          G        ln(Q)
              =========  =========  =========  =========  =========  =========
  trans.          0.889      2.981     44.948      1.481    -11.920   20.11858
  rot.            0.889      2.981     36.585      0.889    -10.019   16.91033
  vib.           17.438    115.413    104.863     17.438    -13.827   23.33668
  elec.           0.000      0.000      0.000      0.000      0.000    0.00000
  ----------------------------------------------------------------------------
  total          19.216    121.375    186.396     19.808    -35.766   60.36559
   
   Total internal energy, Utot(SCFE + ZPE + U):   -1589.773142 hartrees
   Total enthalpy, Htot (Utot + nRT), with n=1:   -1589.772197 hartrees
    Total Gibbs free energy, Gtot (Htot - T*S):   -1589.860760 hartrees
   
  end of program freq
   
 Time(freq)  user:       0.295  user+sys:       0.295  wallclock:       0.416
  
  start of program post
  
  Writing input files for PBF
  end of program post
   
 Time(post)  user:       0.163  user+sys:       0.163  wallclock:       0.098

 Total cpu seconds     user:   45798.337   user+sys:   45798.337
  
 Total elapsed time:    26398 seconds

Job ox_add_Br_trans_L1_PL139 completed on bp1-compute086.data.bp.acrc.priv at Thu Apr 24 01:17:18 2025
