Job ox_add_Ar_trans_L1_PL139 started on bp1-compute082.data.bp.acrc.priv at Sat Mar 29 15:00:30 2025
jobid: bp1-compute082-0-67e80b0a

  +--------------------------------------------------------------------+
  |  Jaguar version 12.5, release 138                                  |
  |                                                                    |
  |  Copyright Schrodinger, Inc.                                       |
  |  All Rights Reserved.                                              |
  |                                                                    |
  |  The following have contributed to Jaguar (listed alphabetically): |
  |  Ty Balduf, Mike Beachy, Chandler Bennett, Art Bochevarov,         |
  |  Dale Braden, Yixiang Cao, Alan Chien, Chris Cortis,               |
  |  Rich Friesner, Jim Furness, Bill Goddard, Hod Greeley,            |
  |  Tom Hughes, Leif Jacobson, Jean-Marc Langlois, Daniel Levine,     |
  |  Rob Murphy, Dean Philipp, Tom Pollard, Murco Ringnalda,           |
  |  Daniel Mainz, Pablo Videla, Mark Watson, Haoyu Yu.                |
  |                                                                    |
  |  Use of this program should be acknowledged in publications as:    |
  |                                                                    |
  |  Jaguar, version 12.5, Schrodinger, Inc., New York, NY, 2024.      |
  |                                                                    |
  |  A. D. Bochevarov, E. Harder, T. F. Hughes, J. R. Greenwood,       |
  |  D. A. Braden, D. M. Philipp, D. Rinaldo, M. D. Halls,             |
  |  J. Zhang, R. A. Friesner, "Jaguar: A High-Performance Quantum     |
  |  Chemistry Software Program with Strengths in Life and Materials   |
  |  Sciences", Int. J. Quantum Chem., 2013, 113(18), 2110-2142.       |
  +--------------------------------------------------------------------+
  
  start of program pre
  
  Job name: ox_add_Ar_trans_L1_PL139
  Executables used: /software/local/apps/schrodinger2024-3/jaguar-v12.5/bin/Linux-x86_64
  Temporary files : /tmp/ar21627/ox_add_Ar_trans_L1_PL139#bp1-compute082-0-67e80b0a
  Basis file : using default basis file from /software/local/apps/schrodinger2024-3
  Maestro file (input):  ox_add_Ar_trans_L1_PL139.mae
  Maestro file (output): ox_add_Ar_trans_L1_PL139.01.mae
  
 Contents of input file: &gen and (if present) &atomic sections only
 ----------------Contents start----------------
&gen
dftname=b3pw91-d3
basis=6-31G*
numd=5
ip11=2
iaccg=3
isolv=2
igeopt=1
solvent=benzene
ifreq=1
&
&atomic
atom basis
Pd2 lacv3p*
Br3 lacv3p*
&
 -----------------Contents end-----------------
 
  PS calculation requested. Using PS version of 6-31g*
  basis set:               non_standard                    
  net molecular charge:    0
  multiplicity:            1
  
  Using up to   4 threads per process
  
  This run will use ECP on            2  atoms
  number of basis functions....          498
  
 Input geometry:
                                   angstroms
  atom               x                 y                 z
  P1            0.0000000000      0.0000000000      0.0000000000 
  Pd2           0.0000000000      0.0000000000      2.2761010486 
  Br3           0.3233640480      0.0000000000      4.8111435857 
  C73          -4.6167908059     -1.1016158757      2.2279252576 
  C74          -3.7224080245     -1.9847067143      1.6418108827 
  C75          -2.3569402664     -1.6996309654      1.7018174885 
  C76          -1.8940897633     -0.5411742274      2.3383578262 
  C77          -2.8193633541      0.3060635237      2.9598281293 
  C78          -4.1885431354      0.0330114619      2.9016279143 
  F79          -5.9452903695     -1.3541176883      2.1413929409 
  H80          -4.0974958067     -2.8644168312      1.1251304941 
  H82          -2.4753289364      1.1866669463      3.4933165131 
  H83          -4.9197814924      0.6865290475      3.3712966916 
  H14          -1.6438885571     -2.3760886840      1.2541991077 
  C3            1.4037020000      0.0000000000     -0.5287930000 
  C4           -0.7175880000      1.2185950000     -0.5000930000 
  C5           -0.6270920000     -1.2611540000     -0.5159910000 
  C6            2.7260500000     -0.4853270000      1.6271060000 
  C7            3.2037415467      0.4890420836      2.5421914869 
  C8            3.3427076298      0.2842074305      3.9252858075 
  C9            3.0029181845     -0.9436439155      4.4993369091 
  C10           2.5252920939     -1.9426734330      3.6472603508 
  C11           2.3990175195     -1.7026668968      2.2690586205 
  C12           2.6019460000     -0.2304150000      0.2176440000 
  C13           3.7878870000     -0.1958030000     -0.5613940000 
  C14           3.8431800000      0.0372740000     -1.9422500000 
  C15           2.6594980000      0.2557690000     -2.6437450000 
  C16           1.4669940000      0.2303350000     -1.9171010000 
  C17           0.2640520000      2.4117330000     -0.4822660000 
  C18          -1.4101740000      1.1825170000     -1.8807340000 
  C19          -1.8189460000      1.5454690000      0.5361260000 
  C20          -2.1080070000     -1.3722510000     -0.0979990000 
  C21           0.1221730000     -2.4158010000      0.1891870000 
  C22          -0.5185810000     -1.5249020000     -2.0327640000 
  H23           3.5106140782      1.4986757485      2.2438585944 
  H24           3.7228140409      1.0933906243      4.5725414540 
  H25           3.1073365851     -1.1176845047      5.5835144817 
  H26           2.2473488768     -2.9241184415      4.0688263639 
  H27           2.0137140197     -2.5696189083      1.7348519269 
  H28           4.7885530000     -0.3513670000     -0.1424820000 
  H29           4.8080470000      0.0488480000     -2.4782120000 
  H30           2.6670950000      0.4405860000     -3.7314160000 
  H31           0.5556520000      0.4025780000     -2.4991290000 
  H32           1.0643220000      2.3023090000     -1.2470840000 
  H33          -0.2516670000      3.3752090000     -0.6985240000 
  H34           0.7608810000      2.5175410000      0.5094590000 
  H35          -0.7084710000      1.0355330000     -2.7274080000 
  H36          -2.1957070000      0.3992420000     -1.9347810000 
  H37          -1.9262770000      2.1470210000     -2.0906830000 
  H38          -1.3958000000      1.6592640000      1.5607770000 
  H39          -2.3500650000      2.4951940000      0.2968930000 
  H40          -2.5919700000      0.7468300000      0.5862940000 
  H41          -2.2342810000     -1.2048910000      0.9961800000 
  H42          -2.7473770000     -0.6357650000     -0.6300580000 
  H43          -2.5273370000     -2.3781680000     -0.3286700000 
  H44           0.0340770000     -2.3450000000      1.2976900000 
  H45          -0.2765190000     -3.4128720000     -0.1076560000 
  H46           1.2083020000     -2.4115640000     -0.0586600000 
  H47          -0.9941950000     -0.7270730000     -2.6402850000 
  H48           0.5384110000     -1.6346130000     -2.3615300000 
  H49          -1.0269740000     -2.4759130000     -2.3116700000 
   
  principal moments of inertia:
        amu*angstrom^2:              3134.36801              3673.95881              5682.64290
                g*cm^2:          5.20473988E-37          6.10075138E-37          9.43624937E-37
   
  rotational constants:
               cm^(-1):      0.00537832      0.00458841      0.00296651
                   GHz:      0.16123793      0.13755707      0.08893380
   
  Molecular weight:     578.04 amu
   
  Stoichiometry: PdC26PH31BrF
  Molecular Point Group: C1      
  Point Group used: C1
  
 
Number of optimization coordinates:   209
Number of independent coordinates:    209
Number of non-redundant coordinates:  177
Number of frozen coordinates:           0
Number of harmonic constraints:         0
 
Number of geometric degrees of freedom:   177
Maximum geometric degrees of freedom:     177
 " " " " " excluding dummy atoms:         177
 
 
  bond lengths (angstroms):
 
 P1      -Pd2     :   2.276101      P1      -C3      :   1.500000
 P1      -C4      :   1.500000      P1      -C5      :   1.500000
 Pd2     -Br3     :   2.555583      Pd2     -C76     :   1.970868
 C73     -C74     :   1.386831      C73     -C78     :   1.387318
 C73     -F79     :   1.355048      C74     -C75     :   1.396199
 C74     -H80     :   1.086986      C75     -C76     :   1.400513
 C75     -H14     :   1.080000      C75     -H41     :   0.870481
 C76     -C77     :   1.400060      C77     -C78     :   1.397354
 C77     -H82     :   1.085556      C78     -H83     :   1.087375
 C3      -C12     :   1.430401      C3      -C16     :   1.408708
 C4      -C17     :   1.545158      C4      -C18     :   1.545039
 C4      -C19     :   1.547122      C5      -C20     :   1.542780
 C5      -C21     :   1.546572      C5      -C22     :   1.543353
 C6      -C7      :   1.419495      C6      -C11     :   1.414556
 C6      -C12     :   1.437694      C7      -C8      :   1.405069
 C7      -H23     :   1.096601      C8      -C9      :   1.397358
 C8      -H24     :   1.103720      C9      -C10     :   1.397219
 C9      -H25     :   1.103011      C10     -C11     :   1.404631
 C10     -H26     :   1.103723      C11     -H27     :   1.088780
 C12     -C13     :   1.419350      C13     -C14     :   1.401480
 C13     -H28     :   1.095911      C14     -C15     :   1.393176
 C14     -H29     :   1.103792      C15     -C16     :   1.396683
 C15     -H30     :   1.103287      C16     -H31     :   1.094974
 C17     -H32     :   1.112363      C17     -H33     :   1.114011
 C17     -H34     :   1.114250      C18     -H35     :   1.109436
 C18     -H36     :   1.110632      C18     -H37     :   1.113871
 C19     -H38     :   1.114411      C19     -H39     :   1.114135
 C19     -H40     :   1.112613      C20     -H41     :   1.114084
 C20     -H42     :   1.110987      C20     -H43     :   1.113964
 C21     -H44     :   1.114250      C21     -H45     :   1.114101
 C21     -H46     :   1.114057      C22     -H47     :   1.109875
 C22     -H48     :   1.112365      C22     -H49     :   1.113855
 
  bond angles:
 
 C3      -P1      -Pd2     : 110.642051  C4      -P1      -Pd2     : 109.474992
 C4      -P1      -C3      : 109.277784  C5      -P1      -Pd2     : 110.120396
 C5      -P1      -C3      : 105.661559  C5      -P1      -C4      : 111.614203
 Br3     -Pd2     -P1      : 172.730742  C76     -Pd2     -P1      :  91.810189
 C76     -Pd2     -Br3     :  95.179054  C78     -C73     -C74     : 121.799250
 F79     -C73     -C74     : 119.119355  F79     -C73     -C78     : 119.081372
 C75     -C74     -C73     : 118.851227  H80     -C74     -C73     : 119.583608
 H80     -C74     -C75     : 121.543804  C76     -C75     -C74     : 120.772927
 H14     -C75     -C74     : 120.000000  H14     -C75     -C76     : 119.227073
 H41     -C75     -C74     : 102.651169  H41     -C75     -C76     :  81.474166
 H41     -C75     -H14     :  85.812504  C75     -C76     -Pd2     : 122.031368
 C77     -C76     -Pd2     : 118.881056  C77     -C76     -C75     : 118.939883
 C78     -C77     -C76     : 120.718410  H82     -C77     -C76     : 119.973007
 H82     -C77     -C78     : 119.308555  C77     -C78     -C73     : 118.849083
 H83     -C78     -C73     : 119.584134  H83     -C78     -C77     : 121.566745
 C12     -C3      -P1      : 126.866735  C16     -C3      -P1      : 112.921406
 C16     -C3      -C12     : 120.197482  C17     -C4      -P1      : 108.635479
 C18     -C4      -P1      : 119.564083  C18     -C4      -C17     : 108.247562
 C19     -C4      -P1      : 106.792043  C19     -C4      -C17     : 106.342742
 C19     -C4      -C18     : 106.518855  C20     -C5      -P1      : 111.631893
 C21     -C5      -P1      : 105.564318  C21     -C5      -C20     : 106.722903
 C22     -C5      -P1      : 116.895060  C22     -C5      -C20     : 108.750722
 C22     -C5      -C21     : 106.646205  C11     -C6      -C7      : 112.083859
 C12     -C6      -C7      : 122.638665  C12     -C6      -C11     : 125.277476
 C8      -C7      -C6      : 124.596171  H23     -C7      -C6      : 123.420160
 H23     -C7      -C8      : 111.983632  C9      -C8      -C7      : 120.559660
 H24     -C8      -C7      : 120.294259  H24     -C8      -C9      : 119.146078
 C10     -C9      -C8      : 117.443483  H25     -C9      -C8      : 121.293605
 H25     -C9      -C10     : 121.262909  C11     -C10     -C9      : 120.458961
 H26     -C10     -C9      : 119.271939  H26     -C10     -C11     : 120.269097
 C10     -C11     -C6      : 124.857824  H27     -C11     -C6      : 122.983415
 H27     -C11     -C10     : 112.158723  C6      -C12     -C3      : 127.767778
 C13     -C12     -C3      : 114.179167  C13     -C12     -C6      : 118.053050
 C14     -C13     -C12     : 125.296897  H28     -C13     -C12     : 123.344249
 H28     -C13     -C14     : 111.358848  C15     -C14     -C13     : 119.253491
 H29     -C14     -C13     : 120.974078  H29     -C14     -C15     : 119.772406
 C16     -C15     -C14     : 117.425968  H30     -C15     -C14     : 121.118955
 H30     -C15     -C16     : 121.455055  C15     -C16     -C3      : 123.646561
 H31     -C16     -C3      : 120.808706  H31     -C16     -C15     : 115.544693
 H32     -C17     -C4      : 111.910845  H33     -C17     -C4      : 111.807544
 H33     -C17     -H32     : 106.538408  H34     -C17     -C4      : 111.522463
 H34     -C17     -H32     : 107.488352  H34     -C17     -H33     : 107.281718
 H35     -C18     -C4      : 113.673662  H36     -C18     -C4      : 112.148234
 H36     -C18     -H35     : 108.467982  H37     -C18     -C4      : 110.849242
 H37     -C18     -H35     : 105.303521  H37     -C18     -H36     : 105.890065
 H38     -C19     -C4      : 111.536748  H39     -C19     -C4      : 112.063982
 H39     -C19     -H38     : 106.941488  H40     -C19     -C4      : 111.909518
 H40     -C19     -H38     : 107.196505  H40     -C19     -H39     : 106.879073
 H41     -C20     -C5      : 111.350636  H42     -C20     -C5      : 112.020047
 H42     -C20     -H41     : 107.790504  H43     -C20     -C5      : 111.731603
 H43     -C20     -H41     : 107.239005  H43     -C20     -H42     : 106.428016
 H44     -C21     -C5      : 111.584181  H45     -C21     -C5      : 111.919355
 H45     -C21     -H44     : 107.076047  H46     -C21     -C5      : 111.595099
 H46     -C21     -H44     : 107.347393  H46     -C21     -H45     : 107.038637
 H47     -C22     -C5      : 112.642254  H48     -C22     -C5      : 111.970515
 H48     -C22     -H47     : 108.440249  H49     -C22     -C5      : 111.094202
 H49     -C22     -H47     : 106.325725  H49     -C22     -H48     : 105.991230
 C20     -H41     -C75     : 136.613665
 
  torsional angles:
 
 P1      -Pd2     -C76     -C75     :  56.208904
 P1      -Pd2     -C76     -C77     :-119.324774
 P1      -C3      -C12     -C6      :  -1.244791
 P1      -C3      -C12     -C13     : 178.729711
 P1      -C3      -C16     -C15     :-178.962339
 P1      -C3      -C16     -H31     :   0.961507
 P1      -C4      -C17     -H32     :  69.066294
 P1      -C4      -C17     -H33     :-171.500578
 P1      -C4      -C17     -H34     : -51.385074
 P1      -C4      -C18     -H35     : -63.625205
 P1      -C4      -C18     -H36     :  59.871656
 P1      -C4      -C18     -H37     : 177.992778
 P1      -C4      -C19     -H38     :  54.960151
 P1      -C4      -C19     -H39     : 174.826861
 P1      -C4      -C19     -H40     : -65.126497
 P1      -C5      -C20     -H41     : -50.476119
 P1      -C5      -C20     -H42     :  70.318293
 P1      -C5      -C20     -H43     :-170.366999
 P1      -C5      -C21     -H44     :  59.004770
 P1      -C5      -C21     -H45     : 178.976975
 P1      -C5      -C21     -H46     : -61.091110
 P1      -C5      -C22     -H47     : -60.037413
 P1      -C5      -C22     -H48     :  62.500013
 P1      -C5      -C22     -H49     :-179.204233
 Pd2     -P1      -C3      -C12     :  11.615731
 Pd2     -P1      -C3      -C16     :-169.774349
 Pd2     -P1      -C4      -C17     :  82.405157
 Pd2     -P1      -C4      -C18     :-152.760667
 Pd2     -P1      -C4      -C19     : -31.921688
 Pd2     -P1      -C5      -C20     :  62.890670
 Pd2     -P1      -C5      -C21     : -52.690285
 Pd2     -P1      -C5      -C22     :-171.030664
 Pd2     -C76     -C75     -C74     :-173.175344
 Pd2     -C76     -C75     -H14     :   6.824656
 Pd2     -C76     -C75     -H41     : -73.475669
 Pd2     -C76     -C77     -C78     : 173.082800
 Pd2     -C76     -C77     -H82     :  -6.856619
 Br3     -Pd2     -P1      -C3      :   0.000000
 Br3     -Pd2     -P1      -C4      :-120.492344
 Br3     -Pd2     -P1      -C5      : 116.438249
 Br3     -Pd2     -C76     -C75     :-121.790841
 Br3     -Pd2     -C76     -C77     :  62.675482
 C73     -C74     -C75     -C76     :  -0.186500
 C73     -C74     -C75     -H14     : 179.813500
 C73     -C74     -C75     -H41     : -87.711718
 C73     -C78     -C77     -C76     :   0.652883
 C73     -C78     -C77     -H82     :-179.407300
 C74     -C73     -C78     -C77     :   1.604524
 C74     -C73     -C78     -H83     :-178.325638
 C74     -C75     -C76     -C77     :   2.355796
 C74     -C75     -H41     -C20     : -79.581729
 C75     -C74     -C73     -C78     :  -1.835403
 C75     -C74     -C73     -F79     : 178.220350
 C75     -C76     -C77     -C78     :  -2.590835
 C75     -C76     -C77     -H82     : 177.469747
 C75     -H41     -C20     -C5      :-101.836291
 C75     -H41     -C20     -H42     : 134.919462
 C75     -H41     -C20     -H43     :  20.679878
 C76     -Pd2     -P1      -C3      :-164.054444
 C76     -Pd2     -P1      -C4      :  75.453212
 C76     -Pd2     -P1      -C5      : -47.616195
 C76     -C75     -C74     -H80     : 178.124774
 C76     -C75     -H41     -C20     : 160.644454
 C76     -C77     -C78     -H83     :-179.418397
 C77     -C76     -C75     -H14     :-177.644204
 C77     -C76     -C75     -H41     : 102.055470
 C77     -C78     -C73     -F79     :-178.451208
 C78     -C73     -C74     -H80     : 179.819533
 F79     -C73     -C74     -H80     :  -0.124714
 F79     -C73     -C78     -H83     :   1.618630
 H80     -C74     -C75     -H14     :  -1.875226
 H80     -C74     -C75     -H41     :  90.599557
 H82     -C77     -C78     -H83     :   0.521420
 H14     -C75     -H41     -C20     :  40.244988
 C3      -P1      -C4      -C17     : -38.914883
 C3      -P1      -C4      -C18     :  85.919293
 C3      -P1      -C4      -C19     :-153.241727
 C3      -P1      -C5      -C20     :-177.595796
 C3      -P1      -C5      -C21     :  66.823249
 C3      -P1      -C5      -C22     : -51.517131
 C3      -C12     -C6      -C7      :-105.457153
 C3      -C12     -C6      -C11     :  74.547585
 C3      -C12     -C13     -C14     :  -0.059613
 C3      -C12     -C13     -H28     : 179.909160
 C3      -C16     -C15     -C14     :   0.107798
 C3      -C16     -C15     -H30     :-179.945215
 C4      -P1      -C3      -C12     : 132.225580
 C4      -P1      -C3      -C16     : -49.164500
 C4      -P1      -C5      -C20     : -58.917219
 C4      -P1      -C5      -C21     :-174.498174
 C4      -P1      -C5      -C22     :  67.161446
 C5      -P1      -C3      -C12     :-107.553020
 C5      -P1      -C3      -C16     :  71.056900
 C5      -P1      -C4      -C17     :-155.415056
 C5      -P1      -C4      -C18     : -30.580880
 C5      -P1      -C4      -C19     :  90.258099
 C6      -C7      -C8      -C9      :  -0.011981
 C6      -C7      -C8      -H24     : 179.970654
 C6      -C11     -C10     -C9      :   0.040255
 C6      -C11     -C10     -H26     :-179.980554
 C6      -C12     -C3      -C16     :-179.763430
 C6      -C12     -C13     -C14     : 179.917547
 C6      -C12     -C13     -H28     :  -0.113679
 C7      -C6      -C11     -C10     :  -0.074732
 C7      -C6      -C11     -H27     : 179.848321
 C7      -C6      -C12     -C13     :  74.569205
 C7      -C8      -C9      -C10     :  -0.029064
 C7      -C8      -C9      -H25     : 179.990200
 C8      -C7      -C6      -C11     :   0.060605
 C8      -C7      -C6      -C12     :-179.935221
 C8      -C9      -C10     -C11     :   0.015975
 C8      -C9      -C10     -H26     :-179.963423
 C9      -C8      -C7      -H23     :-179.943483
 C9      -C10     -C11     -H27     :-179.890053
 C10     -C9      -C8      -H24     : 179.988104
 C10     -C11     -C6      -C12     : 179.920963
 C11     -C6      -C7      -H23     : 179.984505
 C11     -C6      -C12     -C13     :-105.426058
 C11     -C10     -C9      -H25     : 179.996718
 C12     -C3      -C16     -C15     :  -0.249043
 C12     -C3      -C16     -H31     : 179.674803
 C12     -C6      -C7      -H23     :  -0.011321
 C12     -C6      -C11     -H27     :  -0.155984
 C12     -C13     -C14     -C15     :  -0.073105
 C12     -C13     -C14     -H29     : 179.984555
 C13     -C12     -C3      -C16     :   0.211072
 C13     -C14     -C15     -C16     :   0.051014
 C13     -C14     -C15     -H30     :-179.896162
 C14     -C15     -C16     -H31     :-179.819709
 C15     -C14     -C13     -H28     : 179.954905
 C16     -C15     -C14     -H29     : 179.994058
 C17     -C4      -C18     -H35     :  61.394213
 C17     -C4      -C18     -H36     :-175.108926
 C17     -C4      -C18     -H37     : -56.987804
 C17     -C4      -C19     -H38     : -60.909139
 C17     -C4      -C19     -H39     :  58.957571
 C17     -C4      -C19     -H40     : 179.004213
 C18     -C4      -C17     -H32     : -62.191818
 C18     -C4      -C17     -H33     :  57.241310
 C18     -C4      -C17     -H34     : 177.356814
 C18     -C4      -C19     -H38     :-176.206687
 C18     -C4      -C19     -H39     : -56.339978
 C18     -C4      -C19     -H40     :  63.706664
 C19     -C4      -C17     -H32     :-176.313205
 C19     -C4      -C17     -H33     : -56.880076
 C19     -C4      -C17     -H34     :  63.235427
 C19     -C4      -C18     -H35     : 175.399296
 C19     -C4      -C18     -H36     : -61.103843
 C19     -C4      -C18     -H37     :  57.017279
 C20     -C5      -C21     -H44     : -59.893717
 C20     -C5      -C21     -H45     :  60.078488
 C20     -C5      -C21     -H46     :-179.989597
 C20     -C5      -C22     -H47     :  67.458488
 C20     -C5      -C22     -H48     :-170.004085
 C20     -C5      -C22     -H49     : -51.708331
 C21     -C5      -C20     -H41     :  64.392944
 C21     -C5      -C20     -H42     :-174.812645
 C21     -C5      -C20     -H43     : -55.497936
 C21     -C5      -C22     -H47     :-177.791448
 C21     -C5      -C22     -H48     : -55.254022
 C21     -C5      -C22     -H49     :  63.041732
 C22     -C5      -C20     -H41     : 179.093085
 C22     -C5      -C20     -H42     : -60.112503
 C22     -C5      -C20     -H43     :  59.202205
 C22     -C5      -C21     -H44     :-176.007825
 C22     -C5      -C21     -H45     : -56.035620
 C22     -C5      -C21     -H46     :  63.896294
 H23     -C7      -C8      -H24     :   0.039152
 H24     -C8      -C9      -H25     :   0.007368
 H25     -C9      -C10     -H26     :   0.017320
 H26     -C10     -C11     -H27     :   0.089139
 H28     -C13     -C14     -H29     :   0.012565
 H29     -C14     -C15     -H30     :   0.046882
 H30     -C15     -C16     -H31     :   0.127278
 
  nuclear repulsion energy.......          3790.832232354 hartrees
  
  Detected an organometallic with only one TM atom. 
  
  Formal charge on ligand        1 is    -1
  Formal multiplet on ligand     1 is     1
  Oxidation state on metal       2 is     2
  Formal multiplet on metal      2 is     1
  Formal charge on ligand        3 is    -1
  Formal multiplet on ligand     3 is     1
  
 
  Will use High-Quality Initial guess for organometallics
       including d-d repulsion (iguess=30)
 
 Non-default options chosen:
   SCF calculation type: DFT(b3pw91-d3)              
   DFT=Becke_3_Parameter/HF+Slater+Becke88+PW91+PW-GGAIIC (B3PW91-D3)
   Geometry will be optimized in redundant internal coordinates
   Solvation energy will be computed using PBF
     -solute cavity energy will not be included
     -surface area terms will not be included
   Vibrational frequencies and related properties will be computed
      from analytic second derivatives
   IR intensities will be computed
   Thermochemical properties will be computed
   Maximum number of geometry steps: 100
   Scaling standard convergence criteria by a factor of   5.00
   Solvent: benzene                                                         
   Internal dielectric constant:    1.000
   Continuum dielectric constant:   2.283
   Solvent probe molecule radius:   2.600
  
 Non-default print settings:
     11=  2
  
 Temporary integer options set:
     21= -1  73=  2
  
  atom       vdw   vdw2    cov     mass  grid  daf  charge   basis
  P1        2.147  2.074  1.060   30.974    Y    Y      Y    ps_6-31g*
  Pd2       1.450  1.450  1.280  105.903    Y    Y      Y    lacv3p*
  Br3       2.095  2.095  1.140   78.918    Y    Y      Y    lav3p*
  C73       1.949  1.900  0.770   12.000    Y    Y      Y    ps_6-31g*
  C74       1.949  1.900  0.770   12.000    Y    Y      Y    ps_6-31g*
  C75       1.949  1.900  0.770   12.000    Y    Y      Y    ps_6-31g*
  C76       1.949  1.900  0.770   12.000    Y    Y      Y    ps_6-31g*
  C77       1.949  1.900  0.770   12.000    Y    Y      Y    ps_6-31g*
  C78       1.949  1.900  0.770   12.000    Y    Y      Y    ps_6-31g*
  F79       1.736  1.682  0.720   18.998    Y    Y      Y    ps_6-31g*
  H80       1.597  1.150  0.320    1.008    Y    Y      Y    ps_6-31g*
  H82       1.597  1.150  0.320    1.008    Y    Y      Y    ps_6-31g*
  H83       1.597  1.150  0.320    1.008    Y    Y      Y    ps_6-31g*
  H14       1.597  1.150  0.320    1.008    Y    Y      Y    ps_6-31g*
  C3        1.949  1.900  0.770   12.000    Y    Y      Y    ps_6-31g*
  C4        1.949  1.900  0.770   12.000    Y    Y      Y    ps_6-31g*
  C5        1.949  1.900  0.770   12.000    Y    Y      Y    ps_6-31g*
  C6        1.949  1.900  0.770   12.000    Y    Y      Y    ps_6-31g*
  C7        1.949  1.900  0.770   12.000    Y    Y      Y    ps_6-31g*
  C8        1.949  1.900  0.770   12.000    Y    Y      Y    ps_6-31g*
  C9        1.949  1.900  0.770   12.000    Y    Y      Y    ps_6-31g*
  C10       1.949  1.900  0.770   12.000    Y    Y      Y    ps_6-31g*
  C11       1.949  1.900  0.770   12.000    Y    Y      Y    ps_6-31g*
  C12       1.949  1.900  0.770   12.000    Y    Y      Y    ps_6-31g*
  C13       1.949  1.900  0.770   12.000    Y    Y      Y    ps_6-31g*
  C14       1.949  1.900  0.770   12.000    Y    Y      Y    ps_6-31g*
  C15       1.949  1.900  0.770   12.000    Y    Y      Y    ps_6-31g*
  C16       1.949  1.900  0.770   12.000    Y    Y      Y    ps_6-31g*
  C17       1.949  1.900  0.770   12.000    Y    Y      Y    ps_6-31g*
  C18       1.949  1.900  0.770   12.000    Y    Y      Y    ps_6-31g*
  C19       1.949  1.900  0.770   12.000    Y    Y      Y    ps_6-31g*
  C20       1.949  1.900  0.770   12.000    Y    Y      Y    ps_6-31g*
  C21       1.949  1.900  0.770   12.000    Y    Y      Y    ps_6-31g*
  C22       1.949  1.900  0.770   12.000    Y    Y      Y    ps_6-31g*
  H23       1.597  1.150  0.320    1.008    Y    Y      Y    ps_6-31g*
  H24       1.597  1.150  0.320    1.008    Y    Y      Y    ps_6-31g*
  H25       1.597  1.150  0.320    1.008    Y    Y      Y    ps_6-31g*
  H26       1.597  1.150  0.320    1.008    Y    Y      Y    ps_6-31g*
  H27       1.597  1.150  0.320    1.008    Y    Y      Y    ps_6-31g*
  H28       1.597  1.150  0.320    1.008    Y    Y      Y    ps_6-31g*
  H29       1.597  1.150  0.320    1.008    Y    Y      Y    ps_6-31g*
  H30       1.597  1.150  0.320    1.008    Y    Y      Y    ps_6-31g*
  H31       1.597  1.150  0.320    1.008    Y    Y      Y    ps_6-31g*
  H32       1.597  1.150  0.320    1.008    Y    Y      Y    ps_6-31g*
  H33       1.597  1.150  0.320    1.008    Y    Y      Y    ps_6-31g*
  H34       1.597  1.150  0.320    1.008    Y    Y      Y    ps_6-31g*
  H35       1.597  1.150  0.320    1.008    Y    Y      Y    ps_6-31g*
  H36       1.597  1.150  0.320    1.008    Y    Y      Y    ps_6-31g*
  H37       1.597  1.150  0.320    1.008    Y    Y      Y    ps_6-31g*
  H38       1.597  1.150  0.320    1.008    Y    Y      Y    ps_6-31g*
  H39       1.597  1.150  0.320    1.008    Y    Y      Y    ps_6-31g*
  H40       1.597  1.150  0.320    1.008    Y    Y      Y    ps_6-31g*
  H41       1.597  1.150  0.320    1.008    Y    Y      Y    ps_6-31g*
  H42       1.597  1.150  0.320    1.008    Y    Y      Y    ps_6-31g*
  H43       1.597  1.150  0.320    1.008    Y    Y      Y    ps_6-31g*
  H44       1.597  1.150  0.320    1.008    Y    Y      Y    ps_6-31g*
  H45       1.597  1.150  0.320    1.008    Y    Y      Y    ps_6-31g*
  H46       1.597  1.150  0.320    1.008    Y    Y      Y    ps_6-31g*
  H47       1.597  1.150  0.320    1.008    Y    Y      Y    ps_6-31g*
  H48       1.597  1.150  0.320    1.008    Y    Y      Y    ps_6-31g*
  H49       1.597  1.150  0.320    1.008    Y    Y      Y    ps_6-31g*
 
  atom      formal  2spin      esp    mulk    frag
  P1          -1       0        Y    0.000       0
  Pd2          2       0        Y    0.000       0
  Br3         -1       0        Y    0.000       0
  
  end of program pre
   
 Time(pre)  user:       1.042  user+sys:       1.042  wallclock:       1.054
  
  start of program onee
  
  smallest eigenvalue of S:    3.698E-04
  number of canonical orbitals.....          494
  end of program onee
   
 Time(onee)  user:       4.925  user+sys:       4.925  wallclock:       3.439
  
  start of program hfig
  
  initial wavefunction generated automatically from atomic wavefunctions
  Only one state below 0.010000
  Skip d-d repulsion considerations 
 
  Irreducible     Total no   No of occupied orbitals 
  representation  orbitals   Shell_1  Shell_2    ...
  No Symm          494        118
  ------------------------
  Orbital occupation/shell    1.000
 
  end of program hfig
   
 Time(hfig)  user:       0.782  user+sys:       0.782  wallclock:       0.797
  
  start of program probe
  
  end of program probe
   
 Time(probe)  user:       0.373  user+sys:       0.373  wallclock:       0.332
  
  start of program grid
  
   grid     grid set  grid #  grid sym
  ------    --------  ------  --------
  coarse        0        0        1
  medium        2        1        1
  fine          0        0        1
  ultrafine     4        2        1
  charge       -1        3        1
  gradient      4        2        1
  density       0        0        1
  DFT-fine    -11        4        1
  DFT-med.    -10        5        1
  DFT-grad    -12        6        1
  DFT-der2     -8        7        1
  DFT-cphf     -9        8        1
  LMP2-enrg     4        2        1
  LMP2-grad     2        1        1
  DFT-cphf2   -15        9        1
  PBF-dens      0        0        1
  plotting      0        0        1
  Rel-grad    -17        0        1
  
  number of gridpoints: 
     atom           P1         Pd2         Br3         C73         C74         C75         C76
  grid # 1         527         348         502          79          92          82          96
  grid # 2         370         306         488         333         314         257         377
  grid # 3           6         211         320          40          32          23          19
  grid # 4        8714        8714        8714        8714        8714        8714        8714
  grid # 5        1192        1192        1192        1192        1192        1192        1192
  grid # 6        9132        9132        9132        5922        5922        5922        5922
  grid # 7       23034       32968       11582       13950       13950       13950       13950
  grid # 8         722        1150         694         748         748         748         748
  grid # 9         366        2198         358         394         394         394         394
   
  number of gridpoints: 
     atom          C77         C78         F79         H80         H82         H83         H14
  grid # 1          94          93         585         112         112         115          94
  grid # 2         320         322         567         457         451         464         393
  grid # 3          21          32         365         341         236         411          95
  grid # 4        8714        8714        8714        8714        8714        8714        8714
  grid # 5        1192        1192        1192        1192        1192        1192        1192
  grid # 6        5922        5922        5922        5922        5922        5922        5922
  grid # 7       13950       13950       23190       15206       15206       15206       15206
  grid # 8         748         748         770         786         786         786         786
  grid # 9         394         394         420         420         420         420         420
   
  number of gridpoints: 
     atom           C3          C4          C5          C6          C7          C8          C9
  grid # 1          91          87          87          96          92          95          95
  grid # 2         354         337         344         349         326         323         322
  grid # 3           6           6           6          10          18          29          29
  grid # 4        8714        8714        8714        8714        8714        8714        8714
  grid # 5        1192        1192        1192        1192        1192        1192        1192
  grid # 6        5922        5922        5922        5922        5922        5922        5922
  grid # 7       13950       13950       13950       13950       13950       13950       13950
  grid # 8         748         748         748         748         748         748         748
  grid # 9         394         394         394         394         394         394         394
   
  number of gridpoints: 
     atom          C10         C11         C12         C13         C14         C15         C16
  grid # 1          95          93          97          93          97          95          89
  grid # 2         324         325         349         326         323         318         315
  grid # 3          29          21          11          28          39          18           6
  grid # 4        8714        8714        8714        8714        8714        8714        8714
  grid # 5        1192        1192        1192        1192        1192        1192        1192
  grid # 6        5922        5922        5922        5922        5922        5922        5922
  grid # 7       13950       13950       13950       13950       13950       13950       13950
  grid # 8         748         748         748         748         748         748         748
  grid # 9         394         394         394         394         394         394         394
   
  number of gridpoints: 
     atom          C17         C18         C19         C20         C21         C22         H23
  grid # 1          78          81          79          80          80          80         115
  grid # 2         248         240         247         241         241         242         458
  grid # 3           6           6           6           6           6           6         319
  grid # 4        8714        8714        8714        8714        8714        8714        8714
  grid # 5        1192        1192        1192        1192        1192        1192        1192
  grid # 6        5922        5922        5922        5922        5922        5922        5922
  grid # 7       13950       13950       13950       13950       13950       13950       15206
  grid # 8         748         748         748         748         748         748         786
  grid # 9         394         394         394         394         394         394         420
   
  number of gridpoints: 
     atom          H24         H25         H26         H27         H28         H29         H30
  grid # 1         117         117         117         104         116         118         118
  grid # 2         464         465         463         432         460         465         467
  grid # 3         378         367         372         177         363         420         404
  grid # 4        8714        8714        8714        8714        8714        8714        8714
  grid # 5        1192        1192        1192        1192        1192        1192        1192
  grid # 6        5922        5922        5922        5922        5922        5922        5922
  grid # 7       15206       15206       15206       15206       15206       15206       15206
  grid # 8         786         786         786         786         786         786         786
  grid # 9         420         420         420         420         420         420         420
   
  number of gridpoints: 
     atom          H31         H32         H33         H34         H35         H36         H37
  grid # 1          90         102         107         104          98          98         107
  grid # 2         387         429         445         442         401         415         443
  grid # 3          48         187         282         191         150         135         274
  grid # 4        8714        8714        8714        8714        8714        8714        8714
  grid # 5        1192        1192        1192        1192        1192        1192        1192
  grid # 6        5922        5922        5922        5922        5922        5922        5922
  grid # 7       15206       15206       15206       15206       15206       15206       15206
  grid # 8         786         786         786         786         786         786         786
  grid # 9         420         420         420         420         420         420         420
   
  number of gridpoints: 
     atom          H38         H39         H40         H41         H42         H43         H44
  grid # 1          97         108          94          74          95         103          93
  grid # 2         420         447         406         335         407         417         409
  grid # 3          84         261          77           7         125         135          73
  grid # 4        8714        8714        8714        8714        8714        8714        8714
  grid # 5        1192        1192        1192        1192        1192        1192        1192
  grid # 6        5922        5922        5922        5922        5922        5922        5922
  grid # 7       15206       15206       15206       15206       15206       15206       15206
  grid # 8         786         786         786         786         786         786         786
  grid # 9         420         420         420         420         420         420         420
   
  number of gridpoints: 
     atom          H45         H46         H47         H48         H49       total
  grid # 1         107         100          96         100         109        7515
  grid # 2         443         422         403         424         447       23129
  grid # 3         256         125         124         177         275        8230
  grid # 4        8714        8714        8714        8714        8714      531554
  grid # 5        1192        1192        1192        1192        1192       72712
  grid # 6        5922        5922        5922        5922        5922      370872
  grid # 7       15206       15206       15206       15206       15206      924860
  grid # 8         786         786         786         786         786       47150
  grid # 9         420         420         420         420         420       26606
   
  end of program grid
   
 Time(grid)  user:     155.277  user+sys:     155.277  wallclock:      79.576
  
  start of program rwr
  
  end of program rwr
   
 Time(rwr)  user:      13.137  user+sys:      13.137  wallclock:      16.435
  
  start of program scf
  
 number of electrons..........        236
 number of alpha electrons....        118
 number of beta electrons.....        118
 number of orbitals, total....        494
 number of doubly-occ'd orbs..        118
 number of open shell orbs....          0
 number of occupied orbitals..        118
 number of virtual orbitals...        376
 number of hamiltonians.......          1
 number of shells.............          1
 SCF type: DFT=Becke_3_Parameter/HF+Slater+Becke88+PW91+PW-GGAIIC (B3PW91-D3)
 Energy computed using pseudospectral method.
 Convergence Criterion:
    Energy (econv):       1.00E-05
    RMS density (dconv):  5.00E-06
  
       i  u  d  i  g                   
       t  p  i  c  r                                 RMS    maximum
       e  d  i  u  i                       energy  density   DIIS  
       r  t  s  t  d       total energy    change  change    error 
  
etot    1  N  N  5  M   -1585.27712858024           3.4E-03  1.8E-01
etot    2  Y  Y  6  M   -1588.03208511656  2.8E+00  5.0E-03  1.2E-01
etot    3  Y  Y  6  M   -1588.39883851893  3.7E-01  3.3E-03  5.7E-02
etot    4  N  Y  2  U   -1589.29497173590  9.0E-01  2.1E-03  4.4E-02
etot    5  Y  Y  6  M   -1589.47021562509  1.8E-01  1.2E-03  1.3E-02
etot    6  N  Y  2  U   -1589.49275296079  2.3E-02  6.2E-04  9.9E-03
etot    7  Y  Y  6  M   -1589.49969792546  6.9E-03  1.4E-04  4.1E-03
etot    8  N  Y  2  U   -1589.50225345096  2.6E-03  5.4E-05  1.4E-03
etot    9  Y  Y  6  M   -1589.50259358528  3.4E-04  1.8E-05  1.9E-04
etot   10  N  Y  2  U   -1589.50254113891 -5.2E-05  1.0E-05  1.1E-04
etot   11  N  Y  2  U   -1589.50254574878  4.6E-06  4.5E-06  4.2E-05
etot   12  N  N  2  U   -1589.50254669465  9.5E-07  0.0E+00  0.0E+00
 
  Computing the dispersion energy correction and its gradients...
  
  
 Energy components, in hartrees:
   (A)  Nuclear repulsion............    3790.83223235393
   (E)  Total one-electron terms.....   -9768.81918771322
   (F)    Electron-nuclear...........  -11265.24040348098
   (H)    Kinetic....................    1496.42121576777
   (I)  Total two-electron terms.....    4388.48440866463
   (J)    Coulomb....................    4590.70919703229
   (K)    Exchange+Correlation.......    -202.22478836766
   (L)  Electronic energy............   -5380.33477904858  (E+I)
   (N0) D3 correction................      -0.12394315768
   (N)  Total energy.................   -1589.62648985233  (A+L+N0)
   (O)  Gas phase energy.............   -1589.62648985233
  
 SCFE: SCF energy: DFT(b3pw91-d3)     -1589.62648985233 hartrees   iterations:  12
  
 
 HOMO energy:    -0.14678
 LUMO energy:    -0.06951
 
  Orbital energies (hartrees): 
   -77.03148   -24.66739   -10.23479   -10.22733   -10.21156   -10.20893
   -10.20655   -10.20421   -10.20269   -10.19963   -10.19917   -10.19577
   -10.19288   -10.19064   -10.18961   -10.18938   -10.18850   -10.18494
   -10.18417   -10.18397   -10.17601   -10.17364   -10.17208   -10.17202
   -10.16560   -10.15730   -10.14469   -10.13600    -6.56698    -4.72292
    -4.72260    -4.71952    -3.34080    -2.07450    -2.07098    -2.04019
    -1.19751    -0.97558    -0.94378    -0.88874    -0.86167    -0.85494
    -0.81137    -0.80516    -0.79361    -0.75755    -0.74684    -0.74076
    -0.73517    -0.72211    -0.71356    -0.70626    -0.70044    -0.65722
    -0.64954    -0.64297    -0.63614    -0.61758    -0.60406    -0.60355
    -0.59070    -0.56792    -0.54683    -0.53643    -0.52903    -0.52726
    -0.51016    -0.50689    -0.49783    -0.49237    -0.48130    -0.47564
    -0.46933    -0.46555    -0.46077    -0.45753    -0.45009    -0.44366
    -0.43830    -0.43523    -0.42924    -0.42427    -0.42215    -0.41418
    -0.41192    -0.40962    -0.40165    -0.39677    -0.39637    -0.39310
    -0.39032    -0.38439    -0.37925    -0.37664    -0.37205    -0.36716
    -0.36135    -0.35143    -0.34422    -0.33969    -0.33834    -0.33110
    -0.32572    -0.32265    -0.30777    -0.29050    -0.28615    -0.28339
    -0.27704    -0.27269    -0.25641    -0.25313    -0.23822    -0.21634
    -0.21164    -0.20140    -0.18873    -0.14678    -0.06951    -0.05441
    -0.04217    -0.01284    -0.00681    -0.00107     0.01193     0.03034
     0.05166     0.05712
 
  end of program scf
   
 Time(scf)  user:     279.880  user+sys:     279.880  wallclock:     149.038
  
  start of program der1a
  
  end of program der1a
   
 Time(der1a)  user:      15.753  user+sys:      15.753  wallclock:       8.426
  
  start of program rwr
  
  end of program rwr
   
 Time(rwr)  user:      13.538  user+sys:      13.538  wallclock:      17.681
  
  start of program der1b
  
   
  forces (hartrees/bohr) : total     
   
 atom  label           x              y              z
 ---- --------   -------------  -------------  -------------
    1 P1          3.387305E-03   4.518856E-03   2.954842E-01
    2 Pd2         2.186684E-02  -1.255596E-02   2.425309E-02
    3 Br3        -2.565474E-02   9.126648E-03   1.394258E-03
    4 C73         6.117648E-03  -1.073360E-02  -7.504917E-03
    5 C74        -5.738008E-02  -2.103215E-02   3.976986E-02
    6 C75        -3.742075E-02  -2.183301E-01   3.143540E-01
    7 C76        -7.787309E-04   2.143140E-02   8.845202E-02
    8 C77         3.959113E-03  -1.740206E-02  -1.398237E-03
    9 C78        -8.912841E-03   1.296289E-02   5.599140E-03
   10 F79         8.384976E-03   8.010607E-04   3.899160E-04
   11 H80         6.835587E-04  -1.732551E-04   2.298797E-03
   12 H82         4.873874E-04  -3.915411E-04  -3.313319E-04
   13 H83         1.359574E-03  -1.272311E-03   3.003552E-04
   14 H14        -1.679657E-04  -3.805230E-02   6.028997E-02
   15 C3          2.721823E-01  -3.493789E-03  -9.003999E-02
   16 C4         -1.477957E-01   2.601895E-01  -9.252259E-02
   17 C5         -1.259808E-01  -2.638478E-01  -9.577759E-02
   18 C6         -1.100208E-02   8.320812E-04   6.253991E-02
   19 C7          1.127160E-02   1.994631E-02   9.771029E-03
   20 C8          9.564194E-03  -5.365922E-03  -3.552193E-03
   21 C9          7.035103E-03  -2.073748E-03  -1.606888E-03
   22 C10         1.341609E-02  -2.033994E-03  -3.369848E-03
   23 C11        -4.078378E-03  -2.428204E-02   9.520579E-03
   24 C12         1.759997E-02   8.176399E-03  -6.446597E-02
   25 C13         1.761753E-02   4.363323E-04  -4.382611E-03
   26 C14        -3.824291E-03   5.679232E-04  -3.881600E-04
   27 C15        -1.768959E-03   4.912247E-04   1.464923E-03
   28 C16         3.014107E-02   3.187252E-03  -2.540156E-02
   29 C17         7.542255E-03   2.716630E-02  -3.016972E-03
   30 C18        -2.250912E-02   2.119239E-02  -1.676711E-02
   31 C19        -2.470564E-02   2.489734E-02   1.255722E-03
   32 C20         4.709501E-03  -1.747203E-03  -1.737875E-01
   33 C21         9.334490E-03  -3.107189E-02   2.501181E-03
   34 C22        -7.190868E-03  -2.515921E-02  -2.552528E-02
   35 H23        -4.713461E-03  -6.855194E-03  -1.099623E-02
   36 H24        -5.270139E-03  -6.458239E-03  -9.608578E-03
   37 H25        -1.601112E-03   2.108070E-03  -1.198912E-02
   38 H26         8.200069E-04   1.032148E-02  -7.500166E-03
   39 H27         5.940344E-03   7.552089E-03  -5.351537E-03
   40 H28        -1.035534E-02  -1.294685E-03   1.172861E-02
   41 H29        -8.256866E-03  -7.407550E-04   8.370702E-03
   42 H30        -2.010828E-03  -1.546201E-03   1.100319E-02
   43 H31         2.243171E-02  -6.720530E-04   1.206533E-02
   44 H32        -9.889618E-03   4.942180E-03   1.032619E-02
   45 H33         3.568994E-04  -1.154032E-02   4.415939E-03
   46 H34        -4.674263E-03  -2.105951E-03  -9.180142E-03
   47 H35        -1.681670E-02   9.893748E-03   7.664692E-03
   48 H36         7.922408E-03   1.459720E-02  -7.793351E-04
   49 H37         6.129728E-03  -7.064502E-03   6.727136E-03
   50 H38        -4.044713E-03   3.621789E-03  -1.925546E-02
   51 H39         4.941692E-03  -7.813651E-03  -4.366265E-03
   52 H40         1.050277E-02   1.971039E-02  -8.132384E-04
   53 H41         3.937850E-02   2.424307E-01  -3.087217E-01
   54 H42         1.586961E-03  -9.542033E-03   9.007699E-03
   55 H43         8.176066E-03   1.409726E-02  -4.492989E-03
   56 H44         7.394737E-03  -3.362756E-04  -1.499075E-02
   57 H45         2.065541E-03   9.662082E-03  -1.426489E-03
   58 H46        -1.544848E-02  -1.116595E-03  -8.716050E-04
   59 H47         8.610032E-03  -2.314640E-02   6.776240E-03
   60 H48        -1.335347E-02  -4.345892E-03   4.100652E-03
   61 H49         2.860968E-03   7.736657E-03   7.443048E-03
 -------------   -------------  -------------  -------------
     total        1.728212E-04  -1.000055E-03  -9.140006E-04
   
  end of program der1b
   
 Time(der1b)  user:      92.647  user+sys:      92.647  wallclock:      49.540
  
  start of program geopt
  
 ----------------------------------------------------------------------------
  Geometry optimization step  1
  Total energy:     -1589.62648985233 hartrees
 ----------------------------------------------------------------------------
  
  
  Level shifts adjusted to satisfy step-size constraints
   Step size:    0.3000735
   Cos(theta):   0.9981935
   Final level shift:  -2.6796194E+00
  
  gradient maximum:        5.0621E-01 .  (  2.2500E-03 )
  gradient rms:            6.9474E-02 .  (  1.5000E-03 )
  displacement maximum:    1.4528E-01 .  (  9.0000E-03 )
  displacement rms:        2.0756E-02 .  (  6.0000E-03 )
  
  predicted energy change:  -2.7105E-01
  step size:     0.30006
  trust radius:  0.30000
  
  molecular structure not yet converged...
  
  center of mass moved by:
     x:    -7.7262E-02     y:    -4.7768E-03     z:     1.2979E-02
  
  new geometry: 
                                   angstroms
  atom               x                 y                 z
  P1            0.0123156294     -0.0116908170     -0.0076941244 
  Pd2          -0.0490487839     -0.0273696514      2.2826486377 
  Br3           0.1710153016      0.0637821679      4.8267330563 
  C73          -4.6762358455     -1.1495048594      2.2283203159 
  C74          -3.7780197647     -2.0495689607      1.6810343637 
  C75          -2.4061036467     -1.7552404304      1.7355199597 
  C76          -1.9477229371     -0.5716948409      2.3507952500 
  C77          -2.8875630672      0.2799893865      2.9417327322 
  C78          -4.2564842751      0.0046450182      2.8748044147 
  F79          -6.0019000997     -1.4104082446      2.1456586378 
  H80          -4.1481537130     -2.9442906177      1.1875177298 
  H82          -2.5574365821      1.1771193036      3.4560127549 
  H83          -4.9933429269      0.6713953549      3.3155805573 
  H14          -1.6895082661     -2.4631666061      1.3470354600 
  C3            1.4835753834     -0.0069155787     -0.5294597752 
  C4           -0.6898329885      1.2999397869     -0.5066390938 
  C5           -0.6250579863     -1.3354054138     -0.5419260464 
  C6            2.8400371145     -0.4749906109      1.6315220083 
  C7            3.3270162162      0.5137459763      2.5245754069 
  C8            3.5189553877      0.3107522599      3.8989897739 
  C9            3.2314005406     -0.9261654317      4.4804959272 
  C10           2.7541208351     -1.9372737681      3.6438240282 
  C11           2.5700179881     -1.7036902657      2.2751004125 
  C12           2.6885556842     -0.2257659591      0.2188340353 
  C13           3.8822846105     -0.1897969266     -0.5442794655 
  C14           3.9507732216      0.0357326088     -1.9221079101 
  C15           2.7734479088      0.2436077343     -2.6325160183 
  C16           1.5746391060      0.2156872368     -1.9201020061 
  C17           0.3149288583      2.4748882058     -0.4538108512 
  C18          -1.3897687814      1.3834100414     -1.8841564160 
  C19          -1.8027127803      1.7001450973      0.4914736879 
  C20          -2.1163612479     -1.4506070077     -0.1661590078 
  C21           0.1044979632     -2.5010502327      0.1703946563 
  C22          -0.5094570786     -1.6736536163     -2.0453994139 
  H23           3.5904721369      1.5279685471      2.2041237279 
  H24           3.9009671473      1.1279947460      4.5311744134 
  H25           3.3771675323     -1.0991457503      5.5578612873 
  H26           2.5161890888     -2.9246461275      4.0703641318 
  H27           2.1901407407     -2.5736581437      1.7438514060 
  H28           4.8729193332     -0.3392438090     -0.1021313778 
  H29           4.9205679759      0.0489671506     -2.4448826866 
  H30           2.7871226299      0.4228910062     -3.7190636697 
  H31           0.6783667956      0.3808361336     -2.5194649280 
  H32           1.1177149598      2.3707653480     -1.2129886811 
  H33          -0.1839962047      3.4494386454     -0.6488049508 
  H34           0.8054554504      2.5469672777      0.5419968123 
  H35          -0.7062532436      1.2542742203     -2.7445002630 
  H36          -2.2144255940      0.6500165422     -1.9810222714 
  H37          -1.8549609313      2.3833320467     -2.0271473482 
  H38          -1.4048335107      1.8010054487      1.5240323218 
  H39          -2.2697535043      2.6735234914      0.2221504638 
  H40          -2.6206696493      0.9521442497      0.5254976174 
  H41          -2.2649349708     -1.2537059320      0.9443021849 
  H42          -2.7468618688     -0.7267164219     -0.7213404283 
  H43          -2.5202560868     -2.4588450233     -0.4011505769 
  H44           0.0068688749     -2.4330551499      1.2755277245 
  H45          -0.3027132092     -3.4903546981     -0.1347752762 
  H46           1.1899623609     -2.5092166034     -0.0683221148 
  H47          -0.9748109699     -0.9087503285     -2.6946758431 
  H48           0.5463121504     -1.8074503410     -2.3611177041 
  H49          -1.0218936155     -2.6333353574     -2.2761392826 
   
 
  bond lengths (angstroms):
 
 P1      -Pd2     :   2.291218      P1      -C3      :   1.561047
 P1      -C4      :   1.569182      P1      -C5      :   1.563288
 Pd2     -Br3     :   2.555211      Pd2     -C76     :   1.976334
 C73     -C74     :   1.384352      C73     -C78     :   1.387874
 C73     -F79     :   1.353621      C74     -C75     :   1.404191
 C74     -H80     :   1.086777      C75     -C76     :   1.410481
 C75     -H14     :   1.079624      C75     -H41     :   0.947360
 C76     -C77     :   1.399240      C77     -C78     :   1.397941
 C77     -H82     :   1.085500      C78     -H83     :   1.087106
 C3      -C12     :   1.435206      C3      -C16     :   1.411287
 C4      -C17     :   1.546881      C4      -C18     :   1.547395
 C4      -C19     :   1.547545      C5      -C20     :   1.542225
 C5      -C21     :   1.548671      C5      -C22     :   1.545383
 C6      -C7      :   1.418553      C6      -C11     :   1.413084
 C6      -C12     :   1.442479      C7      -C8      :   1.402520
 C7      -H23     :   1.095785      C8      -C9      :   1.396711
 C8      -H24     :   1.101579      C9      -C10     :   1.396480
 C9      -H25     :   1.100857      C10     -C11     :   1.400664
 C10     -H26     :   1.101568      C11     -H27     :   1.087831
 C12     -C13     :   1.417260      C13     -C14     :   1.397843
 C13     -H28     :   1.095074      C14     -C15     :   1.390678
 C14     -H29     :   1.101803      C15     -C16     :   1.394796
 C15     -H30     :   1.101324      C16     -H31     :   1.090786
 C17     -H32     :   1.109801      C17     -H33     :   1.112069
 C17     -H34     :   1.112405      C18     -H35     :   1.106373
 C18     -H36     :   1.107839      C18     -H37     :   1.112068
 C19     -H38     :   1.111152      C19     -H39     :   1.112712
 C19     -H40     :   1.108926      C20     -H41     :   1.137527
 C20     -H42     :   1.108952      C20     -H43     :   1.111259
 C21     -H44     :   1.111519      C21     -H45     :   1.112508
 C21     -H46     :   1.111434      C22     -H47     :   1.105980
 C22     -H48     :   1.110058      C22     -H49     :   1.112125
 
  bond angles:
 
 C3      -P1      -Pd2     : 111.061882  C4      -P1      -Pd2     : 108.154424
 C4      -P1      -C3      : 108.233535  C5      -P1      -Pd2     : 108.959009
 C5      -P1      -C3      : 105.820886  C5      -P1      -C4      : 114.624907
 Br3     -Pd2     -P1      : 173.079558  C76     -Pd2     -P1      :  93.559376
 C76     -Pd2     -Br3     :  93.338413  C78     -C73     -C74     : 121.910580
 F79     -C73     -C74     : 119.076417  F79     -C73     -C78     : 119.007688
 C75     -C74     -C73     : 118.835841  H80     -C74     -C73     : 119.591887
 H80     -C74     -C75     : 121.529479  C76     -C75     -C74     : 120.685244
 H14     -C75     -C74     : 119.807286  H14     -C75     -C76     : 119.437632
 H41     -C75     -C74     : 102.952748  H41     -C75     -C76     :  82.626797
 H41     -C75     -H14     :  87.002333  C75     -C76     -Pd2     : 121.889230
 C77     -C76     -Pd2     : 119.485622  C77     -C76     -C75     : 118.469300
 C78     -C77     -C76     : 121.173321  H82     -C77     -C76     : 119.924905
 H82     -C77     -C78     : 118.899691  C77     -C78     -C73     : 118.833074
 H83     -C78     -C73     : 119.597547  H83     -C78     -C77     : 121.569379
 C12     -C3      -P1      : 128.065492  C16     -C3      -P1      : 112.994826
 C16     -C3      -C12     : 118.923050  C17     -C4      -P1      : 109.474598
 C18     -C4      -P1      : 122.042457  C18     -C4      -C17     : 106.453521
 C19     -C4      -P1      : 109.442823  C19     -C4      -C17     : 104.397512
 C19     -C4      -C18     : 103.587246  C20     -C5      -P1      : 111.977190
 C21     -C5      -P1      : 106.742797  C21     -C5      -C20     : 106.692662
 C22     -C5      -P1      : 119.163522  C22     -C5      -C20     : 107.039408
 C22     -C5      -C21     : 104.329666  C11     -C6      -C7      : 112.639349
 C12     -C6      -C7      : 122.152599  C12     -C6      -C11     : 125.183736
 C8      -C7      -C6      : 124.266046  H23     -C7      -C6      : 122.925880
 H23     -C7      -C8      : 112.807650  C9      -C8      -C7      : 120.530528
 H24     -C8      -C7      : 120.163654  H24     -C8      -C9      : 119.305724
 C10     -C9      -C8      : 117.524541  H25     -C9      -C8      : 121.288619
 H25     -C9      -C10     : 121.186729  C11     -C10     -C9      : 120.640113
 H26     -C10     -C9      : 119.394034  H26     -C10     -C11     : 119.964939
 C10     -C11     -C6      : 124.398577  H27     -C11     -C6      : 122.662243
 H27     -C11     -C10     : 112.939063  C6      -C12     -C3      : 128.691801
 C13     -C12     -C3      : 114.996399  C13     -C12     -C6      : 116.311799
 C14     -C13     -C12     : 125.176451  H28     -C13     -C12     : 122.757475
 H28     -C13     -C14     : 112.066057  C15     -C14     -C13     : 119.088439
 H29     -C14     -C13     : 120.846645  H29     -C14     -C15     : 120.064886
 C16     -C15     -C14     : 117.627270  H30     -C15     -C14     : 121.185010
 H30     -C15     -C16     : 121.187693  C15     -C16     -C3      : 124.188005
 H31     -C16     -C3      : 120.817300  H31     -C16     -C15     : 114.994682
 H32     -C17     -C4      : 112.038357  H33     -C17     -C4      : 111.606535
 H33     -C17     -H32     : 106.666785  H34     -C17     -C4      : 111.482052
 H34     -C17     -H32     : 107.425879  H34     -C17     -H33     : 107.338526
 H35     -C18     -C4      : 113.985752  H36     -C18     -C4      : 112.261578
 H36     -C18     -H35     : 108.337674  H37     -C18     -C4      : 110.620954
 H37     -C18     -H35     : 105.271576  H37     -C18     -H36     : 105.820029
 H38     -C19     -C4      : 111.427079  H39     -C19     -C4      : 111.836259
 H39     -C19     -H38     : 107.206385  H40     -C19     -C4      : 112.072991
 H40     -C19     -H38     : 107.267822  H40     -C19     -H39     : 106.731695
 H41     -C20     -C5      : 110.562184  H42     -C20     -C5      : 112.274261
 H42     -C20     -H41     : 107.546078  H43     -C20     -C5      : 111.574198
 H43     -C20     -H41     : 108.421790  H43     -C20     -H42     : 106.244800
 H44     -C21     -C5      : 111.709023  H45     -C21     -C5      : 111.759997
 H45     -C21     -H44     : 107.156400  H46     -C21     -C5      : 111.519493
 H46     -C21     -H44     : 107.444384  H46     -C21     -H45     : 106.979343
 H47     -C22     -C5      : 112.848025  H48     -C22     -C5      : 111.976741
 H48     -C22     -H47     : 108.455914  H49     -C22     -C5      : 110.870494
 H49     -C22     -H47     : 106.327615  H49     -C22     -H48     : 105.975046
 C20     -H41     -C75     : 137.999165
 
  torsional angles:
 
 P1      -Pd2     -C76     -C75     :  57.574068
 P1      -Pd2     -C76     -C77     :-117.817584
 P1      -C3      -C12     -C6      :  -1.404542
 P1      -C3      -C12     -C13     : 178.587685
 P1      -C3      -C16     -C15     :-178.875129
 P1      -C3      -C16     -H31     :   1.081722
 P1      -C4      -C17     -H32     :  69.245114
 P1      -C4      -C17     -H33     :-171.208737
 P1      -C4      -C17     -H34     : -51.186372
 P1      -C4      -C18     -H35     : -63.759499
 P1      -C4      -C18     -H36     :  59.897337
 P1      -C4      -C18     -H37     : 177.851956
 P1      -C4      -C19     -H38     :  55.163564
 P1      -C4      -C19     -H39     : 175.136734
 P1      -C4      -C19     -H40     : -65.050840
 P1      -C5      -C20     -H41     : -49.977598
 P1      -C5      -C20     -H42     :  70.128441
 P1      -C5      -C20     -H43     :-170.725725
 P1      -C5      -C21     -H44     :  58.691925
 P1      -C5      -C21     -H45     : 178.743393
 P1      -C5      -C21     -H46     : -61.561586
 P1      -C5      -C22     -H47     : -59.974967
 P1      -C5      -C22     -H48     :  62.741610
 P1      -C5      -C22     -H49     :-179.127433
 Pd2     -P1      -C3      -C12     :  10.955080
 Pd2     -P1      -C3      -C16     :-170.562034
 Pd2     -P1      -C4      -C17     :  82.597486
 Pd2     -P1      -C4      -C18     :-152.250381
 Pd2     -P1      -C4      -C19     : -31.263063
 Pd2     -P1      -C5      -C20     :  63.483344
 Pd2     -P1      -C5      -C21     : -52.931152
 Pd2     -P1      -C5      -C22     :-170.567226
 Pd2     -C76     -C75     -C74     :-173.452009
 Pd2     -C76     -C75     -H14     :   9.592759
 Pd2     -C76     -C75     -H41     : -72.731022
 Pd2     -C76     -C77     -C78     : 172.597632
 Pd2     -C76     -C77     -H82     :  -6.871591
 Br3     -Pd2     -P1      -C3      :  20.600417
 Br3     -Pd2     -P1      -C4      : -98.028317
 Br3     -Pd2     -P1      -C5      : 136.780897
 Br3     -Pd2     -C76     -C75     :-122.985762
 Br3     -Pd2     -C76     -C77     :  61.622586
 C73     -C74     -C75     -C76     :   0.754606
 C73     -C74     -C75     -H14     : 177.698638
 C73     -C74     -C75     -H41     : -88.292048
 C73     -C78     -C77     -C76     :   1.150242
 C73     -C78     -C77     -H82     :-179.375207
 C74     -C73     -C78     -C77     :   1.731114
 C74     -C73     -C78     -H83     :-178.273268
 C74     -C75     -C76     -C77     :   1.984788
 C74     -C75     -H41     -C20     : -80.010254
 C75     -C74     -C73     -C78     :  -2.661923
 C75     -C74     -C73     -F79     : 178.185389
 C75     -C76     -C77     -C78     :  -2.951620
 C75     -C76     -C77     -H82     : 177.579157
 C75     -H41     -C20     -C5      :-101.613803
 C75     -H41     -C20     -H42     : 135.484935
 C75     -H41     -C20     -H43     :  20.993805
 C76     -Pd2     -P1      -C3      :-164.042943
 C76     -Pd2     -P1      -C4      :  77.328323
 C76     -Pd2     -P1      -C5      : -47.862464
 C76     -C75     -C74     -H80     : 178.364980
 C76     -C75     -H41     -C20     : 160.105517
 C76     -C77     -C78     -H83     :-178.845286
 C77     -C76     -C75     -H14     :-174.970444
 C77     -C76     -C75     -H41     : 102.705775
 C77     -C78     -C73     -F79     :-179.115633
 C78     -C73     -C74     -H80     : 179.680428
 F79     -C73     -C74     -H80     :   0.527739
 F79     -C73     -C78     -H83     :   0.879985
 H80     -C74     -C75     -H14     :  -4.690988
 H80     -C74     -C75     -H41     :  89.318325
 H82     -C77     -C78     -H83     :   0.629265
 H14     -C75     -H41     -C20     :  39.904915
 C3      -P1      -C4      -C17     : -37.814764
 C3      -P1      -C4      -C18     :  87.337370
 C3      -P1      -C4      -C19     :-151.675313
 C3      -P1      -C5      -C20     :-177.025113
 C3      -P1      -C5      -C21     :  66.560390
 C3      -P1      -C5      -C22     : -51.075684
 C3      -C12     -C6      -C7      :-105.581360
 C3      -C12     -C6      -C11     :  76.346446
 C3      -C12     -C13     -C14     :  -0.033698
 C3      -C12     -C13     -H28     : 179.914370
 C3      -C16     -C15     -C14     :   0.122790
 C3      -C16     -C15     -H30     :-179.936481
 C4      -P1      -C3      -C12     : 129.536133
 C4      -P1      -C3      -C16     : -51.980981
 C4      -P1      -C5      -C20     : -57.840241
 C4      -P1      -C5      -C21     :-174.254737
 C4      -P1      -C5      -C22     :  68.109188
 C5      -P1      -C3      -C12     :-107.143061
 C5      -P1      -C3      -C16     :  71.339825
 C5      -P1      -C4      -C17     :-155.638919
 C5      -P1      -C4      -C18     : -30.486785
 C5      -P1      -C4      -C19     :  90.500533
 C6      -C7      -C8      -C9      :   0.148370
 C6      -C7      -C8      -H24     :-179.963741
 C6      -C11     -C10     -C9      :   0.134415
 C6      -C11     -C10     -H26     : 179.784581
 C6      -C12     -C3      -C16     :-179.808941
 C6      -C12     -C13     -C14     : 179.959533
 C6      -C12     -C13     -H28     :  -0.092399
 C7      -C6      -C11     -C10     :   0.130215
 C7      -C6      -C11     -H27     : 179.997253
 C7      -C6      -C12     -C13     :  74.426500
 C7      -C8      -C9      -C10     :   0.133914
 C7      -C8      -C9      -H25     :-179.985801
 C8      -C7      -C6      -C11     :  -0.270489
 C8      -C7      -C6      -C12     :-178.563404
 C8      -C9      -C10     -C11     :  -0.267203
 C8      -C9      -C10     -H26     :-179.919350
 C9      -C8      -C7      -H23     : 179.916932
 C9      -C10     -C11     -H27     :-179.744037
 C10     -C9      -C8      -H24     :-179.754930
 C10     -C11     -C6      -C12     : 178.361861
 C11     -C6      -C7      -H23     : 179.983679
 C11     -C6      -C12     -C13     :-103.645695
 C11     -C10     -C9      -H25     : 179.852383
 C12     -C3      -C16     -C15     :  -0.239745
 C12     -C3      -C16     -H31     : 179.717106
 C12     -C6      -C7      -H23     :   1.690764
 C12     -C6      -C11     -H27     :  -1.771102
 C12     -C13     -C14     -C15     :  -0.079886
 C12     -C13     -C14     -H29     : 179.982583
 C13     -C12     -C3      -C16     :   0.183286
 C13     -C14     -C15     -C16     :   0.037301
 C13     -C14     -C15     -H30     :-179.903430
 C14     -C15     -C16     -H31     :-179.836325
 C15     -C14     -C13     -H28     : 179.967239
 C16     -C15     -C14     -H29     : 179.975331
 C17     -C4      -C18     -H35     :  62.749488
 C17     -C4      -C18     -H36     :-173.593677
 C17     -C4      -C18     -H37     : -55.639057
 C17     -C4      -C19     -H38     : -61.942021
 C17     -C4      -C19     -H39     :  58.031149
 C17     -C4      -C19     -H40     : 177.843575
 C18     -C4      -C17     -H32     : -64.480514
 C18     -C4      -C17     -H33     :  55.065636
 C18     -C4      -C17     -H34     : 175.088001
 C18     -C4      -C19     -H38     :-173.219501
 C18     -C4      -C19     -H39     : -53.246330
 C18     -C4      -C19     -H40     :  66.566096
 C19     -C4      -C17     -H32     :-173.671245
 C19     -C4      -C17     -H33     : -54.125095
 C19     -C4      -C17     -H34     :  65.897270
 C19     -C4      -C18     -H35     : 172.511147
 C19     -C4      -C18     -H36     : -63.832018
 C19     -C4      -C18     -H37     :  54.122602
 C20     -C5      -C21     -H44     : -61.189645
 C20     -C5      -C21     -H45     :  58.861823
 C20     -C5      -C21     -H46     : 178.556844
 C20     -C5      -C22     -H47     :  68.288131
 C20     -C5      -C22     -H48     :-168.995293
 C20     -C5      -C22     -H49     : -50.864335
 C21     -C5      -C20     -H41     :  66.467193
 C21     -C5      -C20     -H42     :-173.426768
 C21     -C5      -C20     -H43     : -54.280934
 C21     -C5      -C22     -H47     :-178.859185
 C21     -C5      -C22     -H48     : -56.142608
 C21     -C5      -C22     -H49     :  61.988349
 C22     -C5      -C20     -H41     : 177.700045
 C22     -C5      -C20     -H42     : -62.193917
 C22     -C5      -C20     -H43     :  56.951917
 C22     -C5      -C21     -H44     :-174.290269
 C22     -C5      -C21     -H45     : -54.238801
 C22     -C5      -C21     -H46     :  65.456220
 H23     -C7      -C8      -H24     :  -0.195179
 H24     -C8      -C9      -H25     :   0.125356
 H25     -C9      -C10     -H26     :   0.200235
 H26     -C10     -C11     -H27     :  -0.093871
 H28     -C13     -C14     -H29     :   0.029708
 H29     -C14     -C15     -H30     :   0.034600
 H30     -C15     -C16     -H31     :   0.104405
 
  nuclear repulsion energy.......          3720.637610717 hartrees
 -------------------------------------------------
   end of geometry optimization iteration  1
 -------------------------------------------------
   
  end of program geopt
   
 Time(geopt)  user:       0.564  user+sys:       0.564  wallclock:       0.594
  
  start of program onee
  
  smallest eigenvalue of S:    3.992E-04
  number of canonical orbitals.....          495
  end of program onee
   
 Time(onee)  user:       4.945  user+sys:       4.945  wallclock:       3.424
  
  start of program probe
  
  end of program probe
   
 Time(probe)  user:       0.395  user+sys:       0.395  wallclock:       0.348
  
  start of program grid
  
  end of program grid
   
 Time(grid)  user:     157.422  user+sys:     157.422  wallclock:      80.647
  
  start of program rwr
  
  end of program rwr
   
 Time(rwr)  user:      12.566  user+sys:      12.566  wallclock:      16.343
  
  start of program scf
  
 Energy computed using pseudospectral method.
 Convergence Criterion:
    Energy (econv):       1.00E-05
    RMS density (dconv):  5.00E-06
  
       i  u  d  i  g                   
       t  p  i  c  r                                 RMS    maximum
       e  d  i  u  i                       energy  density   DIIS  
       r  t  s  t  d       total energy    change  change    error 
  
etot    1  N  N  2  U   -1589.71370092613           8.4E-04  2.0E-02
etot    2  Y  Y  6  M   -1589.73515195483  2.1E-02  7.0E-04  7.6E-03
etot    3  N  Y  2  U   -1589.73468873996 -4.6E-04  1.9E-04  6.0E-03
etot    4  Y  Y  6  M   -1589.74082350887  6.1E-03  4.5E-05  1.2E-03
etot    5  N  Y  2  U   -1589.74125169575  4.3E-04  2.4E-05  3.9E-04
etot    6  N  Y  2  U   -1589.74128927932  3.8E-05  1.1E-05  1.5E-04
etot    7  N  Y  2  U   -1589.74129922807  9.9E-06  4.0E-06  5.3E-05
etot    8  N  N  2  U   -1589.74129997739  7.5E-07  0.0E+00  0.0E+00
 
  Computing the dispersion energy correction and its gradients...
  
  
 Energy components, in hartrees:
   (A)  Nuclear repulsion............    3720.63761071683
   (E)  Total one-electron terms.....   -9629.28072437167
   (F)    Electron-nuclear...........  -11124.45707218225
   (H)    Kinetic....................    1495.17634781059
   (I)  Total two-electron terms.....    4318.90181367744
   (J)    Coulomb....................    4520.87583860087
   (K)    Exchange+Correlation.......    -201.97402492343
   (L)  Electronic energy............   -5310.37891069422  (E+I)
   (N0) D3 correction................      -0.12257418482
   (N)  Total energy.................   -1589.86387416221  (A+L+N0)
   (O)  Gas phase energy.............   -1589.86387416221
  
 SCFE: SCF energy: DFT(b3pw91-d3)     -1589.86387416221 hartrees   iterations:   8
  
 
 HOMO energy:    -0.15619
 LUMO energy:    -0.07020
 
  Orbital energies (hartrees): 
   -77.05075   -24.66907   -10.23653   -10.22680   -10.21076   -10.20763
   -10.20547   -10.20438   -10.20221   -10.20211   -10.19775   -10.19441
   -10.19343   -10.19158   -10.18818   -10.18803   -10.18542   -10.18533
   -10.18502   -10.17627   -10.17618   -10.17539   -10.17499   -10.17278
   -10.17116   -10.16025   -10.14926   -10.14278    -6.57559    -4.73197
    -4.73192    -4.72905    -3.34146    -2.07603    -2.07113    -2.04019
    -1.20004    -0.94041    -0.91822    -0.88347    -0.86176    -0.84894
    -0.80763    -0.80226    -0.78934    -0.74898    -0.74749    -0.73687
    -0.72820    -0.71556    -0.71119    -0.70160    -0.69791    -0.65438
    -0.65003    -0.63921    -0.63206    -0.61188    -0.60555    -0.60145
    -0.58995    -0.56251    -0.54081    -0.53107    -0.52203    -0.51509
    -0.50514    -0.50206    -0.49298    -0.48616    -0.47712    -0.47103
    -0.46653    -0.46380    -0.45931    -0.45588    -0.44703    -0.44208
    -0.43835    -0.43545    -0.42873    -0.42255    -0.41762    -0.41546
    -0.41310    -0.40765    -0.40089    -0.39576    -0.39300    -0.38828
    -0.38720    -0.38308    -0.37984    -0.37428    -0.36739    -0.36664
    -0.35759    -0.35300    -0.34613    -0.34183    -0.33831    -0.33456
    -0.32812    -0.32331    -0.31026    -0.29281    -0.28600    -0.28209
    -0.27704    -0.27233    -0.25519    -0.25369    -0.24197    -0.21952
    -0.21663    -0.20438    -0.19985    -0.15619    -0.07020    -0.05817
    -0.04181    -0.01391    -0.00754    -0.00448     0.01113     0.03017
     0.05069     0.05735
 
  end of program scf
   
 Time(scf)  user:     231.035  user+sys:     231.035  wallclock:     122.904
  
  start of program der1a
  
  end of program der1a
   
 Time(der1a)  user:      15.800  user+sys:      15.800  wallclock:       8.496
  
  start of program rwr
  
  end of program rwr
   
 Time(rwr)  user:      12.887  user+sys:      12.887  wallclock:      17.083
  
  start of program der1b
  
   
  forces (hartrees/bohr) : total     
   
 atom  label           x              y              z
 ---- --------   -------------  -------------  -------------
    1 P1         -1.118007E-02   3.465436E-03   2.057060E-01
    2 Pd2         1.675905E-02  -8.283108E-03   2.432607E-02
    3 Br3        -7.643731E-03   2.551275E-03  -6.158097E-03
    4 C73         4.172812E-03  -7.857903E-03  -4.067937E-03
    5 C74        -3.780223E-02  -1.566992E-02   3.275818E-02
    6 C75        -3.055041E-02  -1.315594E-01   2.274098E-01
    7 C76        -5.000672E-03   1.377254E-02   6.462647E-02
    8 C77         4.665229E-03  -1.058077E-02  -2.725341E-03
    9 C78        -6.449678E-03   9.318018E-03   2.874346E-03
   10 F79         6.822371E-03   8.606184E-04  -1.917420E-05
   11 H80         1.115153E-03  -1.503963E-04   1.901385E-03
   12 H82         7.102393E-04  -4.660521E-04  -2.818571E-04
   13 H83         1.358930E-03  -1.063741E-03   4.820573E-04
   14 H14        -3.591188E-03  -2.553984E-02   4.539370E-02
   15 C3          1.945071E-01  -4.354881E-03  -6.261512E-02
   16 C4         -1.034991E-01   1.927683E-01  -6.436697E-02
   17 C5         -9.141839E-02  -1.924231E-01  -7.507451E-02
   18 C6         -7.934038E-03  -5.737715E-04   5.929331E-02
   19 C7          7.123028E-03   1.762459E-02   5.211184E-03
   20 C8          2.935327E-03  -4.964132E-03   1.927090E-04
   21 C9          3.150064E-03  -9.943369E-04  -1.913681E-03
   22 C10         6.027199E-03   1.120491E-03   2.214261E-03
   23 C11        -5.590876E-03  -1.841879E-02   3.262956E-03
   24 C12         1.068229E-02   6.516350E-03  -5.567294E-02
   25 C13         1.542732E-02   8.859611E-04  -3.796474E-03
   26 C14        -2.170332E-03   5.794478E-04  -1.168418E-03
   27 C15        -1.937168E-03   4.334397E-04   1.954179E-04
   28 C16         1.957923E-02   1.271599E-03  -1.961924E-02
   29 C17         1.353171E-02   1.745712E-02  -5.519204E-04
   30 C18        -1.041099E-02   4.101173E-03  -1.704647E-02
   31 C19        -1.873617E-02   1.206576E-02   7.948338E-03
   32 C20         9.439358E-03   8.978146E-03  -1.299516E-01
   33 C21         1.055409E-02  -2.096983E-02   7.476133E-03
   34 C22        -1.427828E-03  -9.949758E-03  -2.007185E-02
   35 H23        -4.133822E-03  -6.510220E-03  -9.707682E-03
   36 H24        -4.664055E-03  -5.676513E-03  -8.256313E-03
   37 H25        -2.487686E-03   2.082683E-03  -1.019448E-02
   38 H26         5.965179E-04   8.903416E-03  -6.427271E-03
   39 H27         2.920290E-03   6.163472E-03  -6.725244E-03
   40 H28        -9.873418E-03  -1.218251E-03   1.068750E-02
   41 H29        -7.497398E-03  -6.350864E-04   7.157370E-03
   42 H30        -1.834581E-03  -1.382798E-03   9.768898E-03
   43 H31         8.842000E-03  -9.772892E-04   8.898237E-03
   44 H32        -7.905981E-03   3.486472E-03   8.249689E-03
   45 H33         2.032808E-04  -1.116819E-02   3.614815E-03
   46 H34        -3.864277E-03  -1.218439E-03  -8.076842E-03
   47 H35        -8.195718E-03   2.164342E-03   5.869959E-03
   48 H36         7.703948E-03   6.322699E-03   1.056303E-04
   49 H37         5.665172E-03  -8.036400E-03   4.989050E-03
   50 H38        -3.309850E-03   8.957099E-04  -1.357289E-02
   51 H39         5.531197E-03  -8.035875E-03  -2.533284E-03
   52 H40         8.187034E-03   1.061744E-02   5.121669E-05
   53 H41         2.675541E-02   1.481863E-01  -2.276204E-01
   54 H42         2.357499E-03  -3.742269E-03   6.789683E-03
   55 H43         6.671703E-03   1.077842E-02   6.763207E-04
   56 H44         8.347272E-03  -2.684671E-04  -1.185392E-02
   57 H45         1.616504E-03   9.751357E-03  -1.034956E-03
   58 H46        -1.206363E-02  -1.212242E-04   1.492894E-05
   59 H47         4.161756E-03  -8.571271E-03   4.876638E-03
   60 H48        -9.545599E-03  -7.870590E-05   2.442957E-03
   61 H49         2.718858E-03   8.291863E-03   6.129716E-03
 -------------   -------------  -------------  -------------
     total        1.200425E-04  -4.631423E-05   4.900098E-04
   
  end of program der1b
   
 Time(der1b)  user:      89.737  user+sys:      89.737  wallclock:      47.989
  
  start of program geopt
  
 ----------------------------------------------------------------------------
  Geometry optimization step  2
  Total energy:     -1589.86387416221 hartrees
 ----------------------------------------------------------------------------
  
  
  Level shifts adjusted to satisfy step-size constraints
   Step size:    0.3000613
   Cos(theta):   0.9701844
   Final level shift:  -1.4792759E+00
  
  energy change:          -2.3738E-01 .  (  2.5000E-04 )
  gradient maximum:        3.7140E-01 .  (  2.2500E-03 )
  gradient rms:            4.3691E-02 .  (  1.5000E-03 )
  displacement maximum:    1.7692E-01 .  (  9.0000E-03 )
  displacement rms:        2.0755E-02 .  (  6.0000E-03 )
  
  predicted energy change:  -1.5853E-01
  step size:     0.30005
  trust radius:  0.30000
  
  molecular structure not yet converged...
  
  center of mass moved by:
     x:     8.5135E-02     y:    -1.2635E-02     z:     1.1711E-02
  
  new geometry: 
                                   angstroms
  atom               x                 y                 z
  P1           -0.0208307289     -0.0042035853     -0.0418154585 
  Pd2          -0.0178483980     -0.0394172738      2.2595034786 
  Br3           0.3231642285      0.0542357403      4.7869272176 
  C73          -4.6567535846     -1.1489565615      2.4116901744 
  C74          -3.7917457449     -2.0670356190      1.8481886248 
  C75          -2.4094627661     -1.7814242938      1.8289509493 
  C76          -1.9139597006     -0.5894116334      2.4231494001 
  C77          -2.8281664984      0.2687802949      3.0402907421 
  C78          -4.2019716572      0.0097861400      3.0257186645 
  F79          -5.9841710704     -1.4035291618      2.3963026613 
  H80          -4.1892013360     -2.9652547505      1.3838596300 
  H82          -2.4770071445      1.1747232462      3.5240481369 
  H83          -4.9147298565      0.6913397733      3.4821569358 
[...]
    H29      Z    -0.00461  -0.00781   0.00044  -0.01549  -0.22715  -0.00416
    H30      X    -0.11748   0.00653  -0.00001   0.00495   0.07020   0.00134
    H30      Y    -0.05659   0.00323  -0.00001   0.00252   0.03548   0.00067
    H30      Z     0.65309  -0.03707   0.00015  -0.02914  -0.41207  -0.00780
    H31      X    -0.05886   0.00322   0.00013   0.00352   0.05644   0.00138
    H31      Y     0.00222  -0.00010  -0.00000  -0.00015  -0.00204  -0.00004
    H31      Z    -0.05616   0.00328   0.00012   0.00333   0.05346   0.00128
    H32      X     0.00003  -0.00000   0.00022   0.00005  -0.00036   0.00008
    H32      Y     0.00010  -0.00003  -0.00004  -0.00006  -0.00015  -0.00002
    H32      Z     0.00002   0.00003  -0.00017   0.00003   0.00027  -0.00007
    H33      X     0.00010  -0.00023  -0.00005  -0.00014  -0.00033  -0.00004
    H33      Y    -0.00024   0.00049   0.00015   0.00023   0.00077   0.00003
    H33      Z     0.00001  -0.00010  -0.00002  -0.00007  -0.00005  -0.00001
    H34      X     0.00005  -0.00007  -0.00013  -0.00006   0.00003  -0.00004
    H34      Y    -0.00004   0.00001  -0.00000   0.00005  -0.00005  -0.00003
    H34      Z     0.00028  -0.00065  -0.00027  -0.00067   0.00012  -0.00003
    H35      X     0.00828  -0.00058   0.00016  -0.00050  -0.00647   0.00010
    H35      Y    -0.00280   0.00020  -0.00006   0.00018   0.00216  -0.00003
    H35      Z    -0.00671   0.00049  -0.00016   0.00042   0.00531  -0.00008
    H36      X     0.00326  -0.00052  -0.00019  -0.00030  -0.00220  -0.00011
    H36      Y     0.00253  -0.00038  -0.00016  -0.00021  -0.00172  -0.00006
    H36      Z     0.00103  -0.00018  -0.00006  -0.00011  -0.00067  -0.00002
    H37      X     0.00025  -0.00001  -0.00003   0.00003  -0.00037  -0.00001
    H37      Y    -0.00134   0.00008   0.00017  -0.00002   0.00149  -0.00002
    H37      Z     0.00027  -0.00004  -0.00007   0.00006  -0.00028  -0.00002
    H38      X     0.00002  -0.00005  -0.00248   0.00008   0.00007  -0.00016
    H38      Y     0.00002  -0.00001  -0.00124   0.00008  -0.00000  -0.00013
    H38      Z     0.00009  -0.00035  -0.01080   0.00028   0.00023  -0.00056
    H39      X     0.00004   0.00000  -0.00105   0.00013  -0.00019  -0.00012
    H39      Y    -0.00010   0.00001   0.00335  -0.00031   0.00041   0.00031
    H39      Z     0.00003  -0.00000  -0.00122   0.00014  -0.00011  -0.00014
    H40      X    -0.00002  -0.00051   0.00024  -0.00019   0.00005   0.00020
    H40      Y    -0.00003  -0.00042  -0.00016  -0.00015   0.00002   0.00018
    H40      Z    -0.00002  -0.00006   0.00052  -0.00003   0.00001   0.00010
    H41      X     0.00021   0.00007  -0.00185  -0.00007   0.00010  -0.00330
    H41      Y    -0.00013  -0.00003   0.00126   0.00004  -0.00004   0.00210
    H41      Z    -0.00098  -0.00032   0.00856   0.00026  -0.00042   0.01536
    H42      X     0.00000   0.00011   0.00070  -0.00004  -0.00010   0.00174
    H42      Y     0.00003  -0.00011  -0.00133  -0.00002   0.00027  -0.00363
    H42      Z    -0.00002   0.00008   0.00075   0.00004  -0.00016   0.00219
    H43      X    -0.00012  -0.00009   0.00041  -0.00003  -0.00021   0.00036
    H43      Y    -0.00017  -0.00010   0.00073  -0.00008  -0.00028   0.00081
    H43      Z    -0.00006  -0.00004   0.00008  -0.00003  -0.00010  -0.00011
    H44      X     0.00006   0.00046  -0.00087  -0.00046   0.00003  -0.00404
    H44      Y     0.00001   0.00010   0.00001  -0.00008   0.00002   0.00014
    H44      Z    -0.00019  -0.00220   0.00523   0.00219  -0.00019   0.02404
    H45      X    -0.00006  -0.00064   0.00040   0.00045  -0.00024   0.00176
    H45      Y    -0.00012  -0.00139   0.00060   0.00113  -0.00042   0.00255
    H45      Z    -0.00007  -0.00082   0.00026   0.00070  -0.00021   0.00101
    H46      X    -0.00052  -0.00555  -0.00154   0.00567  -0.00052  -0.00693
    H46      Y     0.00003   0.00043   0.00014  -0.00036   0.00013   0.00054
    H46      Z    -0.00004  -0.00049   0.00024   0.00067  -0.00002   0.00106
    H47      X     0.00102  -0.00001   0.00002   0.00003  -0.00041   0.00032
    H47      Y    -0.00323   0.00004  -0.00004  -0.00008   0.00127  -0.00115
    H47      Z     0.00205   0.00000   0.00006   0.00004  -0.00082   0.00087
    H48      X     0.00754  -0.00058  -0.00004  -0.00028  -0.00555   0.00016
    H48      Y    -0.00188   0.00016   0.00002   0.00009   0.00150  -0.00001
    H48      Z    -0.00172   0.00017   0.00001   0.00003   0.00128  -0.00003
    H49      X     0.00093  -0.00024  -0.00011  -0.00005  -0.00123  -0.00027
    H49      Y     0.00117  -0.00030  -0.00014  -0.00003  -0.00145  -0.00030
    H49      Z     0.00034  -0.00013  -0.00008   0.00001  -0.00048  -0.00019
  
  vibration #          175       176       177
                 --------- --------- ---------
  frequencies      3224.06   3253.62   3263.94
  intensities         7.15      2.82      5.79
  reduc. mass         0.27      0.87      0.89
  force const         1.66      5.45      5.57
    P1       X     0.00001   0.00001  -0.00001
    P1       Y    -0.00000  -0.00001   0.00002
    P1       Z     0.00000   0.00001  -0.00013
    Pd2      X     0.00002   0.00001   0.00001
    Pd2      Y    -0.00000  -0.00000   0.00000
    Pd2      Z     0.00000   0.00000   0.00000
    Br3      X     0.00001  -0.00001  -0.00000
    Br3      Y     0.00000   0.00001  -0.00000
    Br3      Z     0.00002   0.00001  -0.00000
    C73      X     0.00003   0.00037  -0.00001
    C73      Y    -0.00001   0.00141  -0.00001
    C73      Z    -0.00000  -0.00025   0.00000
    C74      X     0.00005  -0.00001  -0.00000
    C74      Y     0.00032   0.00131  -0.00003
    C74      Z    -0.00005  -0.00020   0.00001
    C75      X    -0.00033  -0.00001   0.00003
    C75      Y     0.00022   0.00067  -0.00001
    C75      Z     0.00000  -0.00013   0.00000
    C76      X     0.00002  -0.00263  -0.00002
    C76      Y     0.00001   0.00111  -0.00002
    C76      Z    -0.00002   0.00027   0.00000
    C77      X    -0.00000  -0.00769   0.00003
    C77      Y     0.00013  -0.08105   0.00020
    C77      Z    -0.00001   0.00744  -0.00002
    C78      X     0.00002   0.01421  -0.00005
    C78      Y    -0.00002  -0.00770   0.00003
    C78      Z     0.00000  -0.00122   0.00001
    F79      X    -0.00001  -0.00012   0.00001
    F79      Y    -0.00000  -0.00014   0.00000
    F79      Z    -0.00000   0.00003   0.00000
    H80      X    -0.00044  -0.00125   0.00005
    H80      Y    -0.00362  -0.01336   0.00038
    H80      Z     0.00064   0.00232  -0.00007
    H82      X    -0.00015   0.08817  -0.00023
    H82      Y    -0.00172   0.93043  -0.00223
    H82      Z     0.00013  -0.09178   0.00022
    H83      X    -0.00036  -0.13263   0.00051
    H83      Y     0.00023   0.09321  -0.00034
    H83      Z     0.00002   0.00935  -0.00004
    H14      X     0.00327   0.00230  -0.00027
    H14      Y    -0.00254  -0.00235   0.00018
    H14      Z     0.00003   0.00009  -0.00002
    C3       X     0.00003  -0.00001  -0.00091
    C3       Y     0.00000   0.00001  -0.00028
    C3       Z    -0.00008  -0.00001   0.00260
    C4       X    -0.00001  -0.00000   0.00016
    C4       Y    -0.00000  -0.00011  -0.00001
    C4       Z     0.00002   0.00000  -0.00007
    C5       X    -0.00002  -0.00000   0.00009
    C5       Y    -0.00000   0.00001   0.00002
    C5       Z     0.00002  -0.00003  -0.00005
    C6       X     0.00023   0.00006  -0.00005
    C6       Y    -0.00017  -0.00003  -0.00001
    C6       Z     0.00119   0.00003   0.00002
    C7       X    -0.00394  -0.00003   0.00003
    C7       Y    -0.01792  -0.00009   0.00015
    C7       Z     0.00934  -0.00001  -0.00008
    C8       X    -0.01787  -0.00003   0.00002
    C8       Y    -0.03573  -0.00007   0.00004
    C8       Z    -0.02855  -0.00003   0.00004
    C9       X    -0.00951  -0.00001   0.00001
    C9       Y     0.01143   0.00003  -0.00001
    C9       Z    -0.05219  -0.00004   0.00004
    C10      X     0.00843   0.00000  -0.00001
    C10      Y     0.03284   0.00005  -0.00005
    C10      Z    -0.01183  -0.00004   0.00001
    C11      X     0.00748   0.00006  -0.00001
    C11      Y     0.01498   0.00008  -0.00002
    C11      Z     0.01463   0.00005  -0.00002
    C12      X    -0.00004  -0.00001   0.00057
    C12      Y     0.00002  -0.00000  -0.00002
    C12      Z     0.00002   0.00002   0.00044
    C13      X    -0.00072   0.00002   0.00087
    C13      Y     0.00003  -0.00000  -0.00002
    C13      Z    -0.00082   0.00001   0.00104
    C14      X    -0.00093  -0.00001   0.00216
    C14      Y    -0.00009  -0.00000   0.00013
    C14      Z     0.00037   0.00001   0.00020
    C15      X    -0.00001   0.00001   0.00463
    C15      Y    -0.00003   0.00000   0.00121
    C15      Z     0.00032  -0.00002  -0.01217
    C16      X    -0.00015  -0.00014  -0.06092
    C16      Y     0.00001   0.00001   0.00209
    C16      Z    -0.00014  -0.00013  -0.05459
    C17      X     0.00004   0.00003   0.00011
    C17      Y    -0.00002  -0.00002  -0.00002
    C17      Z    -0.00003  -0.00000  -0.00022
    C18      X     0.00004   0.00006   0.00330
    C18      Y    -0.00002  -0.00002  -0.00042
    C18      Z    -0.00001  -0.00004  -0.00202
    C19      X    -0.00000  -0.00048  -0.00007
    C19      Y    -0.00001   0.00064  -0.00004
    C19      Z    -0.00001  -0.00147  -0.00011
    C20      X     0.00001   0.00010  -0.00001
    C20      Y    -0.00001  -0.00016   0.00003
    C20      Z     0.00001  -0.00074  -0.00010
    C21      X    -0.00003   0.00002   0.00007
    C21      Y     0.00002   0.00001  -0.00005
    C21      Z     0.00001  -0.00002  -0.00015
    C22      X     0.00004   0.00002   0.00286
    C22      Y    -0.00001  -0.00003  -0.00180
    C22      Z     0.00001   0.00002   0.00023
    H23      X     0.04825   0.00020  -0.00038
    H23      Y     0.19727   0.00072  -0.00145
    H23      Z    -0.08390  -0.00028   0.00061
    H24      X     0.19468   0.00032  -0.00027
    H24      Y     0.38396   0.00060  -0.00050
    H24      Z     0.32317   0.00052  -0.00049
    H25      X     0.10377   0.00010  -0.00008
    H25      Y    -0.12075  -0.00011   0.00009
    H25      Z     0.57267   0.00055  -0.00044
    H26      X    -0.08734  -0.00013   0.00014
    H26      Y    -0.35144  -0.00052   0.00056
    H26      Z     0.14051   0.00021  -0.00026
    H27      X    -0.08147  -0.00037  -0.00001
    H27      Y    -0.17398  -0.00074   0.00006
    H27      Z    -0.15058  -0.00061   0.00012
    H28      X     0.00866  -0.00024  -0.00970
    H28      Y    -0.00024  -0.00001   0.00012
    H28      Z     0.00786  -0.00019  -0.00885
    H29      X     0.01050   0.00016  -0.01732
    H29      Y     0.00101   0.00001  -0.00156
    H29      Z    -0.00358  -0.00006   0.00446
    H30      X     0.00055  -0.00004  -0.02528
    H30      Y     0.00029  -0.00002  -0.01084
    H30      Z    -0.00345   0.00017   0.12337
    H31      X     0.00172   0.00166   0.70456
    H31      Y    -0.00006  -0.00006  -0.02199
    H31      Z     0.00140   0.00147   0.62665
    H32      X    -0.00034  -0.00052  -0.00205
    H32      Y     0.00003   0.00000   0.00022
    H32      Z     0.00031   0.00034   0.00080
    H33      X    -0.00009  -0.00007   0.00015
    H33      Y     0.00023   0.00032  -0.00026
    H33      Z    -0.00003  -0.00004  -0.00003
    H34      X     0.00002   0.00008   0.00031
    H34      Y    -0.00003   0.00000  -0.00004
    H34      Z     0.00004  -0.00003   0.00169
    H35      X    -0.00025  -0.00086  -0.03587
    H35      Y     0.00007   0.00027   0.01387
    H35      Z     0.00023   0.00079   0.02919
    H36      X    -0.00010  -0.00009  -0.00921
    H36      Y    -0.00009  -0.00010  -0.00700
    H36      Z    -0.00002  -0.00006  -0.00265
    H37      X    -0.00004  -0.00005  -0.00088
    H37      Y     0.00018   0.00013   0.00396
    H37      Z    -0.00002  -0.00007  -0.00075
    H38      X     0.00003   0.00407   0.00044
    H38      Y    -0.00001   0.00281   0.00019
    H38      Z     0.00013   0.02503   0.00160
    H39      X    -0.00006   0.00208   0.00013
    H39      Y     0.00012  -0.00678  -0.00024
    H39      Z    -0.00003   0.00253   0.00001
    H40      X     0.00006  -0.00611   0.00009
    H40      Y     0.00003  -0.00462   0.00020
    H40      Z     0.00002  -0.00222   0.00000
    H41      X     0.00002  -0.00195  -0.00039
    H41      Y    -0.00001   0.00112   0.00020
    H41      Z    -0.00004   0.00909   0.00138
    H42      X    -0.00011   0.00015   0.00014
    H42      Y     0.00017  -0.00031  -0.00027
    H42      Z    -0.00010  -0.00006   0.00019
    H43      X    -0.00005   0.00057   0.00027
    H43      Y    -0.00009   0.00117   0.00018
    H43      Z    -0.00003   0.00032   0.00003
    H44      X     0.00006  -0.00009  -0.00039
    H44      Y    -0.00003   0.00003   0.00005
    H44      Z     0.00013   0.00035   0.00129
    H45      X    -0.00013  -0.00003   0.00035
    H45      Y     0.00001  -0.00003   0.00043
    H45      Z     0.00003  -0.00006   0.00019
    H46      X     0.00134  -0.00009  -0.00099
    H46      Y     0.00000   0.00002   0.00007
    H46      Z     0.00053  -0.00002  -0.00005
    H47      X    -0.00002  -0.00009  -0.00545
    H47      Y     0.00012   0.00031   0.01001
    H47      Z    -0.00009  -0.00021  -0.00716
    H48      X    -0.00034  -0.00021  -0.03292
    H48      Y     0.00012   0.00006   0.00690
    H48      Z     0.00008   0.00005   0.00752
    H49      X    -0.00011  -0.00002  -0.00486
    H49      Y    -0.00013  -0.00002  -0.00466
    H49      Z    -0.00003  -0.00002  -0.00138
  
  Number of imaginary frequencies:   0
   
  Writing vibrational animation data to ox_add_Ar_trans_L1_PL139.vib
  Writing IR vibrational spectrum data to ox_add_Ar_trans_L1_PL139_vib.spm
  rotational symmetry number:  1

  rotational temperatures (K):      0.007502      0.005637      0.004074
   
  The Quasi-Harmonic approximation will be applied to compute
  vibrational constributions to thermodynamic properties.
  Frequencies will be adjusted to a minimum value of  100.00 cm^-1.

  vibrational temperatures:
       mode:      1        2        3        4        5        6
  temp. (K):   143.88   143.88   143.88   143.88   143.88   143.88
   
       mode:      7        8        9       10       11       12
  temp. (K):   143.88   143.88   143.88   156.93   164.23   169.91
   
       mode:     13       14       15       16       17       18
  temp. (K):   181.18   193.94   208.50   216.05   236.78   252.10
   
       mode:     19       20       21       22       23       24
  temp. (K):   257.31   311.20   315.42   342.44   356.22   364.27
   
       mode:     25       26       27       28       29       30
  temp. (K):   366.86   370.79   379.72   390.83   428.92   443.75
   
       mode:     31       32       33       34       35       36
  temp. (K):   458.04   467.26   480.64   485.88   504.98   520.07
   
       mode:     37       38       39       40       41       42
  temp. (K):   540.86   556.50   585.30   587.73   593.93   594.89
   
       mode:     43       44       45       46       47       48
  temp. (K):   606.26   621.93   623.73   700.52   734.67   747.79
   
       mode:     49       50       51       52       53       54
  temp. (K):   756.73   784.91   809.98   834.20   855.73   891.57
   
       mode:     55       56       57       58       59       60
  temp. (K):   899.74   901.93   911.31   998.25  1011.03  1029.66
   
       mode:     61       62       63       64       65       66
  temp. (K):  1101.35  1106.33  1115.32  1148.84  1186.19  1193.08
   
       mode:     67       68       69       70       71       72
  temp. (K):  1196.27  1199.51  1212.04  1248.31  1311.20  1365.59
   
       mode:     73       74       75       76       77       78
  temp. (K):  1367.18  1375.34  1380.48  1387.12  1389.41  1390.47
   
       mode:     79       80       81       82       83       84
  temp. (K):  1413.25  1426.99  1427.91  1431.93  1460.02  1466.58
   
       mode:     85       86       87       88       89       90
  temp. (K):  1471.55  1474.20  1475.94  1502.23  1516.49  1520.08
   
       mode:     91       92       93       94       95       96
  temp. (K):  1523.67  1535.56  1541.94  1546.98  1603.46  1609.22
   
       mode:     97       98       99      100      101      102
  temp. (K):  1625.27  1682.55  1720.60  1738.67  1744.91  1745.69
   
       mode:    103      104      105      106      107      108
  temp. (K):  1753.44  1756.86  1777.36  1787.60  1789.28  1804.08
   
       mode:    109      110      111      112      113      114
  temp. (K):  1844.18  1852.18  1884.47  1894.09  1927.00  1930.95
   
       mode:    115      116      117      118      119      120
  temp. (K):  1954.59  1984.81  2045.01  2050.58  2053.88  2055.80
   
       mode:    121      122      123      124      125      126
  temp. (K):  2057.68  2095.07  2105.70  2118.98  2136.80  2163.45
   
       mode:    127      128      129      130      131      132
  temp. (K):  2164.77  2173.24  2174.86  2178.10  2183.77  2187.76
   
       mode:    133      134      135      136      137      138
  temp. (K):  2196.61  2199.42  2203.72  2211.36  2217.39  2218.40
   
       mode:    139      140      141      142      143      144
  temp. (K):  2230.66  2237.98  2338.88  2350.17  2361.14  2375.84
   
       mode:    145      146      147      148      149      150
  temp. (K):  2379.91  2386.28  4377.13  4383.73  4385.73  4388.92
   
       mode:    151      152      153      154      155      156
  temp. (K):  4392.13  4395.40  4476.43  4477.16  4489.45  4492.51
   
       mode:    157      158      159      160      161      162
  temp. (K):  4499.41  4505.15  4530.10  4549.41  4554.75  4559.38
   
       mode:    163      164      165      166      167      168
  temp. (K):  4585.48  4588.22  4592.67  4595.59  4597.99  4602.01
   
       mode:    169      170      171      172      173      174
  temp. (K):  4607.23  4616.52  4617.44  4626.36  4626.74  4627.43
   
       mode:    175      176      177
  temp. (K):  4638.70  4681.23  4696.07
   
   
  Thermodynamic properties calculated assuming an ideal gas

  In the table below, the units for temperature
  are kelvins, the units for U, H, and G are
  kcal/mol and the units for Cv and S are cal/(mol K)

  The zero point energy (ZPE):    318.876 kcal/mol
  is not included in U, H, or G in the table below
  
 
  =============================================================================
  Thermodynamic properties for P = 1.00E+00 atm, calculated at   1 temperatures


  T =   298.15 K, P = 1.00E+00 atm
   
                  U         Cv          S          H          G        ln(Q)
              =========  =========  =========  =========  =========  =========
  trans.          0.889      2.981     44.948      1.481    -11.920   20.11858
  rot.            0.889      2.981     36.576      0.889    -10.016   16.90572
  vib.           17.564    115.560    105.948     17.564    -14.025   23.67148
  elec.           0.000      0.000      0.000      0.000      0.000    0.00000
  ----------------------------------------------------------------------------
  total          19.341    121.522    187.472     19.933    -35.961   60.69579
   
   Total internal energy, Utot(SCFE + ZPE + U):   -1589.780422 hartrees
   Total enthalpy, Htot (Utot + nRT), with n=1:   -1589.779478 hartrees
    Total Gibbs free energy, Gtot (Htot - T*S):   -1589.868552 hartrees
   
  end of program freq
   
 Time(freq)  user:       0.311  user+sys:       0.311  wallclock:       0.333
  
  start of program post
  
  Writing input files for PBF
  end of program post
   
 Time(post)  user:       0.190  user+sys:       0.190  wallclock:       0.115

 Total cpu seconds     user:   43246.068   user+sys:   43246.068
  
 Total elapsed time:    24864 seconds

Job ox_add_Ar_trans_L1_PL139 completed on bp1-compute082.data.bp.acrc.priv at Sat Mar 29 21:54:54 2025
