Job PL139 started on bp1-compute082.data.bp.acrc.priv at Thu Mar 27 10:06:45 2025
jobid: bp1-compute082-0-67e52327

  +--------------------------------------------------------------------+
  |  Jaguar version 12.5, release 138                                  |
  |                                                                    |
  |  Copyright Schrodinger, Inc.                                       |
  |  All Rights Reserved.                                              |
  |                                                                    |
  |  The following have contributed to Jaguar (listed alphabetically): |
  |  Ty Balduf, Mike Beachy, Chandler Bennett, Art Bochevarov,         |
  |  Dale Braden, Yixiang Cao, Alan Chien, Chris Cortis,               |
  |  Rich Friesner, Jim Furness, Bill Goddard, Hod Greeley,            |
  |  Tom Hughes, Leif Jacobson, Jean-Marc Langlois, Daniel Levine,     |
  |  Rob Murphy, Dean Philipp, Tom Pollard, Murco Ringnalda,           |
  |  Daniel Mainz, Pablo Videla, Mark Watson, Haoyu Yu.                |
  |                                                                    |
  |  Use of this program should be acknowledged in publications as:    |
  |                                                                    |
  |  Jaguar, version 12.5, Schrodinger, Inc., New York, NY, 2024.      |
  |                                                                    |
  |  A. D. Bochevarov, E. Harder, T. F. Hughes, J. R. Greenwood,       |
  |  D. A. Braden, D. M. Philipp, D. Rinaldo, M. D. Halls,             |
  |  J. Zhang, R. A. Friesner, "Jaguar: A High-Performance Quantum     |
  |  Chemistry Software Program with Strengths in Life and Materials   |
  |  Sciences", Int. J. Quantum Chem., 2013, 113(18), 2110-2142.       |
  +--------------------------------------------------------------------+
  
  start of program pre
  
  Job name: PL139
  Executables used: /software/local/apps/schrodinger2024-3/jaguar-v12.5/bin/Linux-x86_64
  Temporary files : /tmp/ar21627/PL139#bp1-compute082-0-67e52327
  Basis file : using default basis file from /software/local/apps/schrodinger2024-3
  Maestro file (input):  PL139.mae
  Maestro file (output): PL139.01.mae
  
 Contents of input file: &gen and (if present) &atomic sections only
 ----------------Contents start----------------
&gen
dftname=b3pw91-d3
basis=6-31G*
numd=5
ip11=2
iaccg=3
isolv=2
igeopt=1
solvent=benzene
ifreq=1
&
 -----------------Contents end-----------------
 
  PS calculation requested. Using PS version of 6-31g*
  basis set:               6-31g*                          
  net molecular charge:    0
  multiplicity:            1
  
  Using up to   4 threads per process
  
  number of basis functions....          352
  
 Input geometry:
                                   angstroms
  atom               x                 y                 z
  P1            0.0000000000      0.0000000000      0.0000000000 
  C3            1.4037020000      0.0000000000     -0.5287930000 
  C4           -0.7175880000      1.2185950000     -0.5000930000 
  C5           -0.6270920000     -1.2611540000     -0.5159910000 
  C6            2.7260500000     -0.4853270000      1.6271060000 
  C7            3.2037415467      0.4890420836      2.5421914869 
  C8            3.3427076298      0.2842074305      3.9252858075 
  C9            3.0029181845     -0.9436439155      4.4993369091 
  C10           2.5252920939     -1.9426734330      3.6472603508 
  C11           2.3990175195     -1.7026668968      2.2690586205 
  C12           2.6019460000     -0.2304150000      0.2176440000 
  C13           3.7878870000     -0.1958030000     -0.5613940000 
  C14           3.8431800000      0.0372740000     -1.9422500000 
  C15           2.6594980000      0.2557690000     -2.6437450000 
  C16           1.4669940000      0.2303350000     -1.9171010000 
  C17           0.2640520000      2.4117330000     -0.4822660000 
  C18          -1.4101740000      1.1825170000     -1.8807340000 
  C19          -1.8189460000      1.5454690000      0.5361260000 
  C20          -2.1080070000     -1.3722510000     -0.0979990000 
  C21           0.1221730000     -2.4158010000      0.1891870000 
  C22          -0.5185810000     -1.5249020000     -2.0327640000 
  H23           3.5106140782      1.4986757485      2.2438585944 
  H24           3.7228140409      1.0933906243      4.5725414540 
  H25           3.1073365851     -1.1176845047      5.5835144817 
  H26           2.2473488768     -2.9241184415      4.0688263639 
  H27           2.0137140197     -2.5696189083      1.7348519269 
  H28           4.7885530000     -0.3513670000     -0.1424820000 
  H29           4.8080470000      0.0488480000     -2.4782120000 
  H30           2.6670950000      0.4405860000     -3.7314160000 
  H31           0.5556520000      0.4025780000     -2.4991290000 
  H32           1.0643220000      2.3023090000     -1.2470840000 
  H33          -0.2516670000      3.3752090000     -0.6985240000 
  H34           0.7608810000      2.5175410000      0.5094590000 
  H35          -0.7084710000      1.0355330000     -2.7274080000 
  H36          -2.1957070000      0.3992420000     -1.9347810000 
  H37          -1.9262770000      2.1470210000     -2.0906830000 
  H38          -1.3958000000      1.6592640000      1.5607770000 
  H39          -2.3500650000      2.4951940000      0.2968930000 
  H40          -2.5919700000      0.7468300000      0.5862940000 
  H41          -2.2342810000     -1.2048910000      0.9961800000 
  H42          -2.7473770000     -0.6357650000     -0.6300580000 
  H43          -2.5273370000     -2.3781680000     -0.3286700000 
  H44           0.0340770000     -2.3450000000      1.2976900000 
  H45          -0.2765190000     -3.4128720000     -0.1076560000 
  H46           1.2083020000     -2.4115640000     -0.0586600000 
  H47          -0.9941950000     -0.7270730000     -2.6402850000 
  H48           0.5384110000     -1.6346130000     -2.3615300000 
  H49          -1.0269740000     -2.4759130000     -2.3116700000 
   
  principal moments of inertia:
        amu*angstrom^2:              1147.38488              1998.49287              2307.35091
                g*cm^2:          1.90527719E-37          3.31857507E-37          3.83144585E-37
   
  rotational constants:
               cm^(-1):      0.01469222      0.00843517      0.00730605
                   GHz:      0.44046162      0.25288007      0.21902997
   
  Molecular weight:     298.19 amu
   
  Stoichiometry: C20PH27
  Molecular Point Group: C1      
  Point Group used: C1
  
 
Number of optimization coordinates:   151
Number of independent coordinates:    151
Number of non-redundant coordinates:  138
Number of frozen coordinates:           0
Number of harmonic constraints:         0
 
Number of geometric degrees of freedom:   138
Maximum geometric degrees of freedom:     138
 " " " " " excluding dummy atoms:         138
 
 
  bond lengths (angstroms):
 
 P1      -C3      :   1.500000      P1      -C4      :   1.500000
 P1      -C5      :   1.500000      C3      -C12     :   1.430401
 C3      -C16     :   1.408708      C4      -C17     :   1.545158
 C4      -C18     :   1.545039      C4      -C19     :   1.547122
 C5      -C20     :   1.542780      C5      -C21     :   1.546572
 C5      -C22     :   1.543353      C6      -C7      :   1.419495
 C6      -C11     :   1.414556      C6      -C12     :   1.437694
 C7      -C8      :   1.405069      C7      -H23     :   1.096601
 C8      -C9      :   1.397358      C8      -H24     :   1.103720
 C9      -C10     :   1.397219      C9      -H25     :   1.103011
 C10     -C11     :   1.404631      C10     -H26     :   1.103723
 C11     -H27     :   1.088780      C12     -C13     :   1.419350
 C13     -C14     :   1.401480      C13     -H28     :   1.095911
 C14     -C15     :   1.393176      C14     -H29     :   1.103792
 C15     -C16     :   1.396683      C15     -H30     :   1.103287
 C16     -H31     :   1.094974      C17     -H32     :   1.112363
 C17     -H33     :   1.114011      C17     -H34     :   1.114250
 C18     -H35     :   1.109436      C18     -H36     :   1.110632
 C18     -H37     :   1.113871      C19     -H38     :   1.114411
 C19     -H39     :   1.114135      C19     -H40     :   1.112613
 C20     -H41     :   1.114084      C20     -H42     :   1.110987
 C20     -H43     :   1.113964      C21     -H44     :   1.114250
 C21     -H45     :   1.114101      C21     -H46     :   1.114057
 C22     -H47     :   1.109875      C22     -H48     :   1.112365
 C22     -H49     :   1.113855
 
  bond angles:
 
 C4      -P1      -C3      : 109.277784  C5      -P1      -C3      : 105.661559
 C5      -P1      -C4      : 111.614203  C12     -C3      -P1      : 126.866735
 C16     -C3      -P1      : 112.921406  C16     -C3      -C12     : 120.197482
 C17     -C4      -P1      : 108.635479  C18     -C4      -P1      : 119.564083
 C18     -C4      -C17     : 108.247562  C19     -C4      -P1      : 106.792043
 C19     -C4      -C17     : 106.342742  C19     -C4      -C18     : 106.518855
 C20     -C5      -P1      : 111.631893  C21     -C5      -P1      : 105.564318
 C21     -C5      -C20     : 106.722903  C22     -C5      -P1      : 116.895060
 C22     -C5      -C20     : 108.750722  C22     -C5      -C21     : 106.646205
 C11     -C6      -C7      : 112.083859  C12     -C6      -C7      : 122.638665
 C12     -C6      -C11     : 125.277476  C8      -C7      -C6      : 124.596171
 H23     -C7      -C6      : 123.420160  H23     -C7      -C8      : 111.983632
 C9      -C8      -C7      : 120.559660  H24     -C8      -C7      : 120.294259
 H24     -C8      -C9      : 119.146078  C10     -C9      -C8      : 117.443483
 H25     -C9      -C8      : 121.293605  H25     -C9      -C10     : 121.262909
 C11     -C10     -C9      : 120.458961  H26     -C10     -C9      : 119.271939
 H26     -C10     -C11     : 120.269097  C10     -C11     -C6      : 124.857824
 H27     -C11     -C6      : 122.983415  H27     -C11     -C10     : 112.158723
 C6      -C12     -C3      : 127.767778  C13     -C12     -C3      : 114.179167
 C13     -C12     -C6      : 118.053050  C14     -C13     -C12     : 125.296897
 H28     -C13     -C12     : 123.344249  H28     -C13     -C14     : 111.358848
 C15     -C14     -C13     : 119.253491  H29     -C14     -C13     : 120.974078
 H29     -C14     -C15     : 119.772406  C16     -C15     -C14     : 117.425968
 H30     -C15     -C14     : 121.118955  H30     -C15     -C16     : 121.455055
 C15     -C16     -C3      : 123.646561  H31     -C16     -C3      : 120.808706
 H31     -C16     -C15     : 115.544693  H32     -C17     -C4      : 111.910845
 H33     -C17     -C4      : 111.807544  H33     -C17     -H32     : 106.538408
 H34     -C17     -C4      : 111.522463  H34     -C17     -H32     : 107.488352
 H34     -C17     -H33     : 107.281718  H35     -C18     -C4      : 113.673662
 H36     -C18     -C4      : 112.148234  H36     -C18     -H35     : 108.467982
 H37     -C18     -C4      : 110.849242  H37     -C18     -H35     : 105.303521
 H37     -C18     -H36     : 105.890065  H38     -C19     -C4      : 111.536748
 H39     -C19     -C4      : 112.063982  H39     -C19     -H38     : 106.941488
 H40     -C19     -C4      : 111.909518  H40     -C19     -H38     : 107.196505
 H40     -C19     -H39     : 106.879073  H41     -C20     -C5      : 111.350636
 H42     -C20     -C5      : 112.020047  H42     -C20     -H41     : 107.790504
 H43     -C20     -C5      : 111.731603  H43     -C20     -H41     : 107.239005
 H43     -C20     -H42     : 106.428016  H44     -C21     -C5      : 111.584181
 H45     -C21     -C5      : 111.919355  H45     -C21     -H44     : 107.076047
 H46     -C21     -C5      : 111.595099  H46     -C21     -H44     : 107.347393
 H46     -C21     -H45     : 107.038637  H47     -C22     -C5      : 112.642254
 H48     -C22     -C5      : 111.970515  H48     -C22     -H47     : 108.440249
 H49     -C22     -C5      : 111.094202  H49     -C22     -H47     : 106.325725
 H49     -C22     -H48     : 105.991230
 
  torsional angles:
 
 P1      -C3      -C12     -C6      :  -1.244791
 P1      -C3      -C12     -C13     : 178.729711
 P1      -C3      -C16     -C15     :-178.962339
 P1      -C3      -C16     -H31     :   0.961507
 P1      -C4      -C17     -H32     :  69.066294
 P1      -C4      -C17     -H33     :-171.500578
 P1      -C4      -C17     -H34     : -51.385074
 P1      -C4      -C18     -H35     : -63.625205
 P1      -C4      -C18     -H36     :  59.871656
 P1      -C4      -C18     -H37     : 177.992778
 P1      -C4      -C19     -H38     :  54.960151
 P1      -C4      -C19     -H39     : 174.826861
 P1      -C4      -C19     -H40     : -65.126497
 P1      -C5      -C20     -H41     : -50.476119
 P1      -C5      -C20     -H42     :  70.318293
 P1      -C5      -C20     -H43     :-170.366999
 P1      -C5      -C21     -H44     :  59.004770
 P1      -C5      -C21     -H45     : 178.976975
 P1      -C5      -C21     -H46     : -61.091110
 P1      -C5      -C22     -H47     : -60.037413
 P1      -C5      -C22     -H48     :  62.500013
 P1      -C5      -C22     -H49     :-179.204233
 C3      -P1      -C4      -C17     : -38.914883
 C3      -P1      -C4      -C18     :  85.919293
 C3      -P1      -C4      -C19     :-153.241727
 C3      -P1      -C5      -C20     :-177.595796
 C3      -P1      -C5      -C21     :  66.823249
 C3      -P1      -C5      -C22     : -51.517131
 C3      -C12     -C6      -C7      :-105.457153
 C3      -C12     -C6      -C11     :  74.547585
 C3      -C12     -C13     -C14     :  -0.059613
 C3      -C12     -C13     -H28     : 179.909160
 C3      -C16     -C15     -C14     :   0.107798
 C3      -C16     -C15     -H30     :-179.945215
 C4      -P1      -C3      -C12     : 132.225580
 C4      -P1      -C3      -C16     : -49.164500
 C4      -P1      -C5      -C20     : -58.917219
 C4      -P1      -C5      -C21     :-174.498174
 C4      -P1      -C5      -C22     :  67.161446
 C5      -P1      -C3      -C12     :-107.553020
 C5      -P1      -C3      -C16     :  71.056900
 C5      -P1      -C4      -C17     :-155.415056
 C5      -P1      -C4      -C18     : -30.580880
 C5      -P1      -C4      -C19     :  90.258099
 C6      -C7      -C8      -C9      :  -0.011981
 C6      -C7      -C8      -H24     : 179.970654
 C6      -C11     -C10     -C9      :   0.040255
 C6      -C11     -C10     -H26     :-179.980554
 C6      -C12     -C3      -C16     :-179.763430
 C6      -C12     -C13     -C14     : 179.917547
 C6      -C12     -C13     -H28     :  -0.113679
 C7      -C6      -C11     -C10     :  -0.074732
 C7      -C6      -C11     -H27     : 179.848321
 C7      -C6      -C12     -C13     :  74.569205
 C7      -C8      -C9      -C10     :  -0.029064
 C7      -C8      -C9      -H25     : 179.990200
 C8      -C7      -C6      -C11     :   0.060605
 C8      -C7      -C6      -C12     :-179.935221
 C8      -C9      -C10     -C11     :   0.015975
 C8      -C9      -C10     -H26     :-179.963423
 C9      -C8      -C7      -H23     :-179.943483
 C9      -C10     -C11     -H27     :-179.890053
 C10     -C9      -C8      -H24     : 179.988104
 C10     -C11     -C6      -C12     : 179.920963
 C11     -C6      -C7      -H23     : 179.984505
 C11     -C6      -C12     -C13     :-105.426058
 C11     -C10     -C9      -H25     : 179.996718
 C12     -C3      -C16     -C15     :  -0.249043
 C12     -C3      -C16     -H31     : 179.674803
 C12     -C6      -C7      -H23     :  -0.011321
 C12     -C6      -C11     -H27     :  -0.155984
 C12     -C13     -C14     -C15     :  -0.073105
 C12     -C13     -C14     -H29     : 179.984555
 C13     -C12     -C3      -C16     :   0.211072
 C13     -C14     -C15     -C16     :   0.051014
 C13     -C14     -C15     -H30     :-179.896162
 C14     -C15     -C16     -H31     :-179.819709
 C15     -C14     -C13     -H28     : 179.954905
 C16     -C15     -C14     -H29     : 179.994058
 C17     -C4      -C18     -H35     :  61.394213
 C17     -C4      -C18     -H36     :-175.108926
 C17     -C4      -C18     -H37     : -56.987804
 C17     -C4      -C19     -H38     : -60.909139
 C17     -C4      -C19     -H39     :  58.957571
 C17     -C4      -C19     -H40     : 179.004213
 C18     -C4      -C17     -H32     : -62.191818
 C18     -C4      -C17     -H33     :  57.241310
 C18     -C4      -C17     -H34     : 177.356814
 C18     -C4      -C19     -H38     :-176.206687
 C18     -C4      -C19     -H39     : -56.339978
 C18     -C4      -C19     -H40     :  63.706664
 C19     -C4      -C17     -H32     :-176.313205
 C19     -C4      -C17     -H33     : -56.880076
 C19     -C4      -C17     -H34     :  63.235427
 C19     -C4      -C18     -H35     : 175.399296
 C19     -C4      -C18     -H36     : -61.103843
 C19     -C4      -C18     -H37     :  57.017279
 C20     -C5      -C21     -H44     : -59.893717
 C20     -C5      -C21     -H45     :  60.078488
 C20     -C5      -C21     -H46     :-179.989597
 C20     -C5      -C22     -H47     :  67.458488
 C20     -C5      -C22     -H48     :-170.004085
 C20     -C5      -C22     -H49     : -51.708331
 C21     -C5      -C20     -H41     :  64.392944
 C21     -C5      -C20     -H42     :-174.812645
 C21     -C5      -C20     -H43     : -55.497936
 C21     -C5      -C22     -H47     :-177.791448
 C21     -C5      -C22     -H48     : -55.254022
 C21     -C5      -C22     -H49     :  63.041732
 C22     -C5      -C20     -H41     : 179.093085
 C22     -C5      -C20     -H42     : -60.112503
 C22     -C5      -C20     -H43     :  59.202205
 C22     -C5      -C21     -H44     :-176.007825
 C22     -C5      -C21     -H45     : -56.035620
 C22     -C5      -C21     -H46     :  63.896294
 H23     -C7      -C8      -H24     :   0.039152
 H24     -C8      -C9      -H25     :   0.007368
 H25     -C9      -C10     -H26     :   0.017320
 H26     -C10     -C11     -H27     :   0.089139
 H28     -C13     -C14     -H29     :   0.012565
 H29     -C14     -C15     -H30     :   0.046882
 H30     -C15     -C16     -H31     :   0.127278
 
  nuclear repulsion energy.......          1994.172760906 hartrees
 
 Non-default options chosen:
   SCF calculation type: DFT(b3pw91-d3)              
   DFT=Becke_3_Parameter/HF+Slater+Becke88+PW91+PW-GGAIIC (B3PW91-D3)
   Geometry will be optimized in redundant internal coordinates
   Solvation energy will be computed using PBF
     -solute cavity energy will not be included
     -surface area terms will not be included
   Vibrational frequencies and related properties will be computed
      from analytic second derivatives
   IR intensities will be computed
   Thermochemical properties will be computed
   Maximum number of geometry steps: 100
   Scaling standard convergence criteria by a factor of   5.00
   Solvent: benzene                                                         
   Internal dielectric constant:    1.000
   Continuum dielectric constant:   2.283
   Solvent probe molecule radius:   2.600
  
 Non-default print settings:
     11=  2
  
 Temporary integer options set:
     73=  2
  
  atom       vdw   vdw2    cov     mass  grid  daf  charge   basis
  P1        2.147  2.074  1.060   30.974    Y    Y      Y    ps_6-31g*
  C3        1.949  1.900  0.770   12.000    Y    Y      Y    ps_6-31g*
  C4        1.949  1.900  0.770   12.000    Y    Y      Y    ps_6-31g*
  C5        1.949  1.900  0.770   12.000    Y    Y      Y    ps_6-31g*
  C6        1.949  1.900  0.770   12.000    Y    Y      Y    ps_6-31g*
  C7        1.949  1.900  0.770   12.000    Y    Y      Y    ps_6-31g*
  C8        1.949  1.900  0.770   12.000    Y    Y      Y    ps_6-31g*
  C9        1.949  1.900  0.770   12.000    Y    Y      Y    ps_6-31g*
  C10       1.949  1.900  0.770   12.000    Y    Y      Y    ps_6-31g*
  C11       1.949  1.900  0.770   12.000    Y    Y      Y    ps_6-31g*
  C12       1.949  1.900  0.770   12.000    Y    Y      Y    ps_6-31g*
  C13       1.949  1.900  0.770   12.000    Y    Y      Y    ps_6-31g*
  C14       1.949  1.900  0.770   12.000    Y    Y      Y    ps_6-31g*
  C15       1.949  1.900  0.770   12.000    Y    Y      Y    ps_6-31g*
  C16       1.949  1.900  0.770   12.000    Y    Y      Y    ps_6-31g*
  C17       1.949  1.900  0.770   12.000    Y    Y      Y    ps_6-31g*
  C18       1.949  1.900  0.770   12.000    Y    Y      Y    ps_6-31g*
  C19       1.949  1.900  0.770   12.000    Y    Y      Y    ps_6-31g*
  C20       1.949  1.900  0.770   12.000    Y    Y      Y    ps_6-31g*
  C21       1.949  1.900  0.770   12.000    Y    Y      Y    ps_6-31g*
  C22       1.949  1.900  0.770   12.000    Y    Y      Y    ps_6-31g*
  H23       1.597  1.150  0.320    1.008    Y    Y      Y    ps_6-31g*
  H24       1.597  1.150  0.320    1.008    Y    Y      Y    ps_6-31g*
  H25       1.597  1.150  0.320    1.008    Y    Y      Y    ps_6-31g*
  H26       1.597  1.150  0.320    1.008    Y    Y      Y    ps_6-31g*
  H27       1.597  1.150  0.320    1.008    Y    Y      Y    ps_6-31g*
  H28       1.597  1.150  0.320    1.008    Y    Y      Y    ps_6-31g*
  H29       1.597  1.150  0.320    1.008    Y    Y      Y    ps_6-31g*
  H30       1.597  1.150  0.320    1.008    Y    Y      Y    ps_6-31g*
  H31       1.597  1.150  0.320    1.008    Y    Y      Y    ps_6-31g*
  H32       1.597  1.150  0.320    1.008    Y    Y      Y    ps_6-31g*
  H33       1.597  1.150  0.320    1.008    Y    Y      Y    ps_6-31g*
  H34       1.597  1.150  0.320    1.008    Y    Y      Y    ps_6-31g*
  H35       1.597  1.150  0.320    1.008    Y    Y      Y    ps_6-31g*
  H36       1.597  1.150  0.320    1.008    Y    Y      Y    ps_6-31g*
  H37       1.597  1.150  0.320    1.008    Y    Y      Y    ps_6-31g*
  H38       1.597  1.150  0.320    1.008    Y    Y      Y    ps_6-31g*
  H39       1.597  1.150  0.320    1.008    Y    Y      Y    ps_6-31g*
  H40       1.597  1.150  0.320    1.008    Y    Y      Y    ps_6-31g*
  H41       1.597  1.150  0.320    1.008    Y    Y      Y    ps_6-31g*
  H42       1.597  1.150  0.320    1.008    Y    Y      Y    ps_6-31g*
  H43       1.597  1.150  0.320    1.008    Y    Y      Y    ps_6-31g*
  H44       1.597  1.150  0.320    1.008    Y    Y      Y    ps_6-31g*
  H45       1.597  1.150  0.320    1.008    Y    Y      Y    ps_6-31g*
  H46       1.597  1.150  0.320    1.008    Y    Y      Y    ps_6-31g*
  H47       1.597  1.150  0.320    1.008    Y    Y      Y    ps_6-31g*
  H48       1.597  1.150  0.320    1.008    Y    Y      Y    ps_6-31g*
  H49       1.597  1.150  0.320    1.008    Y    Y      Y    ps_6-31g*
  
  end of program pre
   
 Time(pre)  user:       0.822  user+sys:       0.822  wallclock:       0.936
  
  start of program onee
  
  smallest eigenvalue of S:    3.928E-04
  number of canonical orbitals.....          350
  end of program onee
   
 Time(onee)  user:       0.354  user+sys:       0.354  wallclock:       0.280
  
  start of program hfig
  
  initial wavefunction generated automatically from atomic wavefunctions
 
  Irreducible     Total no   No of occupied orbitals 
  representation  orbitals   Shell_1  Shell_2    ...
  No Symm          350         81
  ------------------------
  Orbital occupation/shell    1.000
 
  end of program hfig
   
 Time(hfig)  user:       0.623  user+sys:       0.623  wallclock:       0.715
  
  start of program probe
  
  end of program probe
   
 Time(probe)  user:       0.272  user+sys:       0.272  wallclock:       0.201
  
  start of program grid
  
   grid     grid set  grid #  grid sym
  ------    --------  ------  --------
  coarse        0        0        1
  medium        2        1        1
  fine          0        0        1
  ultrafine     4        2        1
  charge       -1        3        1
  gradient      4        2        1
  density       0        0        1
  DFT-fine    -11        4        1
  DFT-med.    -10        5        1
  DFT-grad    -12        6        1
  DFT-der2     -8        7        1
  DFT-cphf     -9        8        1
  LMP2-enrg     4        2        1
  LMP2-grad     2        1        1
  DFT-cphf2   -15        9        1
  PBF-dens      0        0        1
  plotting      0        0        1
  Rel-grad    -17        0        1
  
  number of gridpoints: 
     atom           P1          C3          C4          C5          C6          C7          C8
  grid # 1         468          96          94          93          96          93          97
  grid # 2         468         338         319         323         350         339         342
  grid # 3          18           6           6           6          16          32          48
  grid # 4        4304        4304        4304        4304        4304        4304        4304
  grid # 5        1192        1192        1192        1192        1192        1192        1192
  grid # 6        8076        5226        5226        5226        5226        5226        5226
  grid # 7       22092       12650       12650       12650       12650       12650       12650
  grid # 8         634         688         688         688         688         688         688
  grid # 9         340         358         358         358         358         358         358
   
  number of gridpoints: 
     atom           C9         C10         C11         C12         C13         C14         C15
  grid # 1          97          97          94          98          93          97          95
  grid # 2         341         343         336         348         338         340         334
  grid # 3          51          47          29          11          28          39          18
  grid # 4        4304        4304        4304        4304        4304        4304        4304
  grid # 5        1192        1192        1192        1192        1192        1192        1192
  grid # 6        5226        5226        5226        5226        5226        5226        5226
  grid # 7       12650       12650       12650       12650       12650       12650       12650
  grid # 8         688         688         688         688         688         688         688
  grid # 9         358         358         358         358         358         358         358
   
  number of gridpoints: 
     atom          C16         C17         C18         C19         C20         C21         C22
  grid # 1          93          79          79          79          79          78          79
  grid # 2         324         272         274         272         273         270         274
  grid # 3           6           6           6           6           6           6           6
  grid # 4        4304        4304        4304        4304        4304        4304        4304
  grid # 5        1192        1192        1192        1192        1192        1192        1192
  grid # 6        5226        5226        5226        5226        5226        5226        5226
  grid # 7       12650       12650       12650       12650       12650       12650       12650
  grid # 8         688         688         688         688         688         688         688
  grid # 9         358         358         358         358         358         358         358
   
  number of gridpoints: 
     atom          H23         H24         H25         H26         H27         H28         H29
  grid # 1         115         118         118         118         104         116         118
  grid # 2         443         449         451         447         416         446         449
  grid # 3         326         417         432         405         177         363         420
  grid # 4        4304        4304        4304        4304        4304        4304        4304
  grid # 5        1192        1192        1192        1192        1192        1192        1192
  grid # 6        5226        5226        5226        5226        5226        5226        5226
  grid # 7       13718       13718       13718       13718       13718       13718       13718
  grid # 8         744         744         744         744         744         744         744
  grid # 9         382         382         382         382         382         382         382
   
  number of gridpoints: 
     atom          H30         H31         H32         H33         H34         H35         H36
  grid # 1         118          91         104         107         107         100         100
  grid # 2         451         374         417         433         431         392         401
  grid # 3         404          48         187         282         218         150         135
  grid # 4        4304        4304        4304        4304        4304        4304        4304
  grid # 5        1192        1192        1192        1192        1192        1192        1192
  grid # 6        5226        5226        5226        5226        5226        5226        5226
  grid # 7       13718       13718       13718       13718       13718       13718       13718
  grid # 8         744         744         744         744         744         744         744
  grid # 9         382         382         382         382         382         382         382
   
  number of gridpoints: 
     atom          H37         H38         H39         H40         H41         H42         H43
  grid # 1         107         109         109          97         104          97         107
  grid # 2         431         434         435         405         424         394         433
  grid # 3         274         279         273         157         224         145         280
  grid # 4        4304        4304        4304        4304        4304        4304        4304
  grid # 5        1192        1192        1192        1192        1192        1192        1192
  grid # 6        5226        5226        5226        5226        5226        5226        5226
  grid # 7       13718       13718       13718       13718       13718       13718       13718
  grid # 8         744         744         744         744         744         744         744
  grid # 9         382         382         382         382         382         382         382
   
  number of gridpoints: 
     atom          H44         H45         H46         H47         H48         H49       total
  grid # 1         103         108         100          96         102         109        5156
  grid # 2         418         435         410         387         412         435       18271
  grid # 3         166         272         125         124         177         275        7132
  grid # 4        4304        4304        4304        4304        4304        4304      206592
  grid # 5        1192        1192        1192        1192        1192        1192       57216
  grid # 6        5226        5226        5226        5226        5226        5226      253698
  grid # 7       13718       13718       13718       13718       13718       13718      645478
  grid # 8         744         744         744         744         744         744       34482
  grid # 9         382         382         382         382         382         382       17814
   
  end of program grid
   
 Time(grid)  user:      49.837  user+sys:      49.837  wallclock:      26.329
  
  start of program rwr
  
  end of program rwr
   
 Time(rwr)  user:       8.171  user+sys:       8.171  wallclock:      10.372
  
  start of program scf
  
 number of electrons..........        162
 number of alpha electrons....         81
 number of beta electrons.....         81
 number of orbitals, total....        350
 number of doubly-occ'd orbs..         81
 number of open shell orbs....          0
 number of occupied orbitals..         81
 number of virtual orbitals...        269
 number of hamiltonians.......          1
 number of shells.............          1
 SCF type: DFT=Becke_3_Parameter/HF+Slater+Becke88+PW91+PW-GGAIIC (B3PW91-D3)
 Energy computed using pseudospectral method.
 Convergence Criterion:
    Energy (econv):       1.00E-05
    RMS density (dconv):  5.00E-06
  
       i  u  d  i  g                   
       t  p  i  c  r                                 RMS    maximum
       e  d  i  u  i                       energy  density   DIIS  
       r  t  s  t  d       total energy    change  change    error 
  
etot    1  N  N  5  M   -1116.57921630883           5.1E-03  7.8E-02
etot    2  Y  Y  6  M   -1118.52840155914  1.9E+00  4.9E-03  4.2E-02
etot    3  Y  Y  6  M   -1118.53564704884  7.2E-03  3.1E-03  5.5E-02
etot    4  N  Y  2  U   -1118.95653165702  4.2E-01  1.5E-03  2.2E-02
etot    5  Y  Y  6  M   -1119.04819677044  9.2E-02  6.8E-04  6.4E-03
etot    6  N  Y  2  U   -1119.05113111960  2.9E-03  4.0E-04  4.0E-03
etot    7  Y  Y  6  M   -1119.05178068204  6.5E-04  1.4E-04  4.0E-03
etot    8  Y  Y  6  M   -1119.05299718216  1.2E-03  4.9E-05  1.5E-03
etot    9  N  Y  2  U   -1119.05341266876  4.2E-04  8.8E-06  9.5E-05
etot   10  N  Y  2  U   -1119.05341468340  2.0E-06  2.6E-06  4.7E-05
etot   11  N  N  2  U   -1119.05341519048  5.1E-07  0.0E+00  0.0E+00
 
  Computing the dispersion energy correction and its gradients...
  
  
 Energy components, in hartrees:
   (A)  Nuclear repulsion............    1994.17276090599
   (E)  Total one-electron terms.....   -5488.99565940836
   (F)    Electron-nuclear...........   -6604.91110959883
   (H)    Kinetic....................    1115.91545019047
   (I)  Total two-electron terms.....    2375.76948331190
   (J)    Coulomb....................    2517.94056229361
   (K)    Exchange+Correlation.......    -142.17107898171
   (L)  Electronic energy............   -3113.22617609646  (E+I)
   (M)  -V/T.........................       2.00281200964  (-(A+F+I)/H)
   (N0) D3 correction................      -0.06860282102
   (N)  Total energy.................   -1119.12201801150  (A+L+N0)
   (O)  Gas phase energy.............   -1119.12201801150
  
 SCFE: SCF energy: DFT(b3pw91-d3)     -1119.12201801150 hartrees   iterations:  11
  
 
 HOMO energy:    -0.15396
 LUMO energy:    -0.02912
 
  Orbital energies (hartrees): 
   -76.93291   -10.19070   -10.18478   -10.17636   -10.17273   -10.17237
   -10.17159   -10.17052   -10.16955   -10.16901   -10.16874   -10.16815
   -10.16177   -10.16161   -10.15780   -10.15687   -10.15620   -10.15556
   -10.15197   -10.14727   -10.14551    -6.47551    -4.63227    -4.63167
    -4.62461    -0.90284    -0.85949    -0.84043    -0.81406    -0.78237
    -0.76531    -0.73718    -0.72637    -0.70765    -0.69228    -0.67774
    -0.67465    -0.67157    -0.62672    -0.60479    -0.59314    -0.57984
    -0.57423    -0.53750    -0.50454    -0.49453    -0.48159    -0.47259
    -0.47173    -0.46036    -0.45308    -0.44647    -0.43810    -0.43607
    -0.42558    -0.42516    -0.40625    -0.39543    -0.39168    -0.38918
    -0.38245    -0.37412    -0.37182    -0.36384    -0.36136    -0.36029
    -0.35573    -0.35084    -0.34853    -0.34088    -0.33507    -0.33284
    -0.32294    -0.31939    -0.30267    -0.29062    -0.25665    -0.24524
    -0.24191    -0.23702    -0.15396    -0.02912    -0.01321     0.00213
     0.00683     0.08768     0.09456     0.10031     0.11236     0.11590
     0.11830
 
  end of program scf
   
 Time(scf)  user:     110.671  user+sys:     110.671  wallclock:      59.658
  
  start of program der1a
  
  end of program der1a
   
 Time(der1a)  user:       0.579  user+sys:       0.579  wallclock:       0.473
  
  start of program rwr
  
  end of program rwr
   
 Time(rwr)  user:       8.448  user+sys:       8.448  wallclock:      11.062
  
  start of program der1b
  
   
  forces (hartrees/bohr) : total     
   
 atom  label           x              y              z
 ---- --------   -------------  -------------  -------------
    1 P1          1.336289E-02   6.510540E-03   3.351386E-01
    2 C3          2.625893E-01  -4.829736E-03  -1.000639E-01
    3 C4         -1.459193E-01   2.540907E-01  -9.659617E-02
    4 C5         -1.237278E-01  -2.623830E-01  -9.285698E-02
    5 C6         -2.664559E-03  -5.251019E-03   6.625447E-02
    6 C7          7.279134E-03   1.455661E-02   2.997829E-03
    7 C8         -6.147635E-04  -4.116125E-03   1.256242E-03
    8 C9         -4.287019E-04  -2.600569E-04   7.692603E-04
    9 C10         2.478637E-03   4.127053E-03   2.296090E-03
   10 C11        -2.935799E-03  -1.571202E-02   2.834589E-03
   11 C12         1.598819E-02   8.004732E-03  -6.432985E-02
   12 C13         1.805262E-02   1.132514E-04  -3.132372E-03
   13 C14        -3.551567E-03   4.221448E-04  -9.868365E-04
   14 C15        -1.234532E-03   2.455097E-03  -4.497377E-04
   15 C16         3.951974E-02   4.313494E-03  -2.670997E-02
   16 C17         5.422823E-03   2.646655E-02  -2.633339E-03
   17 C18        -2.505026E-02   2.658930E-02  -1.855492E-02
   18 C19        -2.261843E-02   1.642964E-02   1.450182E-02
   19 C20        -2.030258E-02  -1.461548E-02   2.846834E-03
   20 C21         7.025488E-04  -2.613183E-02   5.790622E-03
   21 C22        -9.752501E-03  -2.880474E-02  -2.656951E-02
   22 H23        -4.559490E-03  -6.942093E-03  -1.119303E-02
   23 H24        -3.595306E-03  -6.041895E-03  -9.168386E-03
   24 H25        -1.074397E-03   1.809986E-03  -1.035852E-02
   25 H26         2.109604E-03   8.681300E-03  -7.267762E-03
   26 H27         5.896149E-03   7.988725E-03  -5.689661E-03
   27 H28        -9.634642E-03  -1.305249E-03   1.142404E-02
   28 H29        -7.969162E-03  -8.660042E-04   8.390196E-03
   29 H30        -1.135182E-03  -1.638365E-03   1.005362E-02
   30 H31         2.220118E-02  -1.492167E-03   1.277833E-02
   31 H32        -1.007896E-02   4.724636E-03   1.029082E-02
   32 H33         3.156090E-04  -1.045731E-02   3.673932E-03
   33 H34        -4.589059E-03  -2.801200E-03  -9.530963E-03
   34 H35        -1.708306E-02   9.568877E-03   8.028843E-03
   35 H36         8.291833E-03   1.483016E-02  -1.395596E-03
   36 H37         4.583197E-03  -6.371705E-03   4.370983E-03
   37 H38        -2.136440E-03  -2.484404E-03  -1.297863E-02
   38 H39         4.120711E-03  -6.605375E-03  -1.595946E-03
   39 H40         1.030203E-02   1.614991E-02   1.492438E-03
   40 H41         3.000141E-03  -2.926054E-03  -1.129269E-02
   41 H42         5.090636E-03  -1.353857E-02   6.702191E-03
   42 H43         6.742435E-03   7.710258E-03   5.803607E-04
   43 H44        -1.903788E-03   1.622619E-03  -1.404284E-02
   44 H45         1.662645E-03   9.255300E-03  -7.376940E-04
   45 H46        -1.503930E-02  -1.368678E-03  -6.237964E-04
   46 H47         8.641971E-03  -2.306920E-02   5.922477E-03
   47 H48        -1.458867E-02  -3.678194E-03   4.267898E-03
   48 H49         2.951999E-03   6.690595E-03   4.961483E-03
 -------------   -------------  -------------  -------------
     total       -8.821985E-04  -5.789256E-04  -1.135159E-03
   
  end of program der1b
   
 Time(der1b)  user:      44.124  user+sys:      44.124  wallclock:      23.072
  
  start of program geopt
  
 ----------------------------------------------------------------------------
  Geometry optimization step  1
  Total energy:     -1119.12201801150 hartrees
 ----------------------------------------------------------------------------
  
  
  Level shifts adjusted to satisfy step-size constraints
   Step size:    0.3000417
   Cos(theta):   0.9951249
   Final level shift:  -1.9889620E+00
  
  gradient maximum:        4.0289E-01 .  (  2.2500E-03 )
  gradient rms:            6.4258E-02 .  (  1.5000E-03 )
  displacement maximum:    1.5946E-01 .  (  9.0000E-03 )
  displacement rms:        2.4417E-02 .  (  6.0000E-03 )
  
  predicted energy change:  -2.0741E-01
  step size:     0.30004
  trust radius:  0.30000
  
  molecular structure not yet converged...
  
  center of mass moved by:
     x:     3.0268E-02     y:     1.7748E-03     z:    -2.4020E-02
  
  new geometry: 
                                   angstroms
  atom               x                 y                 z
  P1            0.0108251501      0.0042292014     -0.0114837116 
  C3            1.4742685414      0.0080416392     -0.5937873637 
  C4           -0.7709717286      1.2994643536     -0.4820484581 
  C5           -0.6560623235     -1.3473784788     -0.4969510482 
  C6            2.7280154492     -0.4910546409      1.5992872036 
  C7            3.1743128777      0.4920209730      2.5165966982 
  C8            3.2738935233      0.2925228254      3.9013089741 
  C9            2.9268782765     -0.9353211173      4.4681563710 
  C10           2.4823760819     -1.9409879515      3.6080869311 
  C11           2.3920189762     -1.7102245243      2.2281748491 
  C12           2.6562383318     -0.2327469467      0.1791715247 
  C13           3.8816110681     -0.2048432799     -0.5284855552 
  C14           3.9999230436      0.0332453668     -1.9000092044 
  C15           2.8482751292      0.2629382377     -2.6470772588 
  C16           1.6222443057      0.2436515352     -1.9787335444 
  C17           0.1856440361      2.5150253833     -0.4801050801 
  C18          -1.5474891527      1.3748745017     -1.8205782327 
  C19          -1.8340951297      1.6398469951      0.5935517196 
  C20          -2.1299601792     -1.4894002189     -0.0583813333 
  C21           0.0878153646     -2.5037863298      0.2113718009 
  C22          -0.6051857868     -1.7329800235     -1.9941157903 
  H23           3.4775273039      1.4981177512      2.2066612209 
  H24           3.6303155660      1.1058291827      4.5525725343 
  H25           3.0004634975     -1.1050326924      5.5531032594 
  H26           2.2001701105     -2.9215738560      4.0221588038 
  H27           2.0314976675     -2.5741080578      1.6746785070 
  H28           4.8483435398     -0.3732794378     -0.0427132435 
  H29           4.9871481936      0.0409632640     -2.3879820400 
  H30           2.9006767892      0.4527164102     -3.7302821477 
  H31           0.7519180040      0.4319647641     -2.6070227865 
  H32           0.9532483059      2.4418969655     -1.2772422269 
  H33          -0.3626737450      3.4668941371     -0.6511421543 
  H34           0.7210692058      2.6094469927      0.4896608397 
  H35          -0.9091421073      1.2759842560     -2.7176723412 
  H36          -2.3532518642      0.6184433213     -1.8823796133 
  H37          -2.0505578258      2.3607086841     -1.9275158518 
  H38          -1.3728853933      1.7472776304      1.5990438250 
  H39          -2.3599818631      2.5943228767      0.3699246396 
  H40          -2.6137266238      0.8559424486      0.6724795069 
  H41          -2.2471383341     -1.2968913179      1.0298862814 
  H42          -2.7974632195     -0.7914038566     -0.6004681783 
  H43          -2.5185272850     -2.5116399154     -0.2584690207 
  H44           0.0224402072     -2.4109394343      1.3166550596 
  H45          -0.3352409489     -3.4949504362     -0.0632043805 
  H46           1.1642849521     -2.5236188045     -0.0616546994 
  H47          -1.0962422799     -0.9888439810     -2.6469594741 
  H48           0.4352891773     -1.8785856308     -2.3496659352 
  H49          -1.1276643494     -2.6979824057     -2.1735799469 
   
 
  bond lengths (angstroms):
 
 P1      -C3      :   1.575042      P1      -C4      :   1.584384
 P1      -C5      :   1.583433      C3      -C12     :   1.432654
 C3      -C16     :   1.412616      C4      -C17     :   1.546837
 C4      -C18     :   1.549299      C4      -C19     :   1.550164
 C5      -C20     :   1.544308      C5      -C21     :   1.546724
 C5      -C22     :   1.546861      C6      -C7      :   1.416713
 C6      -C11     :   1.412363      C6      -C12     :   1.445200
 C7      -C8      :   1.402549      C7      -H23     :   1.095550
 C8      -C9      :   1.396186      C8      -H24     :   1.101203
 C9      -C10     :   1.395947      C9      -H25     :   1.100603
 C10     -C11     :   1.401989      C10     -H26     :   1.101201
 C11     -H27     :   1.087487      C12     -C13     :   1.415308
 C13     -C14     :   1.397054      C13     -H28     :   1.094951
 C14     -C15     :   1.391820      C14     -H29     :   1.101268
 C15     -C16     :   1.396498      C15     -H30     :   1.100952
 C16     -H31     :   1.089806      C17     -H32     :   1.109050
 C17     -H33     :   1.111737      C17     -H34     :   1.111774
 C18     -H35     :   1.105461      C18     -H36     :   1.106915
 C18     -H37     :   1.111928      C19     -H38     :   1.111427
 C19     -H39     :   1.112470      C19     -H40     :   1.108405
 C20     -H41     :   1.111358      C20     -H42     :   1.107528
 C20     -H43     :   1.111752      C21     -H44     :   1.111101
 C21     -H45     :   1.112104      C21     -H46     :   1.110731
 C22     -H47     :   1.105025      C22     -H48     :   1.109146
 C22     -H49     :   1.111945
 
  bond angles:
 
 C4      -P1      -C3      : 110.285260  C5      -P1      -C3      : 106.262663
 C5      -P1      -C4      : 113.511641  C12     -C3      -P1      : 124.519743
 C16     -C3      -P1      : 117.399972  C16     -C3      -C12     : 118.071328
 C17     -C4      -P1      : 109.687485  C18     -C4      -P1      : 122.936033
 C18     -C4      -C17     : 105.830838  C19     -C4      -P1      : 108.169826
 C19     -C4      -C17     : 104.519262  C19     -C4      -C18     : 104.184595
 C20     -C5      -P1      : 113.165861  C21     -C5      -P1      : 107.171370
 C21     -C5      -C20     : 105.081860  C22     -C5      -P1      : 119.714149
 C22     -C5      -C20     : 106.459220  C22     -C5      -C21     : 103.948254
 C11     -C6      -C7      : 112.682670  C12     -C6      -C7      : 121.861806
 C12     -C6      -C11     : 125.451651  C8      -C7      -C6      : 124.258086
 H23     -C7      -C6      : 122.769784  H23     -C7      -C8      : 112.972003
 C9      -C8      -C7      : 120.549096  H24     -C8      -C7      : 120.120297
 H24     -C8      -C9      : 119.330435  C10     -C9      -C8      : 117.552177
 H25     -C9      -C8      : 121.279326  H25     -C9      -C10     : 121.168496
 C11     -C10     -C9      : 120.554670  H26     -C10     -C9      : 119.435387
 H26     -C10     -C11     : 120.009885  C10     -C11     -C6      : 124.403119
 H27     -C11     -C6      : 122.544903  H27     -C11     -C10     : 113.051974
 C6      -C12     -C3      : 126.954486  C13     -C12     -C3      : 116.181966
 C13     -C12     -C6      : 116.862243  C14     -C13     -C12     : 124.579322
 H28     -C13     -C12     : 122.653496  H28     -C13     -C14     : 112.767097
 C15     -C14     -C13     : 119.012396  H29     -C14     -C13     : 120.804796
 H29     -C14     -C15     : 120.182794  C16     -C15     -C14     : 117.857471
 H30     -C15     -C14     : 121.142480  H30     -C15     -C16     : 121.000013
 C15     -C16     -C3      : 124.296845  H31     -C16     -C3      : 120.689552
 H31     -C16     -C15     : 115.013043  H32     -C17     -C4      : 112.043811
 H33     -C17     -C4      : 111.569091  H33     -C17     -H32     : 106.692827
 H34     -C17     -C4      : 111.448857  H34     -C17     -H32     : 107.410983
 H34     -C17     -H33     : 107.397931  H35     -C18     -C4      : 114.037670
 H36     -C18     -C4      : 112.322521  H36     -C18     -H35     : 108.294752
 H37     -C18     -C4      : 110.671154  H37     -C18     -H35     : 105.219694
 H37     -C18     -H36     : 105.733623  H38     -C19     -C4      : 111.368149
 H39     -C19     -C4      : 111.907686  H39     -C19     -H38     : 107.163001
 H40     -C19     -C4      : 112.117272  H40     -C19     -H38     : 107.206899
 H40     -C19     -H39     : 106.774511  H41     -C20     -C5      : 111.271650
 H42     -C20     -C5      : 112.225779  H42     -C20     -H41     : 107.852820
 H43     -C20     -C5      : 111.532080  H43     -C20     -H41     : 107.376979
 H43     -C20     -H42     : 106.304898  H44     -C21     -C5      : 111.393999
 H45     -C21     -C5      : 111.735544  H45     -C21     -H44     : 107.319399
 H46     -C21     -C5      : 111.523597  H46     -C21     -H44     : 107.640053
 H46     -C21     -H45     : 106.982141  H47     -C22     -C5      : 112.912881
 H48     -C22     -C5      : 111.952753  H48     -C22     -H47     : 108.414462
 H49     -C22     -C5      : 110.921897  H49     -C22     -H47     : 106.275804
 H49     -C22     -H48     : 105.969147
 
  torsional angles:
 
 P1      -C3      -C12     -C6      :  -1.246158
 P1      -C3      -C12     -C13     : 179.185112
 P1      -C3      -C16     -C15     :-179.222918
 P1      -C3      -C16     -H31     :   1.063321
 P1      -C4      -C17     -H32     :  69.306147
 P1      -C4      -C17     -H33     :-171.136526
 P1      -C4      -C17     -H34     : -51.086772
 P1      -C4      -C18     -H35     : -63.791293
 P1      -C4      -C18     -H36     :  59.897863
 P1      -C4      -C18     -H37     : 177.816346
 P1      -C4      -C19     -H38     :  54.957088
 P1      -C4      -C19     -H39     : 174.883114
 P1      -C4      -C19     -H40     : -65.168725
 P1      -C5      -C20     -H41     : -50.374744
 P1      -C5      -C20     -H42     :  70.587447
 P1      -C5      -C20     -H43     :-170.251982
 P1      -C5      -C21     -H44     :  58.920695
 P1      -C5      -C21     -H45     : 178.946422
 P1      -C5      -C21     -H46     : -61.368846
 P1      -C5      -C22     -H47     : -60.039977
 P1      -C5      -C22     -H48     :  62.652320
 P1      -C5      -C22     -H49     :-179.205700
 C3      -P1      -C4      -C17     : -38.323415
 C3      -P1      -C4      -C18     :  86.917316
 C3      -P1      -C4      -C19     :-151.756403
 C3      -P1      -C5      -C20     :-177.634075
 C3      -P1      -C5      -C21     :  66.997075
 C3      -P1      -C5      -C22     : -50.832398
 C3      -C12     -C6      -C7      :-104.965549
 C3      -C12     -C6      -C11     :  75.803778
 C3      -C12     -C13     -C14     :  -0.209405
 C3      -C12     -C13     -H28     : 179.904153
 C3      -C16     -C15     -C14     :   0.086940
 C3      -C16     -C15     -H30     :-179.980801
 C4      -P1      -C3      -C12     : 131.122688
 C4      -P1      -C3      -C16     : -49.989960
 C4      -P1      -C5      -C20     : -56.251328
 C4      -P1      -C5      -C21     :-171.620178
 C4      -P1      -C5      -C22     :  70.550349
 C5      -P1      -C3      -C12     :-105.451018
 C5      -P1      -C3      -C16     :  73.436334
 C5      -P1      -C4      -C17     :-157.427205
 C5      -P1      -C4      -C18     : -32.186473
 C5      -P1      -C4      -C19     :  89.139807
 C6      -C7      -C8      -C9      :   0.139020
 C6      -C7      -C8      -H24     : 179.987251
 C6      -C11     -C10     -C9      :   0.045289
 C6      -C11     -C10     -H26     : 179.957056
 C6      -C12     -C3      -C16     : 179.873368
 C6      -C12     -C13     -C14     :-179.823087
 C6      -C12     -C13     -H28     :   0.290471
 C7      -C6      -C11     -C10     :   0.059604
 C7      -C6      -C11     -H27     :-179.966673
 C7      -C6      -C12     -C13     :  74.600617
 C7      -C8      -C9      -C10     :  -0.021212
 C7      -C8      -C9      -H25     : 179.994499
 C8      -C7      -C6      -C11     :  -0.151048
 C8      -C7      -C6      -C12     :-179.471819
 C8      -C9      -C10     -C11     :  -0.065440
 C8      -C9      -C10     -H26     :-179.977711
 C9      -C8      -C7      -H23     :-179.988060
 C9      -C10     -C11     -H27     :-179.930638
 C10     -C9      -C8      -H24     :-179.870632
 C10     -C11     -C6      -C12     : 179.351425
 C11     -C6      -C7      -H23     : 179.988100
 C11     -C6      -C12     -C13     :-104.630055
 C11     -C10     -C9      -H25     : 179.918867
 C12     -C3      -C16     -C15     :  -0.261876
 C12     -C3      -C16     -H31     :-179.975637
 C12     -C6      -C7      -H23     :   0.667329
 C12     -C6      -C11     -H27     :  -0.674852
 C12     -C13     -C14     -C15     :   0.038954
 C12     -C13     -C14     -H29     : 179.995460
 C13     -C12     -C3      -C16     :   0.304638
 C13     -C14     -C15     -C16     :   0.029663
 C13     -C14     -C15     -H30     :-179.902495
 C14     -C15     -C16     -H31     : 179.815315
 C15     -C14     -C13     -H28     : 179.935266
 C16     -C15     -C14     -H29     :-179.927120
 C17     -C4      -C18     -H35     :  63.144567
 C17     -C4      -C18     -H36     :-173.166277
 C17     -C4      -C18     -H37     : -55.247793
 C17     -C4      -C19     -H38     : -61.867659
 C17     -C4      -C19     -H39     :  58.058367
 C17     -C4      -C19     -H40     : 178.006529
 C18     -C4      -C17     -H32     : -65.255851
 C18     -C4      -C17     -H33     :  54.301476
 C18     -C4      -C17     -H34     : 174.351229
 C18     -C4      -C19     -H38     :-172.729552
 C18     -C4      -C19     -H39     : -52.803526
 C18     -C4      -C19     -H40     :  67.144636
 C19     -C4      -C17     -H32     :-174.922292
 C19     -C4      -C17     -H33     : -55.364965
 C19     -C4      -C17     -H34     :  64.684788
 C19     -C4      -C18     -H35     : 173.049041
 C19     -C4      -C18     -H36     : -63.261803
 C19     -C4      -C18     -H37     :  54.656681
 C20     -C5      -C21     -H44     : -61.723604
 C20     -C5      -C21     -H45     :  58.302123
 C20     -C5      -C21     -H46     : 177.986854
 C20     -C5      -C22     -H47     :  69.820494
 C20     -C5      -C22     -H48     :-167.487208
 C20     -C5      -C22     -H49     : -49.345228
 C21     -C5      -C20     -H41     :  66.233530
 C21     -C5      -C20     -H42     :-172.804279
 C21     -C5      -C20     -H43     : -53.643708
 C21     -C5      -C22     -H47     :-179.512378
 C21     -C5      -C22     -H48     : -56.820081
 C21     -C5      -C22     -H49     :  61.321899
 C22     -C5      -C20     -H41     : 176.105955
 C22     -C5      -C20     -H42     : -62.931855
 C22     -C5      -C20     -H43     :  56.228716
 C22     -C5      -C21     -H44     :-173.395219
 C22     -C5      -C21     -H45     : -53.369492
 C22     -C5      -C21     -H46     :  66.315239
 H23     -C7      -C8      -H24     :  -0.139830
 H24     -C8      -C9      -H25     :   0.145079
 H25     -C9      -C10     -H26     :   0.006596
 H26     -C10     -C11     -H27     :  -0.018871
 H28     -C13     -C14     -H29     :  -0.108229
 H29     -C14     -C15     -H30     :   0.140723
 H30     -C15     -C16     -H31     :  -0.252426
 
  nuclear repulsion energy.......          1956.730765094 hartrees
 -------------------------------------------------
   end of geometry optimization iteration  1
 -------------------------------------------------
   
  end of program geopt
   
 Time(geopt)  user:       0.499  user+sys:       0.499  wallclock:       0.519
  
  start of program onee
  
  smallest eigenvalue of S:    4.285E-04
  number of canonical orbitals.....          350
  end of program onee
   
 Time(onee)  user:       0.361  user+sys:       0.361  wallclock:       0.242
  
  start of program probe
  
  end of program probe
   
 Time(probe)  user:       0.265  user+sys:       0.265  wallclock:       0.226
  
  start of program grid
  
  end of program grid
   
 Time(grid)  user:      49.108  user+sys:      49.108  wallclock:      25.853
  
  start of program rwr
  
  end of program rwr
   
 Time(rwr)  user:       7.810  user+sys:       7.810  wallclock:       9.840
  
  start of program scf
  
 Energy computed using pseudospectral method.
 Convergence Criterion:
    Energy (econv):       1.00E-05
    RMS density (dconv):  5.00E-06
  
       i  u  d  i  g                   
       t  p  i  c  r                                 RMS    maximum
       e  d  i  u  i                       energy  density   DIIS  
       r  t  s  t  d       total energy    change  change    error 
  
etot    1  N  N  2  U   -1119.19571489339           7.8E-04  9.0E-03
etot    2  Y  Y  6  M   -1119.21927641475  2.4E-02  3.6E-04  3.7E-03
etot    3  N  Y  2  U   -1119.21785684635 -1.4E-03  2.2E-04  4.6E-03
etot    4  Y  Y  6  M   -1119.22153829524  3.7E-03  5.1E-05  1.0E-03
etot    5  Y  Y  6  M   -1119.22175849806  2.2E-04  1.5E-05  2.3E-04
etot    6  N  Y  2  U   -1119.22174631573 -1.2E-05  5.5E-06  9.0E-05
etot    7  N  Y  2  U   -1119.22174812832  1.8E-06  2.6E-06  5.5E-05
etot    8  N  N  2  U   -1119.22174844139  3.1E-07  0.0E+00  0.0E+00
 
  Computing the dispersion energy correction and its gradients...
  
  
 Energy components, in hartrees:
   (A)  Nuclear repulsion............    1956.73076509384
   (E)  Total one-electron terms.....   -5414.49513592792
   (F)    Electron-nuclear...........   -6529.34956129139
   (H)    Kinetic....................    1114.85442536347
   (I)  Total two-electron terms.....    2338.54262239269
   (J)    Coulomb....................    2480.52533703813
   (K)    Exchange+Correlation.......    -141.98271464544
   (L)  Electronic energy............   -3075.95251353523  (E+I)
   (M)  -V/T.........................       2.00391739314  (-(A+F+I)/H)
   (N0) D3 correction................      -0.06793436579
   (N)  Total energy.................   -1119.28968280718  (A+L+N0)
   (O)  Gas phase energy.............   -1119.28968280718
  
 SCFE: SCF energy: DFT(b3pw91-d3)     -1119.28968280718 hartrees   iterations:   8
  
 
 HOMO energy:    -0.16490
 LUMO energy:    -0.02947
 
  Orbital energies (hartrees): 
   -76.96212   -10.19184   -10.18346   -10.17778   -10.17507   -10.17453
   -10.17415   -10.17013   -10.16853   -10.16798   -10.16770   -10.16691
   -10.16515   -10.16485   -10.15962   -10.15954   -10.15845   -10.15644
   -10.15419   -10.15053   -10.15047    -6.49089    -4.64826    -4.64791
    -4.64122    -0.88108    -0.85444    -0.83999    -0.81098    -0.78179
    -0.76130    -0.73755    -0.72323    -0.69066    -0.68700    -0.67650
    -0.67326    -0.66982    -0.62562    -0.60470    -0.59318    -0.57724
    -0.57075    -0.53370    -0.50367    -0.49061    -0.47329    -0.46716
    -0.46514    -0.45275    -0.44710    -0.44507    -0.43612    -0.43297
    -0.42482    -0.42075    -0.40736    -0.40265    -0.38989    -0.38933
    -0.38199    -0.37551    -0.36867    -0.36413    -0.36073    -0.35966
    -0.35714    -0.35162    -0.34572    -0.33721    -0.33525    -0.33133
    -0.32303    -0.31816    -0.30866    -0.29803    -0.25813    -0.25102
    -0.24288    -0.23854    -0.16490    -0.02947    -0.01423     0.00247
     0.00729     0.08323     0.09358     0.09939     0.11288     0.11725
     0.11927
 
  end of program scf
   
 Time(scf)  user:      93.079  user+sys:      93.079  wallclock:      50.139
  
  start of program der1a
  
  end of program der1a
   
 Time(der1a)  user:       0.629  user+sys:       0.629  wallclock:       0.664
  
  start of program rwr
  
  end of program rwr
   
 Time(rwr)  user:       8.322  user+sys:       8.322  wallclock:      10.857
  
  start of program der1b
  
   
  forces (hartrees/bohr) : total     
   
 atom  label           x              y              z
 ---- --------   -------------  -------------  -------------
    1 P1          6.167364E-03   5.272509E-03   2.061797E-01
    2 C3          1.688797E-01  -3.299116E-03  -7.309642E-02
    3 C4         -1.011002E-01   1.695088E-01  -5.924302E-02
    4 C5         -8.252314E-02  -1.773715E-01  -5.939134E-02
    5 C6         -4.436701E-03  -3.338574E-03   5.918022E-02
    6 C7          6.109332E-03   1.337449E-02   1.992768E-03
    7 C8         -1.235989E-04  -3.054171E-03   1.538590E-03
    8 C9         -4.637011E-04  -1.741435E-04   7.759084E-04
    9 C10         1.697355E-03   2.909538E-03   2.308803E-03
   10 C11        -1.705984E-03  -1.362292E-02   1.140643E-03
   11 C12         1.209778E-02   5.534519E-03  -4.864219E-02
   12 C13         1.386659E-02  -1.540041E-04  -2.459494E-03
   13 C14        -1.990402E-03   7.699691E-04  -2.024080E-03
   14 C15        -2.106432E-03   1.599198E-03   2.743771E-06
   15 C16         1.940381E-02   2.296501E-03  -1.742715E-02
   16 C17         1.149398E-02   1.472080E-02   1.611581E-04
   17 C18        -1.036980E-02   5.620262E-03  -1.494572E-02
   18 C19        -1.416787E-02   6.152665E-03   1.637459E-02
   19 C20        -1.506832E-02  -1.514791E-03   6.698151E-03
   20 C21         4.051457E-03  -1.557936E-02   9.426072E-03
   21 C22        -2.882861E-03  -8.350905E-03  -1.854140E-02
   22 H23        -3.631540E-03  -6.302150E-03  -9.683709E-03
   23 H24        -2.888130E-03  -5.172169E-03  -7.794996E-03
   24 H25        -6.022037E-04   1.586722E-03  -8.872838E-03
   25 H26         1.991510E-03   7.360152E-03  -6.053837E-03
   26 H27         6.032882E-03   7.153735E-03  -4.613795E-03
   27 H28        -9.432112E-03  -9.537754E-04   9.189149E-03
   28 H29        -7.389805E-03  -7.027572E-04   6.394485E-03
   29 H30        -1.380917E-03  -1.459861E-03   8.842595E-03
   30 H31         1.671273E-03  -1.753722E-03   7.247824E-03
   31 H32        -6.875317E-03   1.907540E-03   7.688352E-03
   32 H33         1.037581E-03  -9.995767E-03   2.922021E-03
   33 H34        -3.739329E-03  -1.748474E-03  -7.938301E-03
   34 H35        -4.002129E-03  -8.591239E-04   6.138894E-03
   35 H36         7.364542E-03   5.370953E-03  -7.124721E-04
   36 H37         4.581728E-03  -6.956883E-03   2.841758E-03
   37 H38        -2.783552E-03  -2.350212E-03  -9.903065E-03
   38 H39         4.573032E-03  -6.824070E-03  -1.173364E-03
   39 H40         6.894617E-03   8.492517E-03   9.112385E-08
   40 H41         1.502625E-03  -1.681041E-03  -9.125531E-03
   41 H42         4.772314E-03  -6.500789E-03   4.559591E-03
   42 H43         6.275668E-03   7.639356E-03   7.366600E-04
   43 H44        -1.310400E-03   5.935062E-04  -1.150449E-02
   44 H45         1.569961E-03   9.111886E-03  -5.568725E-04
   45 H46        -1.160136E-02  -4.124260E-04  -2.859251E-04
   46 H47         4.426722E-03  -5.767383E-03   3.885305E-03
   47 H48        -8.722993E-03   2.370988E-03   3.070269E-03
   48 H49         3.347078E-03   7.268860E-03   3.220790E-03
 -------------   -------------  -------------  -------------
     total       -1.489866E-03   7.154106E-04  -1.472911E-03
   
  end of program der1b
   
 Time(der1b)  user:      43.435  user+sys:      43.435  wallclock:      23.320
  
  start of program geopt
  
 ----------------------------------------------------------------------------
  Geometry optimization step  2
  Total energy:     -1119.28968280718 hartrees
 ----------------------------------------------------------------------------
  
  
  Level shifts adjusted to satisfy step-size constraints
   Step size:    0.3000205
   Cos(theta):   0.9475042
   Final level shift:  -8.2984543E-01
  
  energy change:          -1.6766E-01 .  (  2.5000E-04 )
  gradient maximum:        2.2351E-01 .  (  2.2500E-03 )
  gradient rms:            3.2679E-02 .  (  1.5000E-03 )
  displacement maximum:    1.5582E-01 .  (  9.0000E-03 )
  displacement rms:        2.4415E-02 .  (  6.0000E-03 )
  
  predicted energy change:  -9.4425E-02
  step size:     0.30002
  trust radius:  0.30000
  
  molecular structure not yet converged...
  
  center of mass moved by:
     x:     3.1192E-02     y:    -1.0253E-02     z:     3.3172E-02
  
  new geometry: 
                                   angstroms
  atom               x                 y                 z
  P1           -0.0219457521     -0.0628666971      0.0322501810 
  C3            1.5172250798     -0.0468965335     -0.5801713621 
  C4           -0.8148345721      1.3174942350     -0.4515272602 
  C5           -0.7800815968     -1.4135633747     -0.5809684874 
  C6            2.7826638985     -0.4572797216      1.6380928997 
  C7            3.1998245962      0.5857677210      2.4933194258 
  C8            3.3288537936      0.4464161485      3.8787729571 
  C9            3.0510082501     -0.7725359147      4.4965082067 
  C10           2.6444823757     -1.8330613350      3.6878925268 
  C11           2.5177120866     -1.6684497306      2.3056207730 
  C12           2.7055061409     -0.2465534966      0.1959506592 
  C13           3.9398466268     -0.2160727346     -0.4842627205 
  C14           4.0607954753     -0.0145559338     -1.8586818612 
  C15           2.9104968074      0.1734737192     -2.6201520033 
  C16           1.6771984528      0.1528196189     -1.9709041475 
  C17           0.1535802158      2.5247254369     -0.3896195345 
  C18          -1.5162105025      1.3930150033     -1.8326173547 
  C19          -1.9152867598      1.6451732229      0.5954785824 
  C20          -2.2519158213     -1.5331962740     -0.1250014234 
  C21          -0.0926030253     -2.6710719141      0.0007985921 
  C22          -0.7665316268     -1.6337061215     -2.1150655709 
  H23           3.4400134220      1.5809107762      2.1086560347 
  H24           3.6577529035      1.2995155102      4.4845494425 
  H25           3.1483476574     -0.8951814829      5.5816058437 
  H26           2.4181968163     -2.8061173905      4.1405735379 
  H27           2.1961952802     -2.5562641362      1.7711406613 
  H28           4.8850497263     -0.3588555053      0.0455874221 
  H29           5.0488174729     -0.0011355602     -2.3346656822 
  H30           2.9659944727      0.3331116600     -3.7036486415 
  H31           0.8026488100      0.3059893260     -2.6032546924 
  H32           0.9388521219      2.4682568416     -1.1643020865 
  H33          -0.3871440579      3.4780778275     -0.5448991746 
  H34           0.6630032507      2.5849417614      0.5920590661 
  H35          -0.8223422510      1.3021305041     -2.6859821763 
  H36          -2.3037707055      0.6282038494     -1.9448834494 
  H37          -2.0173095193      2.3725215475     -1.9600378223 
  H38          -1.4889869887      1.7217102431      1.6138564152 
  H39          -2.4177047033      2.6074969037      0.3715983537 
  H40          -2.7032238971      0.8722901119      0.6273457774 
  H41          -2.3419687761     -1.4247984942      0.9730231640 
  H42          -2.8975467852     -0.7706214410     -0.5940772301 
  H43          -2.6764858493     -2.5181114745     -0.3993955117 
  H44          -0.1407598580     -2.6782561204      1.1055289238 
  H45          -0.5754323841     -3.5992381756     -0.3632972476 
  H46           0.9712460007     -2.7222631886     -0.2960021393 
  H47          -1.2503636286     -0.8104175292     -2.6678511957 
  H48           0.2605434348     -1.7562362778     -2.5044350806 
  H49          -1.3152266733     -2.5575119590     -2.3842744822 
   
 
  bond lengths (angstroms):
 
 P1      -C3      :   1.656612      P1      -C4      :   1.663764
 P1      -C5      :   1.665890      C3      -C12     :   1.433262
 C3      -C16     :   1.414078      C4      -C17     :   1.548892
 C4      -C18     :   1.550820      C4      -C19     :   1.553895
 C5      -C20     :   1.545482      C5      -C21     :   1.546741
 C5      -C22     :   1.549871      C6      -C7      :   1.411872
 C6      -C11     :   1.408093      C6      -C12     :   1.459498
 C7      -C8      :   1.398409      C7      -H23     :   1.093602
 C8      -C9      :   1.394503      C8      -H24     :   1.096776
 C9      -C10     :   1.394215      C9      -H25     :   1.096337
 C10     -C11     :   1.397799      C10     -H26     :   1.096797
 C11     -H27     :   1.085015      C12     -C13     :   1.409686
 C13     -C14     :   1.394369      C13     -H28     :   1.092949
 C14     -C15     :   1.392257      C14     -H29     :   1.096781
 C15     -C16     :   1.393906      C15     -H30     :   1.096599
 C16     -H31     :   1.090030      C17     -H32     :   1.104524
 C17     -H33     :   1.106967      C17     -H34     :   1.107624
 C18     -H35     :   1.103605      C18     -H36     :   1.103536
 C18     -H37     :   1.107596      C19     -H38     :   1.106654
 C19     -H39     :   1.108428      C19     -H40     :   1.104178
 C20     -H41     :   1.107031      C20     -H42     :   1.103808
 C20     -H43     :   1.107073      C21     -H44     :   1.105803
 C21     -H45     :   1.107783      C21     -H46     :   1.105661
 C22     -H47     :   1.103390      C22     -H48     :   1.105217
 C22     -H49     :   1.107681
 
  bond angles:
 
 C4      -P1      -C3      : 109.104173  C5      -P1      -C3      : 107.131510
 C5      -P1      -C4      : 110.412164  C12     -C3      -P1      : 124.664534
 C16     -C3      -P1      : 118.037598  C16     -C3      -C12     : 117.287102
 C17     -C4      -P1      : 109.698316  C18     -C4      -P1      : 120.989623
 C18     -C4      -C17     : 106.284489  C19     -C4      -P1      : 108.453302
 C19     -C4      -C17     : 104.565750  C19     -C4      -C18     : 105.634223
 C20     -C5      -P1      : 112.803187  C21     -C5      -P1      : 108.569447
 C21     -C5      -C20     : 104.441212  C22     -C5      -P1      : 118.394687
 C22     -C5      -C20     : 106.819680  C22     -C5      -C21     : 104.651069
 C11     -C6      -C7      : 113.821438  C12     -C6      -C7      : 120.496844
 C12     -C6      -C11     : 125.638640  C8      -C7      -C6      : 123.626117
 H23     -C7      -C6      : 121.606798  H23     -C7      -C8      : 114.764797
 C9      -C8      -C7      : 120.503838  H24     -C8      -C7      : 119.825920
 H24     -C8      -C9      : 119.668851  C10     -C9      -C8      : 117.780148
 H25     -C9      -C8      : 121.233914  H25     -C9      -C10     : 120.985937
 C11     -C10     -C9      : 120.690568  H26     -C10     -C9      : 119.711024
 H26     -C10     -C11     : 119.598066  C10     -C11     -C6      : 123.575083
 H27     -C11     -C6      : 121.738974  H27     -C11     -C10     : 114.685871
 C6      -C12     -C3      : 126.799090  C13     -C12     -C3      : 117.493259
 C13     -C12     -C6      : 115.697642  C14     -C13     -C12     : 123.690105
 H28     -C13     -C12     : 121.365666  H28     -C13     -C14     : 114.943131
 C15     -C14     -C13     : 119.140891  H29     -C14     -C13     : 120.509503
 H29     -C14     -C15     : 120.349361  C16     -C15     -C14     : 118.311528
 H30     -C15     -C14     : 121.214557  H30     -C15     -C16     : 120.473878
 C15     -C16     -C3      : 124.074707  H31     -C16     -C3      : 119.975235
 H31     -C16     -C15     : 115.949831  H32     -C17     -C4      : 112.125274
 H33     -C17     -C4      : 111.114969  H33     -C17     -H32     : 107.033475
 H34     -C17     -C4      : 111.429501  H34     -C17     -H32     : 107.302274
 H34     -C17     -H33     : 107.587654  H35     -C18     -C4      : 113.594633
 H36     -C18     -C4      : 112.309799  H36     -C18     -H35     : 108.237988
 H37     -C18     -C4      : 110.495234  H37     -C18     -H35     : 105.564411
 H37     -C18     -H36     : 106.160167  H38     -C19     -C4      : 111.212377
 H39     -C19     -C4      : 111.591611  H39     -C19     -H38     : 107.483460
 H40     -C19     -C4      : 112.160490  H40     -C19     -H38     : 107.261878
 H40     -C19     -H39     : 106.862499  H41     -C20     -C5      : 111.255183
 H42     -C20     -C5      : 112.221235  H42     -C20     -H41     : 107.834975
 H43     -C20     -C5      : 111.159953  H43     -C20     -H41     : 107.563059
 H43     -C20     -H42     : 106.557657  H44     -C21     -C5      : 111.203735
 H45     -C21     -C5      : 111.336230  H45     -C21     -H44     : 107.693658
 H46     -C21     -C5      : 111.366766  H46     -C21     -H44     : 108.045889
 H46     -C21     -H45     : 106.998698  H47     -C22     -C5      : 112.710433
 H48     -C22     -C5      : 111.875281  H48     -C22     -H47     : 108.283287
 H49     -C22     -C5      : 110.774748  H49     -C22     -H47     : 106.458108
 H49     -C22     -H48     : 106.394381
 
  torsional angles:
 
 P1      -C3      -C12     -C6      :  -1.856608
 P1      -C3      -C12     -C13     : 179.349620
 P1      -C3      -C16     -C15     :-179.225320
 P1      -C3      -C16     -H31     :   0.955450
 P1      -C4      -C17     -H32     :  69.583435
 P1      -C4      -C17     -H33     :-170.682193
 P1      -C4      -C17     -H34     : -50.712956
 P1      -C4      -C18     -H35     : -63.608229
 P1      -C4      -C18     -H36     :  59.647086
 P1      -C4      -C18     -H37     : 177.977141
 P1      -C4      -C19     -H38     :  54.913980
 P1      -C4      -C19     -H39     : 174.926426
 P1      -C4      -C19     -H40     : -65.203358
 P1      -C5      -C20     -H41     : -50.369837
 P1      -C5      -C20     -H42     :  70.554537
 P1      -C5      -C20     -H43     :-170.221287
 P1      -C5      -C21     -H44     :  58.798018
 P1      -C5      -C21     -H45     : 178.898824
 P1      -C5      -C21     -H46     : -61.770824
 P1      -C5      -C22     -H47     : -60.093735
 P1      -C5      -C22     -H48     :  62.216629
 P1      -C5      -C22     -H49     :-179.254034
 C3      -P1      -C4      -C17     : -39.752146
 C3      -P1      -C4      -C18     :  84.473865
 C3      -P1      -C4      -C19     :-153.397180
 C3      -P1      -C5      -C20     :-178.154004
 C3      -P1      -C5      -C21     :  66.592225
 C3      -P1      -C5      -C22     : -52.414857
 C3      -C12     -C6      -C7      :-103.927569
 C3      -C12     -C6      -C11     :  78.611846
 C3      -C12     -C13     -C14     :  -0.523509
 C3      -C12     -C13     -H28     : 179.877302
 C3      -C16     -C15     -C14     :   0.052206
 C3      -C16     -C15     -H30     : 179.982739
 C4      -P1      -C3      -C12     : 128.327671
 C4      -P1      -C3      -C16     : -52.901290
 C4      -P1      -C5      -C20     : -59.459652
 C4      -P1      -C5      -C21     :-174.713423
 C4      -P1      -C5      -C22     :  66.279495
 C5      -P1      -C3      -C12     :-112.134402
 C5      -P1      -C3      -C16     :  66.636638
 C5      -P1      -C4      -C17     :-157.237085
 C5      -P1      -C4      -C18     : -33.011074
 C5      -P1      -C4      -C19     :  89.117881
 C6      -C7      -C8      -C9      :   0.473345
 C6      -C7      -C8      -H24     :-179.957110
 C6      -C11     -C10     -C9      :   0.048000
 C6      -C11     -C10     -H26     : 179.834673
 C6      -C12     -C3      -C16     : 179.363941
 C6      -C12     -C13     -C14     :-179.451634
 C6      -C12     -C13     -H28     :   0.949177
 C7      -C6      -C11     -C10     :   0.370049
 C7      -C6      -C11     -H27     :-179.527333
 C7      -C6      -C12     -C13     :  74.884986
 C7      -C8      -C9      -C10     :  -0.007968
 C7      -C8      -C9      -H25     : 179.988465
 C8      -C7      -C6      -C11     :  -0.629135
 C8      -C7      -C6      -C12     :-178.373296
 C8      -C9      -C10     -C11     :  -0.240061
 C8      -C9      -C10     -H26     : 179.973505
 C9      -C8      -C7      -H23     : 179.929860
 C9      -C10     -C11     -H27     : 179.951951
 C10     -C9      -C8      -H24     :-179.578187
 C10     -C11     -C6      -C12     : 177.978266
 C11     -C6      -C7      -H23     : 179.950324
 C11     -C6      -C12     -C13     :-102.575599
 C11     -C10     -C9      -H25     : 179.763497
 C12     -C3      -C16     -C15     :  -0.362690
 C12     -C3      -C16     -H31     : 179.818080
 C12     -C6      -C7      -H23     :   2.206162
 C12     -C6      -C11     -H27     :  -1.919117
 C12     -C13     -C14     -C15     :   0.214206
 C12     -C13     -C14     -H29     :-179.965260
 C13     -C12     -C3      -C16     :   0.570170
 C13     -C14     -C15     -C16     :   0.033945
 C13     -C14     -C15     -H30     :-179.896049
 C14     -C15     -C16     -H31     : 179.878058
 C15     -C14     -C13     -H28     : 179.836763
 C16     -C15     -C14     -H29     :-179.786883
 C17     -C4      -C18     -H35     :  62.200452
 C17     -C4      -C18     -H36     :-174.544234
 C17     -C4      -C18     -H37     : -56.214179
 C17     -C4      -C19     -H38     : -62.076658
 C17     -C4      -C19     -H39     :  57.935788
 C17     -C4      -C19     -H40     : 177.806004
 C18     -C4      -C17     -H32     : -62.818751
 C18     -C4      -C17     -H33     :  56.915621
 C18     -C4      -C17     -H34     : 176.884858
 C18     -C4      -C19     -H38     :-174.012368
 C18     -C4      -C19     -H39     : -53.999922
 C18     -C4      -C19     -H40     :  65.870294
 C19     -C4      -C17     -H32     :-174.287207
 C19     -C4      -C17     -H33     : -54.552835
 C19     -C4      -C17     -H34     :  65.416402
 C19     -C4      -C18     -H35     : 172.921557
 C19     -C4      -C18     -H36     : -63.823128
 C19     -C4      -C18     -H37     :  54.506927
 C20     -C5      -C21     -H44     : -61.779607
 C20     -C5      -C21     -H45     :  58.321199
 C20     -C5      -C21     -H46     : 177.651551
 C20     -C5      -C22     -H47     :  68.491151
 C20     -C5      -C22     -H48     :-169.198485
 C20     -C5      -C22     -H49     : -50.669148
 C21     -C5      -C20     -H41     :  67.340043
 C21     -C5      -C20     -H42     :-171.735583
 C21     -C5      -C20     -H43     : -52.511406
 C21     -C5      -C22     -H47     : 178.875579
 C21     -C5      -C22     -H48     : -58.814056
 C21     -C5      -C22     -H49     :  59.715280
 C22     -C5      -C20     -H41     : 177.870443
 C22     -C5      -C20     -H42     : -61.205183
 C22     -C5      -C20     -H43     :  58.018993
 C22     -C5      -C21     -H44     :-173.876177
 C22     -C5      -C21     -H45     : -53.775371
 C22     -C5      -C21     -H46     :  65.554981
 H23     -C7      -C8      -H24     :  -0.500595
 H24     -C8      -C9      -H25     :   0.418246
 H25     -C9      -C10     -H26     :  -0.022937
 H26     -C10     -C11     -H27     :  -0.261376
 H28     -C13     -C14     -H29     :  -0.342702
 H29     -C14     -C15     -H30     :   0.283122
 H30     -C15     -C16     -H31     :  -0.191409
 
  nuclear repulsion energy.......          1927.712031870 hartrees
 -------------------------------------------------
   end of geometry optimization iteration  2
 -------------------------------------------------
   
  end of program geopt
   
 Time(geopt)  user:       0.547  user+sys:       0.547  wallclock:       0.545
  
  start of program onee
  
  smallest eigenvalue of S:    4.460E-04
  number of canonical orbitals.....          350
  end of program onee
   
 Time(onee)  user:       0.339  user+sys:       0.339  wallclock:       0.232
  
  start of program probe
  
  end of program probe
   
 Time(probe)  user:       0.280  user+sys:       0.280  wallclock:       0.193
  
  start of program grid
  
  end of program grid
   
 Time(grid)  user:      48.272  user+sys:      48.272  wallclock:      25.874
  
  start of program rwr
  
  end of program rwr
   
 Time(rwr)  user:       7.722  user+sys:       7.722  wallclock:      10.044
  
  start of program scf
  
 Energy computed using pseudospectral method.
 Convergence Criterion:
    Energy (econv):       1.00E-05
    RMS density (dconv):  5.00E-06
  
       i  u  d  i  g                   
       t  p  i  c  r                                 RMS    maximum
       e  d  i  u  i                       energy  density   DIIS  
       r  t  s  t  d       total energy    change  change    error 
  
etot    1  N  N  2  U   -1119.27579458849           6.6E-04  1.2E-02
etot    2  Y  Y  6  M   -1119.30446749941  2.9E-02  2.9E-04  3.0E-03
etot    3  N  Y  2  U   -1119.30301112589 -1.5E-03  2.0E-04  4.6E-03
etot    4  Y  Y  6  M   -1119.30635706145  3.3E-03  4.0E-05  8.6E-04
etot    5  N  Y  2  U   -1119.30654796327  1.9E-04  1.3E-05  2.5E-04
etot    6  N  Y  2  U   -1119.30655792603  1.0E-05  5.1E-06  1.4E-04
etot    7  N  Y  2  U   -1119.30655931039  1.4E-06  2.2E-06  6.3E-05
etot    8  N  N  2  U   -1119.30655951891  2.1E-07  0.0E+00  0.0E+00
 
  Computing the dispersion energy correction and its gradients...
  
  
 Energy components, in hartrees:
   (A)  Nuclear repulsion............    1927.71203186999
   (E)  Total one-electron terms.....   -5356.58873081131
   (F)    Electron-nuclear...........   -6470.85538707159
   (H)    Kinetic....................    1114.26665626027
   (I)  Total two-electron terms.....    2309.57013942241
   (J)    Coulomb....................    2451.45484315105
   (K)    Exchange+Correlation.......    -141.88470372864
   (L)  Electronic energy............   -3047.01859138890  (E+I)
   (M)  -V/T.........................       2.00452306746  (-(A+F+I)/H)
   (N0) D3 correction................      -0.06649496011
[...]
    H37      X     0.00375   0.00551  -0.00841  -0.00006   0.00049  -0.00012
    H37      Y    -0.01536   0.03324   0.01366   0.00018  -0.00154   0.00021
    H37      Z     0.00290  -0.01096  -0.00004  -0.00004   0.00030  -0.00007
    H38      X    -0.18719  -0.02701   0.00605  -0.00006  -0.00002   0.00009
    H38      Y     0.03035   0.00389  -0.00077   0.00000   0.00004  -0.00004
    H38      Z    -0.48540  -0.06960   0.01551  -0.00022   0.00005   0.00032
    H39      X     0.03650   0.00514  -0.00090  -0.00008   0.00028  -0.00007
    H39      Y    -0.04799  -0.00660   0.00107   0.00018  -0.00050   0.00009
    H39      Z     0.01807   0.00381  -0.00067  -0.00002   0.00001  -0.00001
    H40      X    -0.55599  -0.08855   0.01954  -0.00034   0.00017   0.00037
    H40      Y    -0.51747  -0.08186   0.01791  -0.00030   0.00018   0.00031
    H40      Z    -0.05230  -0.00639   0.00130  -0.00002  -0.00001   0.00003
    H41      X     0.00187   0.00161  -0.00022  -0.00000  -0.00004   0.00001
    H41      Y    -0.00574  -0.00511   0.00133   0.00005  -0.00001   0.00001
    H41      Z    -0.02833  -0.02738   0.01071   0.00013   0.00014  -0.00007
    H42      X    -0.06380  -0.03930   0.02245   0.00013   0.00031  -0.00003
    H42      Y     0.08703   0.05341  -0.02860  -0.00014  -0.00043   0.00003
    H42      Z    -0.05169  -0.03324   0.01572   0.00010   0.00024  -0.00001
    H43      X     0.01457   0.00667  -0.00460  -0.00017   0.00024  -0.00001
    H43      Y     0.02904   0.01322  -0.00840  -0.00026   0.00032   0.00003
    H43      Z     0.00906   0.00434  -0.00291  -0.00007   0.00006  -0.00001
    H44      X    -0.00007   0.00015   0.00057   0.00001   0.00005   0.00025
    H44      Y     0.00007   0.00001  -0.00017   0.00007  -0.00003   0.00009
    H44      Z    -0.00174  -0.00375  -0.01175  -0.00047  -0.00047  -0.00243
    H45      X    -0.00088  -0.00151  -0.00272  -0.00048   0.00013  -0.00107
    H45      Y    -0.00136  -0.00270  -0.00570  -0.00088   0.00031  -0.00178
    H45      Z    -0.00046  -0.00071  -0.00026  -0.00035   0.00009  -0.00079
    H46      X    -0.00063  -0.00020   0.01251  -0.00208   0.00017  -0.00482
    H46      Y     0.00005   0.00002  -0.00105   0.00014  -0.00007   0.00026
    H46      Z     0.00026   0.00047  -0.00179   0.00044  -0.00001   0.00128
    H47      X     0.00459   0.04836   0.30787   0.00010   0.00184  -0.00017
    H47      Y    -0.00886  -0.09384  -0.60157  -0.00014  -0.00344   0.00032
    H47      Z     0.00468   0.05519   0.35420   0.00011   0.00205  -0.00019
    H48      X     0.00716   0.09996   0.49731  -0.00027   0.00612  -0.00064
    H48      Y    -0.00059  -0.01014  -0.05169   0.00007  -0.00077   0.00008
    H48      Z    -0.00268  -0.03736  -0.18547   0.00012  -0.00240   0.00027
    H49      X    -0.00140  -0.00480  -0.04296  -0.00024   0.00075  -0.00005
    H49      Y    -0.00171  -0.00167  -0.03364  -0.00036   0.00124  -0.00008
    H49      Z    -0.00074  -0.00130  -0.01526  -0.00014   0.00027  -0.00002
  
  vibration #          133       134       135       136       137       138
                 --------- --------- --------- --------- --------- ---------
  frequencies      3195.69   3199.65   3209.04   3209.81   3218.90   3242.02
  intensities        14.99     19.94     26.27     22.39      7.01     10.00
  reduc. mass         0.41      0.26      0.24      0.37      0.55      0.86
  force const         2.49      1.59      1.48      2.24      3.35      5.31
    P1       X     0.00002   0.00000  -0.00001   0.00003   0.00000  -0.00001
    P1       Y    -0.00000   0.00000   0.00001  -0.00000   0.00001   0.00002
    P1       Z    -0.00002   0.00001  -0.00002  -0.00002  -0.00001  -0.00010
    C3       X     0.00041   0.00000   0.00001   0.00015  -0.00001  -0.00070
    C3       Y    -0.00006  -0.00003  -0.00003  -0.00005  -0.00001  -0.00037
    C3       Z     0.00042   0.00014   0.00008   0.00031  -0.00013   0.00255
    C4       X    -0.00004   0.00001  -0.00000   0.00002  -0.00001   0.00013
    C4       Y    -0.00000   0.00001   0.00002  -0.00003   0.00000   0.00003
    C4       Z     0.00004  -0.00001   0.00001  -0.00000   0.00002  -0.00009
    C5       X    -0.00003   0.00002  -0.00002   0.00001  -0.00005   0.00005
    C5       Y     0.00001   0.00001   0.00000   0.00003   0.00002  -0.00003
    C5       Z     0.00003  -0.00001   0.00000  -0.00000   0.00001  -0.00011
    C6       X    -0.00013  -0.00035  -0.00044  -0.00009  -0.00034  -0.00004
    C6       Y    -0.00005  -0.00122  -0.00193   0.00036  -0.00215  -0.00000
    C6       Z    -0.00010  -0.00207  -0.00042   0.00004   0.00208   0.00003
    C7       X     0.00042   0.00914   0.00543  -0.00099  -0.00122   0.00003
    C7       Y     0.00192   0.04831   0.02890  -0.00548  -0.00653   0.00020
    C7       Z    -0.00096  -0.02416  -0.01662   0.00314   0.00322  -0.00012
    C8       X     0.00058   0.00424   0.00896  -0.00134  -0.00231   0.00003
    C8       Y     0.00258   0.01882   0.04079  -0.00618  -0.01059   0.00014
    C8       Z     0.00204   0.01751   0.02771  -0.00429  -0.00660   0.00011
    C9       X    -0.00006  -0.00074  -0.00002   0.00002  -0.00038  -0.00000
    C9       Y    -0.00002   0.00108  -0.00580   0.00087   0.00047  -0.00001
    C9       Z    -0.00210  -0.04118   0.04906  -0.00637  -0.02058   0.00014
    C10      X     0.00054   0.00620  -0.00265   0.00023   0.00582  -0.00002
    C10      Y     0.00290   0.03345  -0.01396   0.00110   0.03181  -0.00015
    C10      Z    -0.00131  -0.01387   0.00329  -0.00004  -0.01710   0.00007
    C11      X    -0.00029  -0.00328   0.00521  -0.00102   0.01244  -0.00003
    C11      Y    -0.00157  -0.01566   0.02423  -0.00487   0.05769  -0.00014
    C11      Z    -0.00076  -0.00875   0.01652  -0.00327   0.04248  -0.00012
    C12      X     0.00143  -0.00002   0.00032   0.00178   0.00007   0.00055
    C12      Y     0.00020   0.00011   0.00021   0.00014   0.00019  -0.00006
    C12      Z    -0.00141   0.00010  -0.00023  -0.00123   0.00001   0.00038
    C13      X    -0.04965   0.00259  -0.00561  -0.03763  -0.00103   0.00179
    C13      Y     0.00402  -0.00024   0.00050   0.00355   0.00010  -0.00019
    C13      Z    -0.03304   0.00180  -0.00433  -0.02891  -0.00100   0.00153
    C14      X     0.01830  -0.00244  -0.00890  -0.05654  -0.00111   0.00411
    C14      Y     0.00057  -0.00013  -0.00058  -0.00362  -0.00009   0.00010
    C14      Z    -0.00435   0.00090   0.00433   0.02758   0.00063  -0.00079
    C15      X     0.00276  -0.00015   0.00012   0.00105   0.00003   0.00336
    C15      Y     0.00736  -0.00050  -0.00068  -0.00417  -0.00004   0.00233
    C15      Z    -0.05339   0.00362   0.00494   0.03021   0.00032  -0.01686
    C16      X     0.00554  -0.00032  -0.00078  -0.00618  -0.00037  -0.06701
    C16      Y    -0.00097   0.00006   0.00013   0.00093   0.00004   0.00720
    C16      Z     0.00627  -0.00044  -0.00085  -0.00597  -0.00026  -0.04541
    C17      X    -0.00002   0.00014   0.00003   0.00007   0.00005   0.00011
    C17      Y     0.00001  -0.00013  -0.00002  -0.00007  -0.00003   0.00000
    C17      Z     0.00004   0.00041   0.00026  -0.00011  -0.00001  -0.00028
    C18      X    -0.00086   0.00012   0.00007   0.00070   0.00005   0.00276
    C18      Y    -0.00004   0.00005   0.00003  -0.00002   0.00001   0.00005
    C18      Z     0.00058  -0.00004  -0.00006  -0.00047  -0.00002  -0.00227
    C19      X     0.00000   0.00008   0.00002   0.00002   0.00002  -0.00013
    C19      Y     0.00001   0.00006   0.00005  -0.00003   0.00001   0.00001
    C19      Z    -0.00001   0.00005   0.00003  -0.00002   0.00001  -0.00019
    C20      X    -0.00001  -0.00000  -0.00002   0.00004   0.00001  -0.00004
    C20      Y     0.00001   0.00003   0.00004   0.00000   0.00005  -0.00001
    C20      Z    -0.00001  -0.00002  -0.00004   0.00001  -0.00006  -0.00015
    C21      X     0.00001   0.00026  -0.00045   0.00013  -0.00059   0.00001
    C21      Y    -0.00000   0.00009  -0.00015   0.00007  -0.00017  -0.00006
    C21      Z     0.00000   0.00009  -0.00022   0.00002  -0.00044  -0.00013
    C22      X    -0.00067   0.00006  -0.00002   0.00053  -0.00001   0.00260
    C22      Y     0.00024   0.00001   0.00004  -0.00008   0.00006  -0.00098
    C22      Z     0.00005  -0.00001  -0.00003  -0.00005  -0.00001  -0.00028
    H23      X    -0.00446  -0.10341  -0.06189   0.01141   0.01316  -0.00039
    H23      Y    -0.02144  -0.54914  -0.32860   0.06240   0.06974  -0.00198
    H23      Z     0.01073   0.26901   0.16407  -0.03103  -0.03434   0.00103
    H24      X    -0.00663  -0.05112  -0.09768   0.01494   0.02424  -0.00034
    H24      Y    -0.03020  -0.23153  -0.44387   0.06777   0.11028  -0.00160
    H24      Z    -0.02132  -0.16790  -0.30905   0.04744   0.07588  -0.00118
    H25      X     0.00021   0.00378  -0.00313   0.00035   0.00180  -0.00002
    H25      Y    -0.00167  -0.03568   0.04790  -0.00634  -0.01668   0.00013
    H25      Z     0.02384   0.46488  -0.54330   0.07063   0.21989  -0.00150
    H26      X    -0.00610  -0.06796   0.02609  -0.00199  -0.06408   0.00032
    H26      Y    -0.03296  -0.36874   0.14136  -0.01067  -0.34835   0.00169
    H26      Z     0.01564   0.17311  -0.06272   0.00446   0.16867  -0.00086
    H27      X     0.00367   0.03855  -0.06159   0.01219  -0.14562   0.00028
    H27      Y     0.01724   0.17514  -0.27875   0.05588  -0.65969   0.00146
    H27      Z     0.01188   0.12100  -0.19675   0.03943  -0.47042   0.00111
    H28      X     0.56707  -0.03008   0.06441   0.43084   0.01213  -0.01969
    H28      Y    -0.04710   0.00283  -0.00517  -0.03649  -0.00091   0.00171
    H28      Z     0.38759  -0.02040   0.04485   0.29982   0.00864  -0.01390
    H29      X    -0.19209   0.02638   0.09865   0.62725   0.01279  -0.03686
    H29      Y    -0.01120   0.00156   0.00617   0.03929   0.00086  -0.00214
    H29      Z     0.08513  -0.01207  -0.04683  -0.29830  -0.00626   0.01583
    H30      X    -0.03620   0.00234   0.00265   0.01599   0.00010  -0.01383
    H30      Y    -0.08362   0.00563   0.00742   0.04520   0.00049  -0.02373
    H30      Z     0.60560  -0.04054  -0.05353  -0.32714  -0.00353   0.17242
    H31      X    -0.08682   0.00570   0.01176   0.08714   0.00415   0.77010
    H31      Y     0.00980  -0.00065  -0.00131  -0.00963  -0.00042  -0.08193
    H31      Z    -0.06243   0.00424   0.00849   0.06183   0.00268   0.52321
    H32      X     0.00034   0.00083   0.00084  -0.00068  -0.00031  -0.00226
    H32      Y     0.00011  -0.00016  -0.00010  -0.00017  -0.00001  -0.00011
    H32      Z    -0.00020  -0.00064  -0.00079   0.00059   0.00037   0.00118
    H33      X     0.00010  -0.00085  -0.00015  -0.00050  -0.00017   0.00015
    H33      Y    -0.00020   0.00139   0.00007   0.00101   0.00025  -0.00032
    H33      Z    -0.00002  -0.00021  -0.00005  -0.00002  -0.00003  -0.00002
    H34      X    -0.00009  -0.00155  -0.00095   0.00029  -0.00001   0.00063
    H34      Y    -0.00001   0.00014   0.00016  -0.00010  -0.00003  -0.00002
    H34      Z    -0.00025  -0.00394  -0.00219   0.00067  -0.00017   0.00204
    H35      X     0.00773  -0.00068  -0.00068  -0.00627  -0.00033  -0.03088
    H35      Y    -0.00174   0.00017   0.00019   0.00140   0.00008   0.00832
    H35      Z    -0.00815   0.00074   0.00069   0.00667   0.00038   0.03199
    H36      X     0.00301  -0.00098  -0.00045  -0.00220  -0.00031  -0.00792
    H36      Y     0.00288  -0.00086  -0.00037  -0.00214  -0.00027  -0.00762
    H36      Z     0.00066  -0.00025  -0.00012  -0.00046  -0.00006  -0.00168
    H37      X     0.00043   0.00004   0.00021  -0.00067   0.00000  -0.00079
    H37      Y    -0.00129   0.00002  -0.00038   0.00169   0.00004   0.00301
    H37      Z     0.00019   0.00001   0.00012  -0.00025   0.00002  -0.00049
    H38      X    -0.00001  -0.00016  -0.00012   0.00012  -0.00001   0.00100
    H38      Y     0.00002   0.00009   0.00008  -0.00007   0.00000  -0.00007
    H38      Z     0.00000  -0.00061  -0.00034   0.00022  -0.00008   0.00249
    H39      X     0.00002   0.00008   0.00025  -0.00040  -0.00002   0.00041
    H39      Y    -0.00008  -0.00009  -0.00048   0.00080   0.00004  -0.00077
    H39      Z     0.00003   0.00003   0.00008  -0.00009   0.00001   0.00006
    H40      X     0.00002  -0.00094  -0.00033  -0.00006  -0.00023   0.00008
    H40      Y     0.00001  -0.00082  -0.00025  -0.00011  -0.00021   0.00023
    H40      Z    -0.00002  -0.00011  -0.00005   0.00001  -0.00003   0.00004
    H41      X     0.00000  -0.00000  -0.00005   0.00004  -0.00004  -0.00027
    H41      Y     0.00000   0.00006   0.00004   0.00004   0.00012   0.00027
    H41      Z     0.00001   0.00015   0.00022   0.00008   0.00051   0.00221
    H42      X     0.00014   0.00017   0.00039  -0.00020   0.00022   0.00031
    H42      Y    -0.00017  -0.00018  -0.00051   0.00032  -0.00033  -0.00042
    H42      Z     0.00011   0.00013   0.00032  -0.00019   0.00024   0.00021
    H43      X    -0.00007  -0.00015  -0.00001  -0.00034  -0.00024   0.00055
    H43      Y    -0.00005  -0.00026  -0.00003  -0.00056  -0.00044   0.00072
    H43      Z    -0.00001  -0.00008  -0.00002  -0.00013  -0.00011   0.00013
    H44      X     0.00000   0.00017  -0.00044   0.00008  -0.00053  -0.00012
    H44      Y     0.00001   0.00007  -0.00006   0.00005  -0.00002  -0.00004
    H44      Z    -0.00006  -0.00197   0.00398  -0.00046   0.00757   0.00142
    H45      X    -0.00003  -0.00087   0.00138  -0.00060   0.00177   0.00050
    H45      Y    -0.00004  -0.00154   0.00228  -0.00106   0.00297   0.00083
    H45      Z    -0.00001  -0.00066   0.00107  -0.00042   0.00151   0.00024
    H46      X    -0.00011  -0.00347   0.00594  -0.00140   0.00937  -0.00068
    H46      Y     0.00002   0.00021  -0.00031   0.00019  -0.00042  -0.00006
    H46      Z     0.00001   0.00078  -0.00146   0.00033  -0.00151   0.00002
    H47      X     0.00127  -0.00003   0.00032  -0.00059   0.00035  -0.00471
    H47      Y    -0.00242   0.00009  -0.00061   0.00116  -0.00061   0.00669
    H47      Z     0.00147  -0.00003   0.00039  -0.00073   0.00042  -0.00464
    H48      X     0.00668  -0.00059  -0.00001  -0.00511   0.00005  -0.02736
    H48      Y    -0.00094   0.00011   0.00002   0.00085   0.00007   0.00332
    H48      Z    -0.00259   0.00025  -0.00005   0.00200  -0.00006   0.01028
    H49      X     0.00082  -0.00024  -0.00005  -0.00123  -0.00029  -0.00342
    H49      Y     0.00124  -0.00037  -0.00002  -0.00176  -0.00041  -0.00407
    H49      Z     0.00019  -0.00012   0.00000  -0.00038  -0.00017  -0.00024
  
  Number of imaginary frequencies:   0
   
  Writing vibrational animation data to PL139.vib
  Writing IR vibrational spectrum data to PL139_vib.spm
  rotational symmetry number:  1

  rotational temperatures (K):      0.017211      0.011704      0.010290
   
  The Quasi-Harmonic approximation will be applied to compute
  vibrational constributions to thermodynamic properties.
  Frequencies will be adjusted to a minimum value of  100.00 cm^-1.

  vibrational temperatures:
       mode:      1        2        3        4        5        6
  temp. (K):   143.88   143.88   143.88   143.88   143.88   143.88
   
       mode:      7        8        9       10       11       12
  temp. (K):   165.58   201.73   232.14   302.35   314.83   341.87
   
       mode:     13       14       15       16       17       18
  temp. (K):   351.18   368.85   380.69   392.66   416.34   448.68
   
       mode:     19       20       21       22       23       24
  temp. (K):   462.67   466.14   480.91   489.72   495.19   520.34
   
       mode:     25       26       27       28       29       30
  temp. (K):   547.73   569.73   582.25   587.81   596.51   605.72
   
       mode:     31       32       33       34       35       36
  temp. (K):   682.80   711.69   731.18   800.88   812.90   839.98
   
       mode:     37       38       39       40       41       42
  temp. (K):   881.06   902.31   908.43   998.71  1040.75  1103.60
   
       mode:     43       44       45       46       47       48
  temp. (K):  1110.26  1125.01  1146.81  1198.74  1199.20  1248.64
   
       mode:     49       50       51       52       53       54
  temp. (K):  1305.26  1349.92  1374.90  1376.88  1385.02  1389.09
   
       mode:     55       56       57       58       59       60
  temp. (K):  1407.05  1411.74  1419.24  1431.58  1457.88  1463.09
   
       mode:     61       62       63       64       65       66
  temp. (K):  1465.51  1481.52  1501.21  1515.96  1517.75  1524.22
   
       mode:     67       68       69       70       71       72
  temp. (K):  1534.17  1540.64  1597.35  1607.13  1673.91  1730.34
   
       mode:     73       74       75       76       77       78
  temp. (K):  1737.06  1749.05  1756.26  1757.95  1772.47  1782.20
   
       mode:     79       80       81       82       83       84
  temp. (K):  1797.27  1803.89  1852.96  1894.77  1931.75  1938.47
   
       mode:     85       86       87       88       89       90
  temp. (K):  1978.55  2042.78  2048.49  2051.93  2052.63  2090.38
   
       mode:     91       92       93       94       95       96
  temp. (K):  2100.41  2123.50  2145.18  2163.64  2165.01  2171.33
   
       mode:     97       98       99      100      101      102
  temp. (K):  2173.51  2177.46  2183.97  2185.94  2199.79  2204.13
   
       mode:    103      104      105      106      107      108
  temp. (K):  2211.68  2218.44  2227.68  2230.83  2235.83  2337.44
   
       mode:    109      110      111      112      113      114
  temp. (K):  2369.66  2380.97  2410.30  4361.98  4362.89  4364.60
   
       mode:    115      116      117      118      119      120
  temp. (K):  4365.50  4371.42  4375.26  4465.17  4466.68  4468.70
   
       mode:    121      122      123      124      125      126
  temp. (K):  4475.65  4482.55  4485.61  4503.45  4505.48  4514.66
   
       mode:    127      128      129      130      131      132
  temp. (K):  4525.07  4533.58  4546.67  4576.27  4581.07  4588.75
   
       mode:    133      134      135      136      137      138
  temp. (K):  4597.87  4603.58  4617.08  4618.20  4631.28  4664.54
   
   
  Thermodynamic properties calculated assuming an ideal gas

  In the table below, the units for temperature
  are kelvins, the units for U, H, and G are
  kcal/mol and the units for Cv and S are cal/(mol K)

  The zero point energy (ZPE):    264.694 kcal/mol
  is not included in U, H, or G in the table below
  
 
  =============================================================================
  Thermodynamic properties for P = 1.00E+00 atm, calculated at   1 temperatures


  T =   298.15 K, P = 1.00E+00 atm
   
                  U         Cv          S          H          G        ln(Q)
              =========  =========  =========  =========  =========  =========
  trans.          0.889      2.981     42.975      1.481    -11.332   19.12570
  rot.            0.889      2.981     34.105      0.889     -9.280   15.66209
  vib.           11.505     80.227     67.210     11.505     -8.534   14.40316
  elec.           0.000      0.000      0.000      0.000      0.000    0.00000
  ----------------------------------------------------------------------------
  total          13.282     86.189    144.289     13.875    -29.145   49.19095
   
   Total internal energy, Utot(SCFE + ZPE + U):   -1119.014871 hartrees
   Total enthalpy, Htot (Utot + nRT), with n=1:   -1119.013926 hartrees
    Total Gibbs free energy, Gtot (Htot - T*S):   -1119.082483 hartrees
   
  end of program freq
   
 Time(freq)  user:       0.287  user+sys:       0.287  wallclock:       0.401
  
  start of program post
  
  Writing input files for PBF
  end of program post
   
 Time(post)  user:       0.183  user+sys:       0.183  wallclock:       0.118

 Total cpu seconds     user:    9673.963   user+sys:    9673.963
  
 Total elapsed time:    5537 seconds

Job PL139 completed on bp1-compute082.data.bp.acrc.priv at Thu Mar 27 11:39:02 2025
