Job red_elim_N_trans_L1_PL139 started on bp1-compute052.data.bp.acrc.priv at Wed Apr 30 05:12:00 2025
jobid: bp1-compute052-0-6811a30b

  +--------------------------------------------------------------------+
  |  Jaguar version 12.5, release 138                                  |
  |                                                                    |
  |  Copyright Schrodinger, Inc.                                       |
  |  All Rights Reserved.                                              |
  |                                                                    |
  |  The following have contributed to Jaguar (listed alphabetically): |
  |  Ty Balduf, Mike Beachy, Chandler Bennett, Art Bochevarov,         |
  |  Dale Braden, Yixiang Cao, Alan Chien, Chris Cortis,               |
  |  Rich Friesner, Jim Furness, Bill Goddard, Hod Greeley,            |
  |  Tom Hughes, Leif Jacobson, Jean-Marc Langlois, Daniel Levine,     |
  |  Rob Murphy, Dean Philipp, Tom Pollard, Murco Ringnalda,           |
  |  Daniel Mainz, Pablo Videla, Mark Watson, Haoyu Yu.                |
  |                                                                    |
  |  Use of this program should be acknowledged in publications as:    |
  |                                                                    |
  |  Jaguar, version 12.5, Schrodinger, Inc., New York, NY, 2024.      |
  |                                                                    |
  |  A. D. Bochevarov, E. Harder, T. F. Hughes, J. R. Greenwood,       |
  |  D. A. Braden, D. M. Philipp, D. Rinaldo, M. D. Halls,             |
  |  J. Zhang, R. A. Friesner, "Jaguar: A High-Performance Quantum     |
  |  Chemistry Software Program with Strengths in Life and Materials   |
  |  Sciences", Int. J. Quantum Chem., 2013, 113(18), 2110-2142.       |
  +--------------------------------------------------------------------+
  
  start of program pre
  
  Job name: red_elim_N_trans_L1_PL139
  Executables used: /software/local/apps/schrodinger2024-3/jaguar-v12.5/bin/Linux-x86_64
  Temporary files : /tmp/ar21627/red_elim_N_trans_L1_PL139#bp1-compute052-0-6811a30b
  Basis file : using default basis file from /software/local/apps/schrodinger2024-3
  Maestro file (input):  red_elim_N_trans_L1_PL139.mae
  Maestro file (output): red_elim_N_trans_L1_PL139.01.mae
  
 Contents of input file: &gen and (if present) &atomic sections only
 ----------------Contents start----------------
&gen
dftname=b3pw91-d3
basis=6-31G*
numd=5
ip11=2
iaccg=3
isolv=2
igeopt=1
solvent=benzene
ifreq=1
&
&atomic
atom basis
Pd2 lacv3p*
&
 -----------------Contents end-----------------
 
  PS calculation requested. Using PS version of 6-31g*
  basis set:               non_standard                    
  net molecular charge:    0
  multiplicity:            1
  
  Using up to   4 threads per process
  
  This run will use ECP on 1 atom
  number of basis functions....          599
  
 Input geometry:
                                   angstroms
  atom               x                 y                 z
  P1            0.0000000000      0.0000000000      0.0000000000 
  Pd2           0.0000000000      0.0000000000      2.3923182082 
  N2           -2.0061584570      0.2748095249      2.1745882742 
  C16          -0.2185486040      0.0304100146      7.2562187795 
  C17          -0.3739637732     -1.1586934139      6.5347188772 
  C18          -0.3551563156     -1.1625167547      5.1371944723 
  C19          -0.1655299463      0.0190976362      4.4021695345 
  C20          -0.0235032197      1.2094790821      5.1348464771 
  C21          -0.0449201600      1.2152327144      6.5306472385 
  F10          -0.2179784058      0.0373876141      8.5892003953 
  H23          -0.5226756020     -2.0948430412      7.0741070950 
  H24          -0.5044168981     -2.1078422854      4.6153218170 
  H25           0.0913509784      2.1580344044      4.6104898253 
  H26           0.0694233143      2.1573307428      7.0679212173 
  H18          -2.5576762501     -0.6608563437      2.0003542185 
  C22          -3.7328508809      2.4406283790      5.4205510973 
  C23          -3.2437979480      3.1290177037      4.2981422519 
  C24          -2.6754693755      2.4161537793      3.2297565963 
  C25          -2.5961937361      1.0149005303      3.2837797861 
  C26          -3.0852062042      0.3264604499      4.4061125628 
  C27          -3.6535752415      1.0393751299      5.4745742872 
  H22          -4.1793398427      3.0006668653      6.2598937335 
  H27          -3.3061389141      4.2299159439      4.2558188718 
  H28          -2.2912809332      2.9569627762      2.3480145026 
  H29          -3.0228888607     -0.7743011380      4.4484636576 
  H30          -4.0377637019      0.4985661317      6.3563163721 
  C3            1.4037020000      0.0000000000     -0.5287930000 
  C4           -0.7175880000      1.2185950000     -0.5000930000 
  C5           -0.6270920000     -1.2611540000     -0.5159910000 
  C6            2.7260500000     -0.4853270000      1.6271060000 
  C7            3.2037415467      0.4890420836      2.5421914869 
  C8            3.3427076298      0.2842074305      3.9252858075 
  C9            3.0029181845     -0.9436439155      4.4993369091 
  C10           2.5252920939     -1.9426734330      3.6472603508 
  C11           2.3990175195     -1.7026668968      2.2690586205 
  C12           2.6019460000     -0.2304150000      0.2176440000 
  C13           3.7878870000     -0.1958030000     -0.5613940000 
  C14           3.8431800000      0.0372740000     -1.9422500000 
  C15           2.6594980000      0.2557690000     -2.6437450000 
  C40           1.4669940000      0.2303350000     -1.9171010000 
  C41          -0.5586608077      2.3478307734      0.5425391951 
  C42          -0.3676570741      1.7920205379     -1.8914513506 
  C43          -2.2238996867      0.8673437739     -0.5352149380 
  C44          -1.8420455249     -1.6822642981      0.3364895815 
  C45           0.4451003022     -2.3612161196     -0.3366847072 
  C46          -1.0349867190     -1.2797512987     -2.0043505052 
  H47           3.5106140782      1.4986757485      2.2438585944 
  H48           3.7228140409      1.0933906243      4.5725414540 
  H49           3.1073365851     -1.1176845047      5.5835144817 
  H50           2.2473488768     -2.9241184415      4.0688263639 
  H51           2.0137140197     -2.5696189083      1.7348519269 
  H52           4.7885530000     -0.3513670000     -0.1424820000 
  H53           4.8080470000      0.0488480000     -2.4782120000 
  H54           2.6670950000      0.4405860000     -3.7314160000 
  H31           0.5556520000      0.4025780000     -2.4991290000 
  H32           0.4884555487      2.7194232794      0.5956297160 
  H33          -1.1957568435      3.2286337791      0.2989938843 
  H34          -0.8443949024      2.0047861928      1.5634355202 
  H35           0.6756456014      2.1606848799     -1.9717905623 
  H36          -0.5442680998      1.0559653142     -2.7041838719 
  H37          -1.0091624863      2.6705548804     -2.1309447128 
  H38          -2.5831195346      0.5067842260      0.4561827746 
  H39          -2.8522573957      1.7459147856     -0.8083027686 
  H40          -2.4466316348      0.0679968218     -1.2763911078 
  H41          -1.5898587622     -1.6993460243      1.4215205617 
  H42          -2.7050292035     -0.9961599077      0.1993314953 
  H43          -2.2030347133     -2.7006484131      0.0653874415 
  H44           0.7483935668     -2.4679856686      0.7301639451 
  H45           0.0788561636     -3.3578663249     -0.6739905858 
  H46           1.3654378338     -2.1361684659     -0.9227347681 
  H71          -1.7793602670     -0.4950254644     -2.2532178227 
  H72          -0.1579051443     -1.1589900661     -2.6777748221 
  H73          -1.5017931481     -2.2527926271     -2.2799521243 
   
  principal moments of inertia:
        amu*angstrom^2:              2847.10553              5610.34369              7124.58110
                g*cm^2:          4.72772937E-37          9.31619372E-37          1.18306438E-36
   
  rotational constants:
               cm^(-1):      0.00592097      0.00300474      0.00236612
                   GHz:      0.17750624      0.09007987      0.07093456
   
  Molecular weight:     591.17 amu
   
  Stoichiometry: PdC32PNH37F
  Molecular Point Group: C1      
  Point Group used: C1
  
 
Number of optimization coordinates:   248
Number of independent coordinates:    248
Number of non-redundant coordinates:  213
Number of frozen coordinates:           0
Number of harmonic constraints:         0
 
Number of geometric degrees of freedom:   213
Maximum geometric degrees of freedom:     213
 " " " " " excluding dummy atoms:         213
 
 
  bond lengths (angstroms):
 
 P1      -Pd2     :   2.392318      P1      -C3      :   1.500000
 P1      -C4      :   1.500000      P1      -C5      :   1.500000
 Pd2     -N2      :   2.036565      Pd2     -C19     :   2.016747
 N2      -H18     :   1.100000      N2      -C25     :   1.458143
 C16     -C17     :   1.399530      C16     -C21     :   1.400145
 C16     -F10     :   1.333000      C17     -C18     :   1.397656
 C17     -H23     :   1.090610      C18     -C19     :   1.404433
 C18     -H24     :   1.090078      C19     -C20     :   1.404989
 C20     -C21     :   1.395977      C20     -H25     :   1.089908
 C21     -H26     :   1.090544      C22     -C23     :   1.404583
 C22     -C27     :   1.404533      C22     -H22     :   1.103400
 C23     -C24     :   1.404500      C23     -H27     :   1.103474
 C24     -C25     :   1.404533      C24     -H28     :   1.103424
 C25     -C26     :   1.404533      C26     -C27     :   1.404600
 C26     -H29     :   1.103337      C27     -H30     :   1.103424
 C3      -C12     :   1.430401      C3      -C40     :   1.408708
 C4      -C41     :   1.545158      C4      -C42     :   1.545039
 C4      -C43     :   1.547122      C5      -C44     :   1.542780
 C5      -C45     :   1.546572      C5      -C46     :   1.543353
 C6      -C7      :   1.419495      C6      -C11     :   1.414556
 C6      -C12     :   1.437694      C7      -C8      :   1.405069
 C7      -H47     :   1.096601      C8      -C9      :   1.397358
 C8      -H48     :   1.103720      C9      -C10     :   1.397219
 C9      -H49     :   1.103011      C10     -C11     :   1.404631
 C10     -H50     :   1.103723      C11     -H51     :   1.088780
 C12     -C13     :   1.419350      C13     -C14     :   1.401480
 C13     -H52     :   1.095911      C14     -C15     :   1.393176
 C14     -H53     :   1.103792      C15     -C40     :   1.396683
 C15     -H54     :   1.103287      C40     -H31     :   1.094974
 C41     -H32     :   1.112363      C41     -H33     :   1.114011
 C41     -H34     :   1.114250      C42     -H35     :   1.109436
 C42     -H36     :   1.110632      C42     -H37     :   1.113871
 C43     -H38     :   1.114411      C43     -H39     :   1.114135
 C43     -H40     :   1.112613      C44     -H41     :   1.114084
 C44     -H42     :   1.110987      C44     -H43     :   1.113964
 C45     -H44     :   1.114250      C45     -H45     :   1.114101
 C45     -H46     :   1.114057      C46     -H71     :   1.109875
 C46     -H72     :   1.112365      C46     -H73     :   1.113855
 
  bond angles:
 
 C3      -P1      -Pd2     : 110.642051  C4      -P1      -Pd2     : 109.474992
 C4      -P1      -C3      : 109.277784  C5      -P1      -Pd2     : 110.120396
 C5      -P1      -C3      : 105.661559  C5      -P1      -C4      : 111.614203
 N2      -Pd2     -P1      :  83.862758  C19     -Pd2     -P1      : 175.260696
 C19     -Pd2     -N2      :  91.399003  H18     -N2      -Pd2     : 113.331428
 C25     -N2      -Pd2     : 112.691549  C25     -N2      -H18     : 110.446772
 C21     -C16     -C17     : 117.748983  F10     -C16     -C17     : 121.333471
 F10     -C16     -C21     : 120.912073  C18     -C17     -C16     : 121.085167
 H23     -C17     -C16     : 119.306782  H23     -C17     -C18     : 119.604803
 C19     -C18     -C17     : 121.522045  H24     -C18     -C17     : 118.635292
 H24     -C18     -C19     : 119.838237  C18     -C19     -Pd2     : 121.647118
 C20     -C19     -Pd2     : 121.293709  C20     -C19     -C18     : 116.972232
 C21     -C20     -C19     : 121.557740  H25     -C20     -C19     : 119.810802
 H25     -C20     -C21     : 118.624739  C20     -C21     -C16     : 121.101860
 H26     -C21     -C16     : 119.256721  H26     -C21     -C20     : 119.640461
 C27     -C22     -C23     : 120.002746  H22     -C22     -C23     : 120.000393
 H22     -C22     -C27     : 119.996860  C24     -C23     -C22     : 120.000393
 H27     -C23     -C22     : 119.995826  H27     -C23     -C24     : 120.003781
 C25     -C24     -C23     : 119.996860  H28     -C24     -C23     : 119.999284
 H28     -C24     -C25     : 120.003855  C24     -C25     -N2      : 119.996860
 C26     -C25     -N2      : 119.996860  C26     -C25     -C24     : 120.006279
 C27     -C26     -C25     : 119.996860  H29     -C26     -C25     : 120.001259
 H29     -C26     -C27     : 120.001881  C26     -C27     -C22     : 119.996860
 H30     -C27     -C22     : 120.003855  H30     -C27     -C26     : 119.999284
 C12     -C3      -P1      : 126.866735  C40     -C3      -P1      : 112.921406
 C40     -C3      -C12     : 120.197482  C41     -C4      -P1      : 108.635479
 C42     -C4      -P1      : 119.564083  C42     -C4      -C41     : 108.247562
 C43     -C4      -P1      : 106.792043  C43     -C4      -C41     : 106.342742
 C43     -C4      -C42     : 106.518855  C44     -C5      -P1      : 111.631893
 C45     -C5      -P1      : 105.564318  C45     -C5      -C44     : 106.722903
 C46     -C5      -P1      : 116.895060  C46     -C5      -C44     : 108.750722
 C46     -C5      -C45     : 106.646205  C11     -C6      -C7      : 112.083859
 C12     -C6      -C7      : 122.638665  C12     -C6      -C11     : 125.277476
 C8      -C7      -C6      : 124.596171  H47     -C7      -C6      : 123.420160
 H47     -C7      -C8      : 111.983632  C9      -C8      -C7      : 120.559660
 H48     -C8      -C7      : 120.294259  H48     -C8      -C9      : 119.146078
 C10     -C9      -C8      : 117.443483  H49     -C9      -C8      : 121.293605
 H49     -C9      -C10     : 121.262909  C11     -C10     -C9      : 120.458961
 H50     -C10     -C9      : 119.271939  H50     -C10     -C11     : 120.269097
 C10     -C11     -C6      : 124.857824  H51     -C11     -C6      : 122.983415
 H51     -C11     -C10     : 112.158723  C6      -C12     -C3      : 127.767778
 C13     -C12     -C3      : 114.179167  C13     -C12     -C6      : 118.053050
 C14     -C13     -C12     : 125.296897  H52     -C13     -C12     : 123.344249
 H52     -C13     -C14     : 111.358848  C15     -C14     -C13     : 119.253491
 H53     -C14     -C13     : 120.974078  H53     -C14     -C15     : 119.772406
 C40     -C15     -C14     : 117.425968  H54     -C15     -C14     : 121.118955
 H54     -C15     -C40     : 121.455055  C15     -C40     -C3      : 123.646561
 H31     -C40     -C3      : 120.808706  H31     -C40     -C15     : 115.544693
 H32     -C41     -C4      : 111.910845  H33     -C41     -C4      : 111.807544
 H33     -C41     -H32     : 106.538408  H34     -C41     -C4      : 111.522463
 H34     -C41     -H32     : 107.488352  H34     -C41     -H33     : 107.281718
 H35     -C42     -C4      : 113.673662  H36     -C42     -C4      : 112.148234
 H36     -C42     -H35     : 108.467982  H37     -C42     -C4      : 110.849242
 H37     -C42     -H35     : 105.303521  H37     -C42     -H36     : 105.890065
 H38     -C43     -C4      : 111.536748  H39     -C43     -C4      : 112.063982
 H39     -C43     -H38     : 106.941488  H40     -C43     -C4      : 111.909518
 H40     -C43     -H38     : 107.196505  H40     -C43     -H39     : 106.879073
 H41     -C44     -C5      : 111.350636  H42     -C44     -C5      : 112.020047
 H42     -C44     -H41     : 107.790504  H43     -C44     -C5      : 111.731603
 H43     -C44     -H41     : 107.239005  H43     -C44     -H42     : 106.428016
 H44     -C45     -C5      : 111.584181  H45     -C45     -C5      : 111.919355
 H45     -C45     -H44     : 107.076047  H46     -C45     -C5      : 111.595099
 H46     -C45     -H44     : 107.347393  H46     -C45     -H45     : 107.038637
 H71     -C46     -C5      : 112.642254  H72     -C46     -C5      : 111.970515
 H72     -C46     -H71     : 108.440249  H73     -C46     -C5      : 111.094202
 H73     -C46     -H71     : 106.325725  H73     -C46     -H72     : 105.991230
 
  torsional angles:
 
 P1      -Pd2     -N2      -H18     :  82.697021
 P1      -Pd2     -N2      -C25     :-150.953049
 P1      -Pd2     -C19     -C18     :  90.381529
 P1      -Pd2     -C19     -C20     : -93.112019
 P1      -C3      -C12     -C6      :  -1.244791
 P1      -C3      -C12     -C13     : 178.729711
 P1      -C3      -C40     -C15     :-178.962339
 P1      -C3      -C40     -H31     :   0.961507
 P1      -C4      -C41     -H32     :  69.066294
 P1      -C4      -C41     -H33     :-171.500578
 P1      -C4      -C41     -H34     : -51.385074
 P1      -C4      -C42     -H35     : -63.625205
 P1      -C4      -C42     -H36     :  59.871656
 P1      -C4      -C42     -H37     : 177.992778
 P1      -C4      -C43     -H38     :  54.960151
 P1      -C4      -C43     -H39     : 174.826861
 P1      -C4      -C43     -H40     : -65.126497
 P1      -C5      -C44     -H41     : -50.476119
 P1      -C5      -C44     -H42     :  70.318293
 P1      -C5      -C44     -H43     :-170.366999
 P1      -C5      -C45     -H44     :  59.004770
 P1      -C5      -C45     -H45     : 178.976975
 P1      -C5      -C45     -H46     : -61.091110
 P1      -C5      -C46     -H71     : -60.037413
 P1      -C5      -C46     -H72     :  62.500013
 P1      -C5      -C46     -H73     :-179.204233
 Pd2     -P1      -C3      -C12     :  11.615731
 Pd2     -P1      -C3      -C40     :-169.774349
 Pd2     -P1      -C4      -C41     :  29.005157
 Pd2     -P1      -C4      -C42     : 153.839333
 Pd2     -P1      -C4      -C43     : -85.321688
 Pd2     -P1      -C5      -C44     :  38.890670
 Pd2     -P1      -C5      -C45     : -76.690285
 Pd2     -P1      -C5      -C46     : 164.969336
 Pd2     -N2      -C25     -C24     :  90.105271
 Pd2     -N2      -C25     -C26     : -89.894729
 Pd2     -C19     -C18     -C17     : 175.358092
 Pd2     -C19     -C18     -H24     :  -5.417776
 Pd2     -C19     -C20     -C21     :-175.508721
 Pd2     -C19     -C20     -H25     :   5.447408
 N2      -Pd2     -P1      -C3      : 172.200000
 N2      -Pd2     -P1      -C4      :  51.707656
 N2      -Pd2     -P1      -C5      : -71.361751
 N2      -Pd2     -C19     -C18     :  91.593634
 N2      -Pd2     -C19     -C20     : -91.899915
 N2      -C25     -C24     -C23     : 180.000000
 N2      -C25     -C24     -H28     :   0.000001
 N2      -C25     -C26     -C27     : 180.000000
 N2      -C25     -C26     -H29     :   0.000000
 C16     -C17     -C18     -C19     :   0.715588
 C16     -C17     -C18     -H24     :-178.517609
 C16     -C21     -C20     -C19     :  -0.434505
 C16     -C21     -C20     -H25     : 178.620373
 C17     -C16     -C21     -C20     :  -0.193424
 C17     -C16     -C21     -H26     : 179.449184
 C17     -C18     -C19     -C20     :  -1.292430
 C18     -C17     -C16     -C21     :   0.055695
 C18     -C17     -C16     -F10     :-179.100613
 C18     -C19     -C20     -C21     :   1.154437
 C18     -C19     -C20     -H25     :-177.889434
 C19     -Pd2     -P1      -C3      : 173.418729
 C19     -Pd2     -P1      -C4      :  52.926385
 C19     -Pd2     -P1      -C5      : -70.143022
 C19     -Pd2     -N2      -H18     : -97.202263
 C19     -Pd2     -N2      -C25     :  29.147667
 C19     -C18     -C17     -H23     :-179.944664
 C19     -C20     -C21     -H26     : 179.924240
 C20     -C19     -C18     -H24     : 177.931702
 C20     -C21     -C16     -F10     : 178.966622
 C21     -C16     -C17     -H23     :-179.285990
 F10     -C16     -C17     -H23     :   1.557702
 F10     -C16     -C21     -H26     :  -1.390769
 H23     -C17     -C18     -H24     :   0.822139
 H25     -C20     -C21     -H26     :  -1.020882
 H18     -N2      -C25     -C24     :-142.012991
 H18     -N2      -C25     -C26     :  37.987009
 C22     -C23     -C24     -C25     :   0.000000
 C22     -C23     -C24     -H28     : 179.999999
 C22     -C27     -C26     -C25     :   0.000000
 C22     -C27     -C26     -H29     : 179.999999
 C23     -C22     -C27     -C26     :   0.000000
 C23     -C22     -C27     -H30     : 179.999999
 C23     -C24     -C25     -C26     :   0.000000
 C24     -C23     -C22     -C27     :   0.000000
 C24     -C23     -C22     -H22     :-179.999999
 C24     -C25     -C26     -C27     :   0.000000
 C24     -C25     -C26     -H29     : 180.000000
 C25     -C24     -C23     -H27     :-179.999999
 C25     -C26     -C27     -H30     : 180.000000
 C26     -C25     -C24     -H28     :-179.999999
 C26     -C27     -C22     -H22     : 180.000000
 C27     -C22     -C23     -H27     : 179.999999
 H22     -C22     -C23     -H27     :  -0.000001
 H22     -C22     -C27     -H30     :   0.000000
 H27     -C23     -C24     -H28     :  -0.000001
 H29     -C26     -C27     -H30     :   0.000001
 C3      -P1      -C4      -C41     : -92.314883
 C3      -P1      -C4      -C42     :  32.519293
 C3      -P1      -C4      -C43     : 153.358273
 C3      -P1      -C5      -C44     : 158.404204
 C3      -P1      -C5      -C45     :  42.823249
 C3      -P1      -C5      -C46     : -75.517131
 C3      -C12     -C6      -C7      :-105.457153
 C3      -C12     -C6      -C11     :  74.547585
 C3      -C12     -C13     -C14     :  -0.059613
 C3      -C12     -C13     -H52     : 179.909160
 C3      -C40     -C15     -C14     :   0.107798
 C3      -C40     -C15     -H54     :-179.945215
 C4      -P1      -C3      -C12     : 132.225580
 C4      -P1      -C3      -C40     : -49.164500
 C4      -P1      -C5      -C44     : -82.917219
 C4      -P1      -C5      -C45     : 161.501826
 C4      -P1      -C5      -C46     :  43.161446
 C5      -P1      -C3      -C12     :-107.553020
 C5      -P1      -C3      -C40     :  71.056900
 C5      -P1      -C4      -C41     : 151.184944
 C5      -P1      -C4      -C42     : -83.980880
 C5      -P1      -C4      -C43     :  36.858099
 C6      -C7      -C8      -C9      :  -0.011981
 C6      -C7      -C8      -H48     : 179.970654
 C6      -C11     -C10     -C9      :   0.040255
 C6      -C11     -C10     -H50     :-179.980554
 C6      -C12     -C3      -C40     :-179.763430
 C6      -C12     -C13     -C14     : 179.917547
 C6      -C12     -C13     -H52     :  -0.113679
 C7      -C6      -C11     -C10     :  -0.074732
 C7      -C6      -C11     -H51     : 179.848321
 C7      -C6      -C12     -C13     :  74.569205
 C7      -C8      -C9      -C10     :  -0.029064
 C7      -C8      -C9      -H49     : 179.990200
 C8      -C7      -C6      -C11     :   0.060605
 C8      -C7      -C6      -C12     :-179.935221
 C8      -C9      -C10     -C11     :   0.015975
 C8      -C9      -C10     -H50     :-179.963423
 C9      -C8      -C7      -H47     :-179.943483
 C9      -C10     -C11     -H51     :-179.890053
 C10     -C9      -C8      -H48     : 179.988104
 C10     -C11     -C6      -C12     : 179.920963
 C11     -C6      -C7      -H47     : 179.984505
 C11     -C6      -C12     -C13     :-105.426058
 C11     -C10     -C9      -H49     : 179.996718
 C12     -C3      -C40     -C15     :  -0.249043
 C12     -C3      -C40     -H31     : 179.674803
 C12     -C6      -C7      -H47     :  -0.011321
 C12     -C6      -C11     -H51     :  -0.155984
 C12     -C13     -C14     -C15     :  -0.073105
 C12     -C13     -C14     -H53     : 179.984555
 C13     -C12     -C3      -C40     :   0.211072
 C13     -C14     -C15     -C40     :   0.051014
 C13     -C14     -C15     -H54     :-179.896162
 C14     -C15     -C40     -H31     :-179.819709
 C15     -C14     -C13     -H52     : 179.954905
 C40     -C15     -C14     -H53     : 179.994058
 C41     -C4      -C42     -H35     :  61.394213
 C41     -C4      -C42     -H36     :-175.108926
 C41     -C4      -C42     -H37     : -56.987804
 C41     -C4      -C43     -H38     : -60.909139
 C41     -C4      -C43     -H39     :  58.957571
 C41     -C4      -C43     -H40     : 179.004213
 C42     -C4      -C41     -H32     : -62.191818
 C42     -C4      -C41     -H33     :  57.241310
 C42     -C4      -C41     -H34     : 177.356814
 C42     -C4      -C43     -H38     :-176.206687
 C42     -C4      -C43     -H39     : -56.339978
 C42     -C4      -C43     -H40     :  63.706664
 C43     -C4      -C41     -H32     :-176.313205
 C43     -C4      -C41     -H33     : -56.880076
 C43     -C4      -C41     -H34     :  63.235427
 C43     -C4      -C42     -H35     : 175.399296
 C43     -C4      -C42     -H36     : -61.103843
 C43     -C4      -C42     -H37     :  57.017279
 C44     -C5      -C45     -H44     : -59.893717
 C44     -C5      -C45     -H45     :  60.078488
 C44     -C5      -C45     -H46     :-179.989597
 C44     -C5      -C46     -H71     :  67.458488
 C44     -C5      -C46     -H72     :-170.004085
 C44     -C5      -C46     -H73     : -51.708331
 C45     -C5      -C44     -H41     :  64.392944
 C45     -C5      -C44     -H42     :-174.812645
 C45     -C5      -C44     -H43     : -55.497936
 C45     -C5      -C46     -H71     :-177.791448
 C45     -C5      -C46     -H72     : -55.254022
 C45     -C5      -C46     -H73     :  63.041732
 C46     -C5      -C44     -H41     : 179.093085
 C46     -C5      -C44     -H42     : -60.112503
 C46     -C5      -C44     -H43     :  59.202205
 C46     -C5      -C45     -H44     :-176.007825
 C46     -C5      -C45     -H45     : -56.035620
 C46     -C5      -C45     -H46     :  63.896294
 H47     -C7      -C8      -H48     :   0.039152
 H48     -C8      -C9      -H49     :   0.007368
 H49     -C9      -C10     -H50     :   0.017320
 H50     -C10     -C11     -H51     :   0.089139
 H52     -C13     -C14     -H53     :   0.012565
 H53     -C14     -C15     -H54     :   0.046882
 H54     -C15     -C40     -H31     :   0.127278
 
  nuclear repulsion energy.......          4855.960435241 hartrees
  
  Detected an organometallic with only one TM atom. 
  
  Oxidation state on metal       2 is     2
  Formal multiplet on metal      2 is     1
  Formal charge on ligand        3 is    -1
  Formal multiplet on ligand     3 is     1
  Formal charge on ligand        4 is    -1
  Formal multiplet on ligand     4 is     1
  
 
  Will use High-Quality Initial guess for organometallics
       including d-d repulsion (iguess=30)
 
 Non-default options chosen:
   SCF calculation type: DFT(b3pw91-d3)              
   DFT=Becke_3_Parameter/HF+Slater+Becke88+PW91+PW-GGAIIC (B3PW91-D3)
   Geometry will be optimized in redundant internal coordinates
   Solvation energy will be computed using PBF
     -solute cavity energy will not be included
     -surface area terms will not be included
   Vibrational frequencies and related properties will be computed
      from analytic second derivatives
   IR intensities will be computed
   Thermochemical properties will be computed
   Maximum number of geometry steps: 100
   Scaling standard convergence criteria by a factor of   5.00
   Solvent: benzene                                                         
   Internal dielectric constant:    1.000
   Continuum dielectric constant:   2.283
   Solvent probe molecule radius:   2.600
  
 Non-default print settings:
     11=  2
  
 Temporary integer options set:
     21= -1  73=  2
  
  atom       vdw   vdw2    cov     mass  grid  daf  charge   basis
  P1        2.147  2.074  1.060   30.974    Y    Y      Y    ps_6-31g*
  Pd2       1.450  1.450  1.280  105.903    Y    Y      Y    lacv3p*
  N2        1.831  1.600  0.750   14.003    Y    Y      Y    ps_6-31g*
  C16       1.949  1.900  0.770   12.000    Y    Y      Y    ps_6-31g*
  C17       1.949  1.900  0.770   12.000    Y    Y      Y    ps_6-31g*
  C18       1.949  1.900  0.770   12.000    Y    Y      Y    ps_6-31g*
  C19       1.949  1.900  0.770   12.000    Y    Y      Y    ps_6-31g*
  C20       1.949  1.900  0.770   12.000    Y    Y      Y    ps_6-31g*
  C21       1.949  1.900  0.770   12.000    Y    Y      Y    ps_6-31g*
  F10       1.736  1.682  0.720   18.998    Y    Y      Y    ps_6-31g*
  H23       1.597  1.150  0.320    1.008    Y    Y      Y    ps_6-31g*
  H24       1.597  1.150  0.320    1.008    Y    Y      Y    ps_6-31g*
  H25       1.597  1.150  0.320    1.008    Y    Y      Y    ps_6-31g*
  H26       1.597  1.150  0.320    1.008    Y    Y      Y    ps_6-31g*
  H18       1.597  1.150  0.320    1.008    Y    Y      Y    ps_6-31g*
  C22       1.949  1.900  0.770   12.000    Y    Y      Y    ps_6-31g*
  C23       1.949  1.900  0.770   12.000    Y    Y      Y    ps_6-31g*
  C24       1.949  1.900  0.770   12.000    Y    Y      Y    ps_6-31g*
  C25       1.949  1.900  0.770   12.000    Y    Y      Y    ps_6-31g*
  C26       1.949  1.900  0.770   12.000    Y    Y      Y    ps_6-31g*
  C27       1.949  1.900  0.770   12.000    Y    Y      Y    ps_6-31g*
  H22       1.597  1.150  0.320    1.008    Y    Y      Y    ps_6-31g*
  H27       1.597  1.150  0.320    1.008    Y    Y      Y    ps_6-31g*
  H28       1.597  1.150  0.320    1.008    Y    Y      Y    ps_6-31g*
  H29       1.597  1.150  0.320    1.008    Y    Y      Y    ps_6-31g*
  H30       1.597  1.150  0.320    1.008    Y    Y      Y    ps_6-31g*
  C3        1.949  1.900  0.770   12.000    Y    Y      Y    ps_6-31g*
  C4        1.949  1.900  0.770   12.000    Y    Y      Y    ps_6-31g*
  C5        1.949  1.900  0.770   12.000    Y    Y      Y    ps_6-31g*
  C6        1.949  1.900  0.770   12.000    Y    Y      Y    ps_6-31g*
  C7        1.949  1.900  0.770   12.000    Y    Y      Y    ps_6-31g*
  C8        1.949  1.900  0.770   12.000    Y    Y      Y    ps_6-31g*
  C9        1.949  1.900  0.770   12.000    Y    Y      Y    ps_6-31g*
  C10       1.949  1.900  0.770   12.000    Y    Y      Y    ps_6-31g*
  C11       1.949  1.900  0.770   12.000    Y    Y      Y    ps_6-31g*
  C12       1.949  1.900  0.770   12.000    Y    Y      Y    ps_6-31g*
  C13       1.949  1.900  0.770   12.000    Y    Y      Y    ps_6-31g*
  C14       1.949  1.900  0.770   12.000    Y    Y      Y    ps_6-31g*
  C15       1.949  1.900  0.770   12.000    Y    Y      Y    ps_6-31g*
  C40       1.949  1.900  0.770   12.000    Y    Y      Y    ps_6-31g*
  C41       1.949  1.900  0.770   12.000    Y    Y      Y    ps_6-31g*
  C42       1.949  1.900  0.770   12.000    Y    Y      Y    ps_6-31g*
  C43       1.949  1.900  0.770   12.000    Y    Y      Y    ps_6-31g*
  C44       1.949  1.900  0.770   12.000    Y    Y      Y    ps_6-31g*
  C45       1.949  1.900  0.770   12.000    Y    Y      Y    ps_6-31g*
  C46       1.949  1.900  0.770   12.000    Y    Y      Y    ps_6-31g*
  H47       1.597  1.150  0.320    1.008    Y    Y      Y    ps_6-31g*
  H48       1.597  1.150  0.320    1.008    Y    Y      Y    ps_6-31g*
  H49       1.597  1.150  0.320    1.008    Y    Y      Y    ps_6-31g*
  H50       1.597  1.150  0.320    1.008    Y    Y      Y    ps_6-31g*
  H51       1.597  1.150  0.320    1.008    Y    Y      Y    ps_6-31g*
  H52       1.597  1.150  0.320    1.008    Y    Y      Y    ps_6-31g*
  H53       1.597  1.150  0.320    1.008    Y    Y      Y    ps_6-31g*
  H54       1.597  1.150  0.320    1.008    Y    Y      Y    ps_6-31g*
  H31       1.597  1.150  0.320    1.008    Y    Y      Y    ps_6-31g*
  H32       1.597  1.150  0.320    1.008    Y    Y      Y    ps_6-31g*
  H33       1.597  1.150  0.320    1.008    Y    Y      Y    ps_6-31g*
  H34       1.597  1.150  0.320    1.008    Y    Y      Y    ps_6-31g*
  H35       1.597  1.150  0.320    1.008    Y    Y      Y    ps_6-31g*
  H36       1.597  1.150  0.320    1.008    Y    Y      Y    ps_6-31g*
  H37       1.597  1.150  0.320    1.008    Y    Y      Y    ps_6-31g*
  H38       1.597  1.150  0.320    1.008    Y    Y      Y    ps_6-31g*
  H39       1.597  1.150  0.320    1.008    Y    Y      Y    ps_6-31g*
  H40       1.597  1.150  0.320    1.008    Y    Y      Y    ps_6-31g*
  H41       1.597  1.150  0.320    1.008    Y    Y      Y    ps_6-31g*
  H42       1.597  1.150  0.320    1.008    Y    Y      Y    ps_6-31g*
  H43       1.597  1.150  0.320    1.008    Y    Y      Y    ps_6-31g*
  H44       1.597  1.150  0.320    1.008    Y    Y      Y    ps_6-31g*
  H45       1.597  1.150  0.320    1.008    Y    Y      Y    ps_6-31g*
  H46       1.597  1.150  0.320    1.008    Y    Y      Y    ps_6-31g*
  H71       1.597  1.150  0.320    1.008    Y    Y      Y    ps_6-31g*
  H72       1.597  1.150  0.320    1.008    Y    Y      Y    ps_6-31g*
  H73       1.597  1.150  0.320    1.008    Y    Y      Y    ps_6-31g*
 
  atom      formal  2spin      esp    mulk    frag
  P1           0       0        Y    0.000       0
  Pd2          2       0        Y    0.000       0
  N2          -1       0        Y    0.000       0
  C16         -1       0        Y    0.000       0
  
  end of program pre
   
 Time(pre)  user:       0.977  user+sys:       0.977  wallclock:       1.077
  
  start of program onee
  
  smallest eigenvalue of S:    3.717E-04
  number of canonical orbitals.....          595
  end of program onee
   
 Time(onee)  user:       4.293  user+sys:       4.293  wallclock:       3.236
  
  start of program hfig
  
  initial wavefunction generated automatically from atomic wavefunctions
  Only one state below 0.010000
  Skip d-d repulsion considerations 
 
  Irreducible     Total no   No of occupied orbitals 
  representation  orbitals   Shell_1  Shell_2    ...
  No Symm          595        139
  ------------------------
  Orbital occupation/shell    1.000
 
  end of program hfig
   
 Time(hfig)  user:       1.089  user+sys:       1.089  wallclock:       1.397
  
  start of program probe
  
  end of program probe
   
 Time(probe)  user:       0.592  user+sys:       0.592  wallclock:       0.532
  
  start of program grid
  
   grid     grid set  grid #  grid sym
  ------    --------  ------  --------
  coarse        0        0        1
  medium        2        1        1
  fine          0        0        1
  ultrafine     4        2        1
  charge       -1        3        1
  gradient      4        2        1
  density       0        0        1
  DFT-fine    -11        4        1
  DFT-med.    -10        5        1
  DFT-grad    -12        6        1
  DFT-der2     -8        7        1
  DFT-cphf     -9        8        1
  LMP2-enrg     4        2        1
  LMP2-grad     2        1        1
  DFT-cphf2   -15        9        1
  PBF-dens      0        0        1
  plotting      0        0        1
  Rel-grad    -17        0        1
  
  number of gridpoints: 
     atom           P1         Pd2          N2         C16         C17         C18         C19
  grid # 1         530         352         105          79          93          95         100
  grid # 2         371         303         365         326         323         323         390
  grid # 3           6         214           6          26          17           9           7
  grid # 4        8714        8714        8714        8714        8714        8714        8714
  grid # 5        1192        1192        1192        1192        1192        1192        1192
  grid # 6        9132        9132        5922        5922        5922        5922        5922
  grid # 7       23034       32968       13958       13950       13950       13950       13950
  grid # 8         722        1150         756         748         748         748         748
  grid # 9         366        2198         406         394         394         394         394
   
  number of gridpoints: 
     atom          C20         C21         F10         H23         H24         H25         H26
  grid # 1          95          93         584         114         114         115         115
  grid # 2         324         323         563         465         454         453         464
  grid # 3          12          22         348         387         217         240         377
  grid # 4        8714        8714        8714        8714        8714        8714        8714
  grid # 5        1192        1192        1192        1192        1192        1192        1192
  grid # 6        5922        5922        5922        5922        5922        5922        5922
  grid # 7       13950       13950       23190       15206       15206       15206       15206
  grid # 8         748         748         770         786         786         786         786
  grid # 9         394         394         420         420         420         420         420
   
  number of gridpoints: 
     atom          H18         C22         C23         C24         C25         C26         C27
  grid # 1          98          96          96          96         100          96          96
  grid # 2         400         323         323         321         353         322         323
  grid # 3         108          38          36          31          28          31          34
  grid # 4        8714        8714        8714        8714        8714        8714        8714
  grid # 5        1192        1192        1192        1192        1192        1192        1192
  grid # 6        5922        5922        5922        5922        5922        5922        5922
  grid # 7       15206       13950       13950       13950       13950       13950       13950
  grid # 8         786         748         748         748         748         748         748
  grid # 9         420         394         394         394         394         394         394
   
  number of gridpoints: 
     atom          H22         H27         H28         H29         H30          C3          C4
  grid # 1         117         117         106         112         117          90          87
  grid # 2         466         466         432         447         465         352         339
  grid # 3         405         409         175         231         380          10           6
  grid # 4        8714        8714        8714        8714        8714        8714        8714
  grid # 5        1192        1192        1192        1192        1192        1192        1192
  grid # 6        5922        5922        5922        5922        5922        5922        5922
  grid # 7       15206       15206       15206       15206       15206       13950       13950
  grid # 8         786         786         786         786         786         748         748
  grid # 9         420         420         420         420         420         394         394
   
  number of gridpoints: 
     atom           C5          C6          C7          C8          C9         C10         C11
  grid # 1          87          96          92          95          95          95          93
  grid # 2         342         349         326         324         322         324         325
  grid # 3           6          10          18          29          29          29          21
  grid # 4        8714        8714        8714        8714        8714        8714        8714
  grid # 5        1192        1192        1192        1192        1192        1192        1192
  grid # 6        5922        5922        5922        5922        5922        5922        5922
  grid # 7       13950       13950       13950       13950       13950       13950       13950
  grid # 8         748         748         748         748         748         748         748
  grid # 9         394         394         394         394         394         394         394
   
  number of gridpoints: 
     atom          C12         C13         C14         C15         C40         C41         C42
  grid # 1          97          92          96          95          88          78          81
  grid # 2         348         326         322         320         316         248         238
  grid # 3          14          26          39          23           7           6           6
  grid # 4        8714        8714        8714        8714        8714        8714        8714
  grid # 5        1192        1192        1192        1192        1192        1192        1192
  grid # 6        5922        5922        5922        5922        5922        5922        5922
  grid # 7       13950       13950       13950       13950       13950       13950       13950
  grid # 8         748         748         748         748         748         748         748
  grid # 9         394         394         394         394         394         394         394
   
  number of gridpoints: 
     atom          C43         C44         C45         C46         H47         H48         H49
  grid # 1          79          80          81          80         115         117         117
  grid # 2         247         249         240         242         460         463         461
  grid # 3           6           6           6           6         321         371         355
  grid # 4        8714        8714        8714        8714        8714        8714        8714
  grid # 5        1192        1192        1192        1192        1192        1192        1192
  grid # 6        5922        5922        5922        5922        5922        5922        5922
  grid # 7       13950       13950       13950       13950       15206       15206       15206
  grid # 8         748         748         748         748         786         786         786
  grid # 9         394         394         394         394         420         420         420
   
  number of gridpoints: 
     atom          H50         H51         H52         H53         H54         H31         H32
  grid # 1         117         105         116         118         118          87         104
  grid # 2         455         427         460         465         468         371         448
  grid # 3         327         195         363         420         401          38         235
  grid # 4        8714        8714        8714        8714        8714        8714        8714
  grid # 5        1192        1192        1192        1192        1192        1192        1192
  grid # 6        5922        5922        5922        5922        5922        5922        5922
  grid # 7       15206       15206       15206       15206       15206       15206       15206
  grid # 8         786         786         786         786         786         786         786
  grid # 9         420         420         420         420         420         420         420
   
  number of gridpoints: 
     atom          H33         H34         H35         H36         H37         H38         H39
  grid # 1         106          94         102          96         107          93         109
  grid # 2         436         403         429         401         443         389         447
  grid # 3         214          39         201         135         274          76         266
  grid # 4        8714        8714        8714        8714        8714        8714        8714
  grid # 5        1192        1192        1192        1192        1192        1192        1192
  grid # 6        5922        5922        5922        5922        5922        5922        5922
  grid # 7       15206       15206       15206       15206       15206       15206       15206
  grid # 8         786         786         786         786         786         786         786
  grid # 9         420         420         420         420         420         420         420
   
  number of gridpoints: 
     atom          H40         H41         H42         H43         H44         H45         H46
  grid # 1          94          98          96         107          98         108         102
  grid # 2         389         412         400         445         409         447         427
  grid # 3          98          90         119         279          66         276         159
  grid # 4        8714        8714        8714        8714        8714        8714        8714
  grid # 5        1192        1192        1192        1192        1192        1192        1192
  grid # 6        5922        5922        5922        5922        5922        5922        5922
  grid # 7       15206       15206       15206       15206       15206       15206       15206
  grid # 8         786         786         786         786         786         786         786
  grid # 9         420         420         420         420         420         420         420
   
  number of gridpoints: 
     atom          H71         H72         H73       total
  grid # 1          94         102         109        8437
  grid # 2         394         423         447       27806
  grid # 3         129         165         275        9984
  grid # 4        8714        8714        8714      636122
  grid # 5        1192        1192        1192       87016
  grid # 6        5922        5922        5922      438726
  grid # 7       15206       15206       15206     1102172
  grid # 8         786         786         786       56416
  grid # 9         420         420         420       31538
   
  end of program grid
   
 Time(grid)  user:     279.658  user+sys:     279.658  wallclock:     142.149
  
  start of program rwr
  
  end of program rwr
   
 Time(rwr)  user:      17.895  user+sys:      17.895  wallclock:      21.883
  
  start of program scf
  
 number of electrons..........        278
 number of alpha electrons....        139
 number of beta electrons.....        139
 number of orbitals, total....        595
 number of doubly-occ'd orbs..        139
 number of open shell orbs....          0
 number of occupied orbitals..        139
 number of virtual orbitals...        456
 number of hamiltonians.......          1
 number of shells.............          1
 SCF type: DFT=Becke_3_Parameter/HF+Slater+Becke88+PW91+PW-GGAIIC (B3PW91-D3)
 Energy computed using pseudospectral method.
 Convergence Criterion:
    Energy (econv):       1.00E-05
    RMS density (dconv):  5.00E-06
  
       i  u  d  i  g                   
       t  p  i  c  r                                 RMS    maximum
       e  d  i  u  i                       energy  density   DIIS  
       r  t  s  t  d       total energy    change  change    error 
  
etot    1  N  N  5  M   -1858.81323054310           2.3E-03  1.4E-01
etot    2  Y  Y  6  M   -1862.04100886523  3.2E+00  3.6E-03  8.5E-02
etot    3  Y  Y  6  M   -1862.92190204626  8.8E-01  1.6E-03  6.3E-02
etot    4  N  Y  2  U   -1863.25908550774  3.4E-01  1.3E-03  2.3E-02
etot    5  Y  Y  6  M   -1863.36463324594  1.1E-01  6.6E-04  1.3E-02
etot    6  N  Y  2  U   -1863.37118040308  6.5E-03  5.3E-04  5.3E-03
etot    7  Y  Y  6  M   -1863.37734671950  6.2E-03  1.0E-04  4.1E-03
etot    8  N  Y  2  U   -1863.38055438471  3.2E-03  3.6E-05  1.7E-03
etot    9  N  Y  2  U   -1863.38082049795  2.7E-04  1.1E-05  2.2E-04
etot   10  N  Y  2  U   -1863.38083252954  1.2E-05  4.2E-06  1.2E-04
etot   11  N  N  2  U   -1863.38083527944  2.7E-06  0.0E+00  0.0E+00
 
  Computing the dispersion energy correction and its gradients...
  
  
 Energy components, in hartrees:
   (A)  Nuclear repulsion............    4855.96043524116
   (E)  Total one-electron terms.....  -12264.01716673722
   (F)    Electron-nuclear...........  -14039.80334766704
   (H)    Kinetic....................    1775.78618092982
   (I)  Total two-electron terms.....    5544.67589621661
   (J)    Coulomb....................    5785.62561452453
   (K)    Exchange+Correlation.......    -240.94971830792
   (L)  Electronic energy............   -6719.34127052061  (E+I)
   (N0) D3 correction................      -0.14007691583
   (N)  Total energy.................   -1863.52091219528  (A+L+N0)
   (O)  Gas phase energy.............   -1863.52091219528
  
 SCFE: SCF energy: DFT(b3pw91-d3)     -1863.52091219528 hartrees   iterations:  11
  
 
 HOMO energy:    -0.17157
 LUMO energy:    -0.05392
 
  Orbital energies (hartrees): 
   -76.98886   -24.66777   -14.29023   -10.22390   -10.21258   -10.21017
   -10.19542   -10.19181   -10.19139   -10.19090   -10.19028   -10.18446
   -10.18306   -10.18150   -10.18001   -10.17803   -10.17733   -10.17503
   -10.17352   -10.17194   -10.17097   -10.16742   -10.15892   -10.15720
   -10.15271   -10.15023   -10.14818   -10.14677   -10.14568   -10.14506
   -10.14385   -10.14365   -10.14316   -10.14088   -10.13025    -6.52690
    -4.68317    -4.68273    -4.67821    -3.32050    -2.05324    -2.04922
    -2.02139    -1.20441    -0.93102    -0.88139    -0.86074    -0.85265
    -0.83153    -0.82260    -0.80153    -0.79883    -0.78549    -0.75428
    -0.74999    -0.72582    -0.72038    -0.71858    -0.71502    -0.70678
    -0.70469    -0.68980    -0.68319    -0.67787    -0.64423    -0.62393
    -0.60969    -0.59776    -0.59430    -0.58590    -0.57936    -0.57284
    -0.56499    -0.55591    -0.52296    -0.51604    -0.51356    -0.50401
    -0.49942    -0.49682    -0.48846    -0.47672    -0.46957    -0.46817
    -0.45950    -0.45844    -0.45398    -0.45123    -0.44532    -0.43918
    -0.43725    -0.43622    -0.42409    -0.42299    -0.41491    -0.41095
    -0.40958    -0.40418    -0.39867    -0.39649    -0.39499    -0.39133
    -0.39070    -0.38676    -0.38486    -0.37960    -0.37548    -0.37299
    -0.36789    -0.36624    -0.35957    -0.35397    -0.35126    -0.34852
    -0.34341    -0.33946    -0.33689    -0.32772    -0.32070    -0.31985
    -0.31943    -0.31313    -0.31066    -0.30545    -0.29674    -0.28602
    -0.27291    -0.27099    -0.26158    -0.25745    -0.24416    -0.23680
    -0.22728    -0.22655    -0.22322    -0.21642    -0.19740    -0.18680
    -0.17157    -0.05392    -0.04494    -0.03209    -0.01566    -0.01313
     0.01703     0.02556     0.03362     0.03723     0.04115
 
  end of program scf
   
 Time(scf)  user:     428.846  user+sys:     428.846  wallclock:     228.011
  
  start of program der1a
  
  end of program der1a
   
 Time(der1a)  user:      12.920  user+sys:      12.920  wallclock:       6.912
  
  start of program rwr
  
  end of program rwr
   
 Time(rwr)  user:      18.930  user+sys:      18.930  wallclock:      24.509
  
  start of program der1b
  
   
  forces (hartrees/bohr) : total     
   
 atom  label           x              y              z
 ---- --------   -------------  -------------  -------------
    1 P1          1.400600E-02   7.646385E-03   3.125764E-01
    2 Pd2         1.385142E-03  -1.218527E-02   2.280138E-03
    3 N2         -4.332223E-02  -9.097014E-03   3.728816E-02
    4 C16         1.859238E-03   3.190087E-04  -3.852761E-02
    5 C17        -2.302695E-03  -5.182075E-03   1.086446E-02
    6 C18         1.568045E-03   5.707326E-03   1.551075E-04
    7 C19         7.450914E-03  -1.677615E-03   6.310471E-03
    8 C20         1.279054E-03  -5.694623E-03  -6.731123E-04
    9 C21         6.647688E-04   5.237225E-03   9.965209E-03
   10 F10        -9.819075E-04  -4.406769E-04   9.259600E-03
   11 H23         3.989754E-04   1.846470E-03   1.002956E-03
   12 H24         1.290339E-03   1.810142E-04   1.293237E-03
   13 H25        -8.368170E-04  -4.042338E-04   1.359391E-03
   14 H26        -4.499518E-04  -2.061572E-03   6.552064E-04
   15 H18         2.760572E-02   4.917986E-02   3.156550E-02
   16 C22        -8.997507E-05   3.730750E-03   2.013739E-03
   17 C23         8.987456E-04  -2.575244E-03   1.447793E-03
   18 C24        -8.942245E-04   6.782427E-03   9.400625E-04
   19 C25         5.566447E-03  -2.274893E-02  -2.091499E-02
   20 C26        -1.527234E-02   3.998155E-03   1.100737E-02
   21 C27         1.422984E-04  -3.688334E-03  -4.059113E-03
   22 H22         4.463119E-03  -5.264988E-03  -7.792336E-03
   23 H27         4.147056E-04  -1.036486E-02  -1.031863E-04
   24 H28        -7.140917E-03  -6.808442E-03   1.113065E-02
   25 H29         1.253595E-03   1.218559E-02  -1.275293E-03
   26 H30         4.186494E-03   4.978597E-03  -8.347176E-03
   27 C3          2.701954E-01   1.663734E-02  -9.572087E-02
   28 C4         -1.581446E-01   2.497899E-01  -9.289844E-02
   29 C5         -1.232469E-01  -2.683173E-01  -1.005024E-01
   30 C6         -9.410126E-03   5.264487E-04   6.159067E-02
   31 C7          8.559235E-03   1.986944E-02   8.180001E-03
   32 C8          1.139041E-03  -5.439783E-03   1.925916E-03
   33 C9          2.322991E-03  -1.833624E-03   4.381684E-04
   34 C10         6.436843E-03   3.020953E-03   5.491159E-03
   35 C11        -8.966720E-03  -2.024713E-02   7.454922E-03
   36 C12         1.980954E-02   1.314591E-02  -6.547712E-02
   37 C13         1.654909E-02  -6.238889E-04  -8.374437E-04
   38 C14        -4.495074E-03   1.742717E-03  -2.829129E-03
   39 C15         1.622662E-03  -2.123364E-03   2.191702E-03
   40 C40         4.210205E-02  -1.527235E-02  -2.596213E-02
   41 C41         4.478116E-03   2.690725E-02   6.687580E-03
   42 C42        -2.565204E-02   4.488751E-02  -1.564139E-02
   43 C43        -4.256487E-02   1.959571E-02  -9.661791E-03
   44 C44        -2.292350E-02  -3.674062E-02   7.037468E-04
   45 C45         6.204406E-03  -3.266608E-02  -2.989680E-03
   46 C46        -3.609540E-03  -2.402633E-02  -3.068614E-02
   47 H47        -4.932956E-03  -7.238906E-03  -1.135161E-02
   48 H48        -4.578149E-03  -6.328966E-03  -9.454438E-03
   49 H49        -2.660328E-03   2.299665E-03  -1.125389E-02
   50 H50         1.414973E-03   9.842735E-03  -7.521946E-03
   51 H51         7.453085E-03   7.068816E-03  -5.116324E-03
   52 H52        -9.732672E-03  -1.503288E-03   1.148303E-02
   53 H53        -7.827103E-03  -7.216583E-04   8.562543E-03
   54 H54        -1.520265E-03  -2.078191E-03   1.027323E-02
   55 H31         4.029337E-02  -2.352775E-02   1.493815E-02
   56 H32        -6.466311E-03  -4.811370E-03  -2.232203E-03
   57 H33         5.253007E-03  -7.993901E-03  -2.057238E-03
   58 H34         6.287781E-03   5.214072E-03  -2.001452E-02
   59 H35        -1.377043E-02   1.021048E-03   2.522901E-03
   60 H36        -1.642970E-02   2.528143E-02   5.197752E-03
   61 H37         7.177708E-05  -6.783458E-03   8.270411E-03
   62 H38         9.473440E-03   2.740649E-02  -1.440656E-02
   63 H39         1.125787E-02  -3.530126E-03   2.046026E-03
   64 H40        -7.639198E-03   3.283018E-02   1.958558E-02
   65 H41         5.657697E-03  -1.007221E-02  -2.033554E-02
   66 H42         1.376721E-02  -2.707820E-02   1.845824E-03
   67 H43         7.115350E-03   6.816286E-03  -1.553347E-03
   68 H44        -1.094023E-02   2.728502E-03  -1.759458E-02
   69 H45        -1.493334E-03   1.059906E-02   3.452928E-03
   70 H46        -1.389506E-02  -9.554407E-03   6.618534E-03
   71 H71         1.891058E-02  -2.179017E-02  -9.836210E-03
   72 H72        -1.205483E-02  -8.258990E-03   7.191500E-03
   73 H73         5.128660E-03   7.374089E-03   5.381649E-03
 -------------   -------------  -------------  -------------
     total        1.692838E-03  -3.575612E-04  -4.478431E-03
   
  end of program der1b
   
 Time(der1b)  user:     146.748  user+sys:     146.748  wallclock:      78.085
  
  start of program geopt
  
 ----------------------------------------------------------------------------
  Geometry optimization step  1
  Total energy:     -1863.52091219528 hartrees
 ----------------------------------------------------------------------------
  
  
  Level shifts adjusted to satisfy step-size constraints
   Step size:    0.3000406
   Cos(theta):   0.9559612
   Final level shift:  -2.5582734E+00
  
  gradient maximum:        4.8230E-01 .  (  2.2500E-03 )
  gradient rms:            7.5711E-02 .  (  1.5000E-03 )
  displacement maximum:    1.4234E-01 .  (  9.0000E-03 )
  displacement rms:        1.9043E-02 .  (  6.0000E-03 )
  
  predicted energy change:  -2.8600E-01
  step size:     0.29990
  trust radius:  0.30000
  
  molecular structure not yet converged...
  
  center of mass moved by:
     x:     1.2708E-02     y:    -2.4632E-03     z:    -2.8657E-02
  
  new geometry: 
                                   angstroms
  atom               x                 y                 z
  P1           -0.0532239187     -0.0227933772     -0.0861456365 
  Pd2          -0.0328335482      0.0005577831      2.3152457227 
  N2           -2.0499666121      0.2906955155      2.2264828675 
  C16           0.0293915607     -0.0229185555      7.1783654648 
  C17          -0.1672520600     -1.2051025361      6.4588715578 
  C18          -0.2260384468     -1.1929080635      5.0630099669 
  C19          -0.0737316512     -0.0037839109      4.3318077675 
  C20           0.1092523604      1.1785515687      5.0677115767 
  C21           0.1643807808      1.1704829850      6.4619263685 
  F10           0.1037941572     -0.0271006181      8.5109162906 
  H23          -0.2864036784     -2.1443527834      6.9997954562 
  H24          -0.4043074043     -2.1324656232      4.5402003519 
  H25           0.1884769061      2.1335528848      4.5489159450 
  H26           0.3091630809      2.1041067908      7.0060639057 
  H18          -2.6115818286     -0.6345003862      2.1046455021 
  C22          -3.5900634938      2.4271014111      5.5776225063 
  C23          -3.1616864249      3.1230842581      4.4379068150 
  C24          -2.6553231152      2.4207016227      3.3343103259 
  C25          -2.5771478955      1.0196802301      3.3687090868 
  C26          -3.0067367898      0.3240345802      4.5105409864 
  C27          -3.5124317978      1.0269263050      5.6132886937 
  H22          -3.9872863292      2.9798250671      6.4436590990 
  H27          -3.2224041497      4.2225964723      4.4086656579 
  H28          -2.3207198090      2.9686040597      2.4402006005 
  H29          -2.9433684434     -0.7748359308      4.5406867467 
  H30          -3.8482528318      0.4791324925      6.5079600694 
  C3            1.4337650374     -0.0174852371     -0.5584637546 
  C4           -0.7906347692      1.2862744486     -0.5559795987 
  C5           -0.6644003181     -1.3728778105     -0.6203491693 
  C6            2.5583300776     -0.4270355869      1.7276983873 
  C7            2.9442358730      0.5937711100      2.6345426248 
  C8            2.9755308710      0.4453741014      4.0296955453 
  C9            2.6175175937     -0.7663127535      4.6236718764 
  C10           2.2274600123     -1.8072646458      3.7790381594 
  C11           2.2040921221     -1.6274078572      2.3874444224 
  C12           2.5656583515     -0.2168822128      0.2975234239 
  C13           3.8290743219     -0.1970342729     -0.3409326560 
  C14           4.0262188737     -0.0032785096     -1.7112371268 
  C15           2.9192016832      0.1873433664     -2.5326946112 
  C40           1.6561031466      0.1750583266     -1.9371570910 
  C41          -0.5356158483      2.4147771793      0.4690607882 
  C42          -0.5569409800      1.9148196293     -1.9501245975 
  C43          -2.3263518940      1.0969801290     -0.4984417911 
  C44          -1.8700663777     -1.9009001068      0.1858973659 
  C45           0.4091380259     -2.4737099571     -0.4467804170 
  C46          -1.0589575317     -1.4781558015     -2.1123226028 
  H47           3.2521550064      1.5935446593      2.3086993452 
  H48           3.2871312737      1.2867389687      4.6688028913 
  H49           2.6373083753     -0.8952273745      5.7167977373 
  H50           1.9371841607     -2.7767312213      4.2140593451 
  H51           1.8828587377     -2.5184154521      1.8525784510 
  H52           4.7699216743     -0.3358111180      0.2020662448 
  H53           5.0408017840      0.0003948453     -2.1407595035 
  H54           3.0340875244      0.3412623580     -3.6171717477 
  H31           0.8180672575      0.3287445328     -2.6162614143 
  H32           0.5228799984      2.7517941717      0.4564260516 
  H33          -1.1578140123      3.3117736210      0.2553963381 
  H34          -0.7700317458      2.0846352585      1.5030408223 
  H35           0.4815180673      2.2628136701     -2.1119491264 
  H36          -0.8355546499      1.2298949052     -2.7745235437 
  H37          -1.1966129873      2.8152637357     -2.0835277715 
  H38          -2.6547427251      0.7831818010      0.5145830536 
  H39          -2.8671480439      2.0375369485     -0.7438938731 
  H40          -2.6797782180      0.3308157436     -1.2156746364 
  H41          -1.6407839614     -1.9327751482      1.2723648211 
  H42          -2.7732556458     -1.2779107536      0.0440593518 
  H43          -2.1497553963     -2.9311515889     -0.1270303951 
  H44           0.7117905238     -2.5803428666      0.6164423590 
  H45           0.0388392118     -3.4664959637     -0.7849545660 
  H46           1.3255951592     -2.2517671572     -1.0342056351 
  H71          -1.8219131185     -0.7360107469     -2.4119284831 
  H72          -0.1819485524     -1.3684934361     -2.7833602001 
  H73          -1.4915348166     -2.4771046496     -2.3394471825 
   
 
  bond lengths (angstroms):
 
 P1      -Pd2     :   2.401591      P1      -C3      :   1.560208
 P1      -C4      :   1.574223      P1      -C5      :   1.575322
 Pd2     -N2      :   2.039825      Pd2     -C19     :   2.016981
 N2      -H18     :   1.089148      N2      -C25     :   1.453967
 C16     -C17     :   1.397819      C16     -C21     :   1.398469
 C16     -F10     :   1.334633      C17     -C18     :   1.397152
 C17     -H23     :   1.090407      C18     -C19     :   1.404233
 C18     -H24     :   1.089898      C19     -C20     :   1.404619
 C20     -C21     :   1.395328      C20     -H25     :   1.089703
 C21     -H26     :   1.090276      C22     -C23     :   1.402445
 C22     -C27     :   1.402779      C22     -H22     :   1.101503
 C23     -C24     :   1.402737      C23     -H27     :   1.101576
 C24     -C25     :   1.403622      C24     -H28     :   1.100722
 C25     -C26     :   1.404368      C26     -C27     :   1.402083
 C26     -H29     :   1.101109      C27     -H30     :   1.101495
 C3      -C12     :   1.433058      C3      -C40     :   1.409717
 C4      -C41     :   1.545723      C4      -C42     :   1.547037
 C4      -C43     :   1.548409      C5      -C44     :   1.543526
 C5      -C45     :   1.547398      C5      -C46     :   1.546850
 C6      -C7      :   1.418921      C6      -C11     :   1.414794
 C6      -C12     :   1.445551      C7      -C8      :   1.403372
 C7      -H47     :   1.095689      C8      -C9      :   1.396126
 C8      -H48     :   1.101566      C9      -C10     :   1.396113
 C9      -H49     :   1.100879      C10     -C11     :   1.403363
 C10     -H50     :   1.101530      C11     -H51     :   1.087735
 C12     -C13     :   1.415712      C13     -C14     :   1.397906
 C13     -H52     :   1.095126      C14     -C15     :   1.391624
 C14     -H53     :   1.101763      C15     -C40     :   1.396508
 C15     -H54     :   1.101354      C40     -H31     :   1.089544
 C41     -H32     :   1.110925      C41     -H33     :   1.112378
 C41     -H34     :   1.110432      C42     -H35     :   1.107106
 C42     -H36     :   1.107421      C42     -H37     :   1.112554
 C43     -H38     :   1.110193      C43     -H39     :   1.112364
 C43     -H40     :   1.107403      C44     -H41     :   1.110855
 C44     -H42     :   1.106338      C44     -H43     :   1.112460
 C45     -H44     :   1.110591      C45     -H45     :   1.112253
 C45     -H46     :   1.110955      C46     -H71     :   1.105732
 C46     -H72     :   1.109713      C46     -H73     :   1.112029
 
  bond angles:
 
 C3      -P1      -Pd2     : 107.132202  C4      -P1      -Pd2     : 107.116847
 C4      -P1      -C3      : 110.687212  C5      -P1      -Pd2     : 110.530525
 C5      -P1      -C3      : 105.665504  C5      -P1      -C4      : 115.450083
 N2      -Pd2     -P1      :  87.103942  C19     -Pd2     -P1      : 178.216746
 C19     -Pd2     -N2      :  91.361519  H18     -N2      -Pd2     : 113.200665
 C25     -N2      -Pd2     : 113.308201  C25     -N2      -H18     : 109.075844
 C21     -C16     -C17     : 118.138360  F10     -C16     -C17     : 121.272930
 F10     -C16     -C21     : 120.583685  C18     -C17     -C16     : 120.849717
 H23     -C17     -C16     : 119.243672  H23     -C17     -C18     : 119.903293
 C19     -C18     -C17     : 121.537688  H24     -C18     -C17     : 118.594106
 H24     -C18     -C19     : 119.865526  C18     -C19     -Pd2     : 121.643118
 C20     -C19     -Pd2     : 121.288970  C20     -C19     -C18     : 117.008555
 C21     -C20     -C19     : 121.586061  H25     -C20     -C19     : 119.850392
 H25     -C20     -C21     : 118.548637  C20     -C21     -C16     : 120.864865
 H26     -C21     -C16     : 119.201860  H26     -C21     -C20     : 119.932500
 C27     -C22     -C23     : 119.940547  H22     -C22     -C23     : 120.004797
 H22     -C22     -C27     : 120.054654  C24     -C23     -C22     : 120.074825
 H27     -C23     -C22     : 120.004659  H27     -C23     -C24     : 119.920514
 C25     -C24     -C23     : 120.040987  H28     -C24     -C23     : 119.970804
 H28     -C24     -C25     : 119.988127  C24     -C25     -N2      : 120.091928
 C26     -C25     -N2      : 120.085388  C26     -C25     -C24     : 119.822532
 C27     -C26     -C25     : 120.097811  H29     -C26     -C25     : 119.933386
 H29     -C26     -C27     : 119.968545  C26     -C27     -C22     : 120.023291
 H30     -C27     -C22     : 120.011541  H30     -C27     -C26     : 119.965159
 C12     -C3      -P1      : 124.853556  C40     -C3      -P1      : 116.541561
 C40     -C3      -C12     : 118.594085  C41     -C4      -P1      : 109.384576
 C42     -C4      -P1      : 122.415457  C42     -C4      -C41     : 106.025292
 C43     -C4      -P1      : 110.599847  C43     -C4      -C41     : 103.193603
 C43     -C4      -C42     : 103.472404  C44     -C5      -P1      : 114.777449
 C45     -C5      -P1      : 107.607447  C45     -C5      -C44     : 103.884014
 C46     -C5      -P1      : 118.970934  C46     -C5      -C44     : 106.337122
 C46     -C5      -C45     : 103.693713  C11     -C6      -C7      : 112.362100
 C12     -C6      -C7      : 121.758626  C12     -C6      -C11     : 125.871871
 C8      -C7      -C6      : 124.427024  H47     -C7      -C6      : 122.875549
 H47     -C7      -C8      : 112.697420  C9      -C8      -C7      : 120.597898
 H48     -C8      -C7      : 120.153953  H48     -C8      -C9      : 119.247891
 C10     -C9      -C8      : 117.474955  H49     -C9      -C8      : 121.296806
 H49     -C9      -C10     : 121.227638  C11     -C10     -C9      : 120.597907
 H50     -C10     -C9      : 119.400732  H50     -C10     -C11     : 120.001342
 C10     -C11     -C6      : 124.539689  H51     -C11     -C6      : 122.658906
 H51     -C11     -C10     : 112.801283  C6      -C12     -C3      : 127.386270
 C13     -C12     -C3      : 115.693037  C13     -C12     -C6      : 116.919882
 C14     -C13     -C12     : 124.741489  H52     -C13     -C12     : 122.773238
 H52     -C13     -C14     : 112.485259  C15     -C14     -C13     : 119.040745
 H53     -C14     -C13     : 120.829418  H53     -C14     -C15     : 120.129817
 C40     -C15     -C14     : 117.811311  H54     -C15     -C14     : 121.158363
 H54     -C15     -C40     : 121.030250  C15     -C40     -C3      : 124.119145
 H31     -C40     -C3      : 120.499460  H31     -C40     -C15     : 115.381353
 H32     -C41     -C4      : 111.785759  H33     -C41     -C4      : 111.657777
 H33     -C41     -H32     : 106.626458  H34     -C41     -C4      : 111.444560
 H34     -C41     -H32     : 107.573220  H34     -C41     -H33     : 107.488803
 H35     -C42     -C4      : 113.648450  H36     -C42     -C4      : 112.431026
 H36     -C42     -H35     : 108.758655  H37     -C42     -C4      : 110.489420
 H37     -C42     -H35     : 105.508422  H37     -C42     -H36     : 105.465374
 H38     -C43     -C4      : 111.212808  H39     -C43     -C4      : 111.753542
 H39     -C43     -H38     : 107.249555  H40     -C43     -C4      : 112.150824
 H40     -C43     -H38     : 107.519279  H40     -C43     -H39     : 106.673896
 H41     -C44     -C5      : 111.067447  H42     -C44     -C5      : 112.214921
 H42     -C44     -H41     : 108.062245  H43     -C44     -C5      : 111.485192
 H43     -C44     -H41     : 107.483841  H43     -C44     -H42     : 106.271186
 H44     -C45     -C5      : 111.392332  H45     -C45     -C5      : 111.710520
 H45     -C45     -H44     : 107.223644  H46     -C45     -C5      : 111.769734
 H46     -C45     -H44     : 107.492529  H46     -C45     -H45     : 106.989322
 H71     -C46     -C5      : 113.058053  H72     -C46     -C5      : 112.020194
 H72     -C46     -H71     : 108.369053  H73     -C46     -C5      : 110.938086
 H73     -C46     -H71     : 106.211194  H73     -C46     -H72     : 105.824589
 
  torsional angles:
 
 P1      -Pd2     -N2      -H18     :  83.457704
 P1      -Pd2     -N2      -C25     :-151.664018
 P1      -Pd2     -C19     -C18     :  60.965220
 P1      -Pd2     -C19     -C20     :-121.920828
 P1      -C3      -C12     -C6      :  -1.417757
 P1      -C3      -C12     -C13     : 178.922462
 P1      -C3      -C40     -C15     :-178.985301
 P1      -C3      -C40     -H31     :   1.092521
 P1      -C4      -C41     -H32     :  69.004675
 P1      -C4      -C41     -H33     :-171.637894
 P1      -C4      -C41     -H34     : -51.414561
 P1      -C4      -C42     -H35     : -63.138648
 P1      -C4      -C42     -H36     :  60.956210
 P1      -C4      -C42     -H37     : 178.486648
 P1      -C4      -C43     -H38     :  55.351895
 P1      -C4      -C43     -H39     : 175.176874
 P1      -C4      -C43     -H40     : -65.088538
 P1      -C5      -C44     -H41     : -50.598086
 P1      -C5      -C44     -H42     :  70.480930
 P1      -C5      -C44     -H43     :-170.441093
 P1      -C5      -C45     -H44     :  58.899585
 P1      -C5      -C45     -H45     : 178.785098
 P1      -C5      -C45     -H46     : -61.369316
 P1      -C5      -C46     -H71     : -59.765008
 P1      -C5      -C46     -H72     :  63.028082
 P1      -C5      -C46     -H73     :-178.957406
 Pd2     -P1      -C3      -C12     :  10.542953
 Pd2     -P1      -C3      -C40     :-170.673506
 Pd2     -P1      -C4      -C41     :  31.427254
 Pd2     -P1      -C4      -C42     : 156.184037
 Pd2     -P1      -C4      -C43     : -81.573144
 Pd2     -P1      -C5      -C44     :  39.157066
 Pd2     -P1      -C5      -C45     : -75.915576
 Pd2     -P1      -C5      -C46     : 166.723258
 Pd2     -N2      -C25     -C24     :  89.980331
 Pd2     -N2      -C25     -C26     : -89.877917
 Pd2     -C19     -C18     -C17     : 175.783285
 Pd2     -C19     -C18     -H24     :  -4.820601
 Pd2     -C19     -C20     -C21     :-175.991839
 Pd2     -C19     -C20     -H25     :   5.433405
 N2      -Pd2     -P1      -C3      : 171.407584
 N2      -Pd2     -P1      -C4      :  52.608938
 N2      -Pd2     -P1      -C5      : -73.936901
 N2      -Pd2     -C19     -C18     :  91.574494
 N2      -Pd2     -C19     -C20     : -91.311554
 N2      -C25     -C24     -C23     :-179.875779
 N2      -C25     -C24     -H28     :   0.228639
 N2      -C25     -C26     -C27     : 179.860641
 N2      -C25     -C26     -H29     :   0.045144
 C16     -C17     -C18     -C19     :   0.831867
 C16     -C17     -C18     -H24     :-178.571699
 C16     -C21     -C20     -C19     :  -0.429779
 C16     -C21     -C20     -H25     : 178.162965
 C17     -C16     -C21     -C20     :  -0.242758
 C17     -C16     -C21     -H26     : 179.436716
 C17     -C18     -C19     -C20     :  -1.448606
 C18     -C17     -C16     -C21     :   0.045727
 C18     -C17     -C16     -F10     :-179.143262
 C18     -C19     -C20     -C21     :   1.250512
 C18     -C19     -C20     -H25     :-177.324244
 C19     -Pd2     -P1      -C3      :-157.949371
 C19     -Pd2     -P1      -C4      :  83.251984
 C19     -Pd2     -P1      -C5      : -43.293855
 C19     -Pd2     -N2      -H18     : -95.633245
 C19     -Pd2     -N2      -C25     :  29.245033
 C19     -C18     -C17     -H23     :-179.835860
 C19     -C20     -C21     -H26     : 179.893074
 C20     -C19     -C18     -H24     : 177.947507
 C20     -C21     -C16     -F10     : 178.952055
 C21     -C16     -C17     -H23     :-179.290895
 F10     -C16     -C17     -H23     :   1.520117
 F10     -C16     -C21     -H26     :  -1.368470
 H23     -C17     -C18     -H24     :   0.760573
 H25     -C20     -C21     -H26     :  -1.514182
 H18     -N2      -C25     -C24     :-142.943807
 H18     -N2      -C25     -C26     :  37.197944
 C22     -C23     -C24     -C25     :   0.030598
 C22     -C23     -C24     -H28     : 179.926199
 C22     -C27     -C26     -C25     :  -0.000265
 C22     -C27     -C26     -H29     : 179.815166
 C23     -C22     -C27     -C26     :   0.013654
 C23     -C22     -C27     -H30     : 179.980232
 C23     -C24     -C25     -C26     :  -0.017156
 C24     -C23     -C22     -C27     :  -0.028821
 C24     -C23     -C22     -H22     : 179.986551
 C24     -C25     -C26     -C27     :   0.002009
 C24     -C25     -C26     -H29     :-179.813488
 C25     -C24     -C23     -H27     :-179.983294
 C25     -C26     -C27     -H30     :-179.966858
 C26     -C25     -C24     -H28     :-179.912738
 C26     -C27     -C22     -H22     : 179.998275
 C27     -C22     -C23     -H27     : 179.985083
 H22     -C22     -C23     -H27     :   0.000455
 H22     -C22     -C27     -H30     :  -0.035148
 H27     -C23     -C24     -H28     :  -0.087693
 H29     -C26     -C27     -H30     :  -0.151427
 C3      -P1      -C4      -C41     : -85.044986
 C3      -P1      -C4      -C42     :  39.711797
 C3      -P1      -C4      -C43     : 161.954616
 C3      -P1      -C5      -C44     : 154.733400
 C3      -P1      -C5      -C45     :  39.660758
 C3      -P1      -C5      -C46     : -77.700408
 C3      -C12     -C6      -C7      :-105.177367
 C3      -C12     -C6      -C11     :  75.889724
 C3      -C12     -C13     -C14     :  -0.127807
 C3      -C12     -C13     -H52     : 179.917933
 C3      -C40     -C15     -C14     :   0.028250
 C3      -C40     -C15     -H54     : 179.929277
 C4      -P1      -C3      -C12     : 127.005691
 C4      -P1      -C3      -C40     : -54.210768
 C4      -P1      -C5      -C44     : -82.597499
 C4      -P1      -C5      -C45     : 162.329859
 C4      -P1      -C5      -C46     :  44.968693
 C5      -P1      -C3      -C12     :-107.335346
 C5      -P1      -C3      -C40     :  71.448194
 C5      -P1      -C4      -C41     : 154.997452
 C5      -P1      -C4      -C42     : -80.245765
 C5      -P1      -C4      -C43     :  41.997054
 C6      -C7      -C8      -C9      :   0.201352
 C6      -C7      -C8      -H48     :-179.984633
 C6      -C11     -C10     -C9      :   0.041296
 C6      -C11     -C10     -H50     :-179.908566
 C6      -C12     -C3      -C40     : 179.821674
 C6      -C12     -C13     -C14     :-179.824631
 C6      -C12     -C13     -H52     :   0.221109
 C7      -C6      -C11     -C10     :  -0.088809
 C7      -C6      -C11     -H51     :-179.952489
 C7      -C6      -C12     -C13     :  74.478793
 C7      -C8      -C9      -C10     :  -0.241824
 C7      -C8      -C9      -H49     :-179.962870
 C8      -C7      -C6      -C11     :  -0.031545
 C8      -C7      -C6      -C12     :-179.096547
 C8      -C9      -C10     -C11     :   0.128177
 C8      -C9      -C10     -H50     :-179.921662
 C9      -C8      -C7      -H47     :-179.828413
 C9      -C10     -C11     -H51     : 179.916799
 C10     -C9      -C8      -H48     : 179.942492
 C10     -C11     -C6      -C12     : 178.930100
 C11     -C6      -C7      -H47     :-179.998849
 C11     -C6      -C12     -C13     :-104.454116
 C11     -C10     -C9      -H49     : 179.849428
 C12     -C3      -C40     -C15     :  -0.122202
 C12     -C3      -C40     -H31     : 179.955620
 C12     -C6      -C7      -H47     :   0.936149
 C12     -C6      -C11     -H51     :  -0.933580
 C12     -C13     -C14     -C15     :   0.038088
 C12     -C13     -C14     -H53     : 179.987059
 C13     -C12     -C3      -C40     :   0.161893
 C13     -C14     -C15     -C40     :   0.016252
 C13     -C14     -C15     -H54     :-179.884641
 C14     -C15     -C40     -H31     : 179.954032
 C15     -C14     -C13     -H52     : 179.996465
 C40     -C15     -C14     -H53     :-179.933084
 C41     -C4      -C42     -H35     :  63.121464
 C41     -C4      -C42     -H36     :-172.783677
 C41     -C4      -C42     -H37     : -55.253240
 C41     -C4      -C43     -H38     : -61.539941
 C41     -C4      -C43     -H39     :  58.285038
 C41     -C4      -C43     -H40     : 178.019626
 C42     -C4      -C41     -H32     : -64.808146
 C42     -C4      -C41     -H33     :  54.549285
 C42     -C4      -C41     -H34     : 174.772618
 C42     -C4      -C43     -H38     :-171.888576
 C42     -C4      -C43     -H39     : -52.063596
 C42     -C4      -C43     -H40     :  67.670992
 C43     -C4      -C41     -H32     :-173.247577
 C43     -C4      -C41     -H33     : -53.890146
 C43     -C4      -C41     -H34     :  66.333187
 C43     -C4      -C42     -H35     : 171.361565
 C43     -C4      -C42     -H36     : -64.543576
 C43     -C4      -C42     -H37     :  52.986861
 C44     -C5      -C45     -H44     : -63.198610
 C44     -C5      -C45     -H45     :  56.686903
 C44     -C5      -C45     -H46     : 176.532489
 C44     -C5      -C46     -H71     :  71.647975
 C44     -C5      -C46     -H72     :-165.558935
 C44     -C5      -C46     -H73     : -47.544423
 C45     -C5      -C44     -H41     :  66.614000
 C45     -C5      -C44     -H42     :-172.306985
 C45     -C5      -C44     -H43     : -53.229008
 C45     -C5      -C46     -H71     :-179.156610
 C45     -C5      -C46     -H72     : -56.363520
 C45     -C5      -C46     -H73     :  61.650992
 C46     -C5      -C44     -H41     : 175.674757
 C46     -C5      -C44     -H42     : -63.246228
 C46     -C5      -C44     -H43     :  55.831749
 C46     -C5      -C45     -H44     :-174.204155
 C46     -C5      -C45     -H45     : -54.318643
 C46     -C5      -C45     -H46     :  65.526944
 H47     -C7      -C8      -H48     :  -0.014398
 H48     -C8      -C9      -H49     :   0.221445
 H49     -C9      -C10     -H50     :  -0.200411
 H50     -C10     -C11     -H51     :  -0.033062
 H52     -C13     -C14     -H53     :  -0.054564
 H53     -C14     -C15     -H54     :   0.166023
 H54     -C15     -C40     -H31     :  -0.144941
 
  nuclear repulsion energy.......          4843.254238152 hartrees
 -------------------------------------------------
   end of geometry optimization iteration  1
 -------------------------------------------------
   
  end of program geopt
   
 Time(geopt)  user:       0.661  user+sys:       0.661  wallclock:       0.843
  
  start of program onee
  
  smallest eigenvalue of S:    3.973E-04
  number of canonical orbitals.....          596
  end of program onee
   
 Time(onee)  user:       4.292  user+sys:       4.292  wallclock:       3.263
  
  start of program probe
  
  end of program probe
   
 Time(probe)  user:       0.566  user+sys:       0.566  wallclock:       0.500
  
  start of program grid
  
  end of program grid
   
 Time(grid)  user:     282.228  user+sys:     282.228  wallclock:     143.396
  
  start of program rwr
  
  end of program rwr
   
 Time(rwr)  user:      17.588  user+sys:      17.588  wallclock:      21.904
  
  start of program scf
  
 Energy computed using pseudospectral method.
 Convergence Criterion:
    Energy (econv):       1.00E-05
    RMS density (dconv):  5.00E-06
  
       i  u  d  i  g                   
       t  p  i  c  r                                 RMS    maximum
       e  d  i  u  i                       energy  density   DIIS  
       r  t  s  t  d       total energy    change  change    error 
  
etot    1  N  N  2  U   -1863.50174011813           1.1E-03  1.6E-02
[...]
    H40      Z    -0.00022   0.00027   0.00004  -0.00014  -0.00016   0.00004
    H41      X     0.00014   0.00007   0.00002   0.00016   0.00013  -0.00008
    H41      Y    -0.00001  -0.00006   0.00003  -0.00011  -0.00013   0.00004
    H41      Z     0.00030   0.00031   0.00005   0.00038   0.00049  -0.00023
    H42      X     0.00048   0.00016   0.00014  -0.00002   0.00021  -0.00003
    H42      Y    -0.00050  -0.00020  -0.00013   0.00002  -0.00026   0.00003
    H42      Z    -0.00005  -0.00001  -0.00000   0.00001  -0.00003  -0.00001
    H43      X    -0.00035   0.00007  -0.00016  -0.00027   0.00005   0.00007
    H43      Y    -0.00055   0.00010  -0.00025  -0.00039   0.00009   0.00010
    H43      Z    -0.00032   0.00005  -0.00014  -0.00016   0.00004   0.00005
    H44      X    -0.00014   0.00260   0.00020   0.00038   0.00210  -0.00139
    H44      Y     0.00009  -0.00056  -0.00002  -0.00011  -0.00046   0.00016
    H44      Z    -0.00031   0.00574   0.00050   0.00117   0.00473  -0.00276
    H45      X    -0.00023   0.00035  -0.00002  -0.00043   0.00029   0.00011
    H45      Y    -0.00048   0.00076  -0.00009  -0.00072   0.00059   0.00006
    H45      Z    -0.00016   0.00007  -0.00004  -0.00021   0.00006   0.00016
    H46      X     0.00005  -0.00139   0.00002  -0.00111  -0.00100   0.00085
    H46      Y     0.00003  -0.00035  -0.00000   0.00011  -0.00024   0.00015
    H46      Z    -0.00004   0.00098  -0.00004   0.00070   0.00068  -0.00065
    H71      X    -0.00005   0.00019  -0.00003  -0.00295   0.00025   0.00024
    H71      Y     0.00009  -0.00023   0.00004   0.00320  -0.00025  -0.00025
    H71      Z     0.00001   0.00001   0.00001  -0.00036   0.00002   0.00004
    H72      X    -0.00002   0.00109   0.00023  -0.01118   0.00062   0.00053
    H72      Y     0.00001   0.00037   0.00009  -0.00405   0.00023   0.00020
    H72      Z     0.00004  -0.00089  -0.00017   0.00913  -0.00049  -0.00045
    H73      X    -0.00022   0.00011  -0.00012  -0.00061   0.00005   0.00005
    H73      Y    -0.00041   0.00028  -0.00021  -0.00182   0.00012   0.00015
    H73      Z    -0.00023   0.00011  -0.00013  -0.00075   0.00006   0.00005
  
  vibration #          211       212       213
                 --------- --------- ---------
  frequencies      3231.97   3233.95   3486.64
  intensities         6.12     10.92      3.69
  reduc. mass         0.86      0.79      0.94
  force const         5.27      4.84      6.73
    P1       X    -0.00001   0.00003  -0.00002
    P1       Y     0.00001   0.00000   0.00001
    P1       Z     0.00000   0.00012   0.00001
    Pd2      X     0.00000  -0.00001   0.00001
    Pd2      Y     0.00001  -0.00000   0.00003
    Pd2      Z     0.00000  -0.00000  -0.00005
    N2       X     0.00007  -0.00000   0.01875
    N2       Y     0.00056   0.00002   0.06401
    N2       Z    -0.00001   0.00000  -0.01532
    C16      X     0.00000   0.00000  -0.00001
    C16      Y    -0.00001  -0.00000  -0.00003
    C16      Z     0.00002  -0.00002   0.00002
    C17      X     0.00000   0.00001   0.00000
    C17      Y     0.00001   0.00007  -0.00000
    C17      Z    -0.00000  -0.00004   0.00004
    C18      X    -0.00001   0.00001  -0.00002
    C18      Y     0.00003   0.00005  -0.00016
    C18      Z     0.00002   0.00004  -0.00001
    C19      X     0.00000   0.00002  -0.00010
    C19      Y    -0.00002  -0.00000  -0.00013
    C19      Z    -0.00003  -0.00001  -0.00010
    C20      X     0.00014  -0.00001  -0.00002
    C20      Y     0.00083  -0.00003   0.00015
    C20      Z    -0.00045   0.00003  -0.00001
    C21      X     0.00000  -0.00001   0.00003
    C21      Y     0.00004  -0.00006   0.00001
    C21      Z     0.00009  -0.00004  -0.00002
    F10      X    -0.00000  -0.00000  -0.00000
    F10      Y    -0.00000  -0.00000   0.00000
    F10      Z     0.00000   0.00001  -0.00001
    H23      X     0.00000  -0.00015   0.00000
    H23      Y    -0.00018  -0.00075   0.00022
    H23      Z     0.00010   0.00046  -0.00015
    H24      X    -0.00008  -0.00008   0.00015
    H24      Y    -0.00057  -0.00056   0.00115
    H24      Z    -0.00032  -0.00034   0.00067
    H25      X    -0.00169   0.00008  -0.00029
    H25      Y    -0.00902   0.00032  -0.00090
    H25      Z     0.00448  -0.00019   0.00052
    H26      X    -0.00007   0.00010   0.00002
    H26      Y    -0.00077   0.00073  -0.00016
    H26      Z    -0.00057   0.00046  -0.00016
    H18      X    -0.00187  -0.00003  -0.27183
    H18      Y    -0.00156  -0.00011  -0.88980
    H18      Z     0.00217   0.00003   0.24763
    C22      X    -0.00299   0.00002   0.00001
    C22      Y     0.00304  -0.00003  -0.00015
    C22      Z     0.00423  -0.00003  -0.00005
    C23      X     0.00178  -0.00001   0.00017
    C23      Y     0.01708  -0.00005   0.00005
    C23      Z    -0.00022   0.00000  -0.00002
    C24      X     0.04870  -0.00001  -0.00043
    C24      Y     0.02457   0.00000  -0.00061
    C24      Z    -0.05966   0.00001   0.00042
    C25      X     0.00017   0.00001   0.00126
    C25      Y    -0.00335  -0.00002   0.00122
    C25      Z    -0.00062  -0.00002  -0.00298
    C26      X    -0.00048  -0.00000   0.00019
    C26      Y    -0.00160   0.00002  -0.00085
    C26      Z     0.00054   0.00000  -0.00023
    C27      X    -0.00182   0.00003  -0.00003
    C27      Y    -0.00103   0.00001   0.00015
    C27      Z     0.00226  -0.00004   0.00014
    H22      X     0.02577  -0.00021  -0.00060
    H22      Y    -0.03906   0.00034   0.00047
    H22      Z    -0.03827   0.00032   0.00043
    H27      X    -0.03058   0.00011  -0.00018
    H27      Y    -0.16794   0.00053   0.00105
    H27      Z     0.01944  -0.00007   0.00043
    H28      X    -0.56248   0.00006   0.00101
    H28      Y    -0.28813   0.00001  -0.00015
    H28      Z     0.68889  -0.00007  -0.00217
    H29      X     0.00331  -0.00000  -0.00230
    H29      Y     0.01803  -0.00011   0.00084
    H29      Z    -0.00310   0.00001   0.00178
    H30      X     0.01874  -0.00030   0.00006
    H30      Y     0.01059  -0.00016   0.00001
    H30      Z    -0.02350   0.00038  -0.00003
    C3       X     0.00001   0.00099   0.00001
    C3       Y    -0.00001  -0.00000  -0.00001
    C3       Z     0.00001  -0.00260   0.00000
    C4       X    -0.00006  -0.00006  -0.00003
    C4       Y    -0.00002  -0.00004   0.00001
    C4       Z     0.00006   0.00008   0.00003
    C5       X     0.00001  -0.00020   0.00000
    C5       Y     0.00001   0.00002   0.00001
    C5       Z     0.00000   0.00004   0.00000
    C6       X    -0.00002   0.00004   0.00002
    C6       Y    -0.00001   0.00003   0.00000
    C6       Z    -0.00000  -0.00003  -0.00003
    C7       X     0.00003  -0.00003  -0.00002
    C7       Y     0.00024  -0.00040   0.00003
    C7       Z    -0.00010   0.00023   0.00001
    C8       X     0.00005  -0.00011   0.00001
    C8       Y     0.00012  -0.00028   0.00000
    C8       Z     0.00008  -0.00022   0.00001
    C9       X    -0.00000  -0.00011  -0.00000
    C9       Y    -0.00002   0.00006   0.00001
    C9       Z     0.00001  -0.00045   0.00001
    C10      X     0.00000   0.00004  -0.00001
    C10      Y     0.00005   0.00046  -0.00002
    C10      Z    -0.00001  -0.00018  -0.00001
    C11      X    -0.00002   0.00003   0.00006
    C11      Y    -0.00003   0.00010  -0.00006
    C11      Z    -0.00002   0.00011   0.00001
    C12      X    -0.00000  -0.00041  -0.00000
    C12      Y     0.00000  -0.00011   0.00000
    C12      Z    -0.00001  -0.00049  -0.00001
    C13      X    -0.00000  -0.00246  -0.00001
    C13      Y    -0.00000  -0.00062  -0.00000
    C13      Z     0.00000  -0.00285   0.00000
    C14      X     0.00000  -0.00751   0.00000
    C14      Y    -0.00000  -0.00159  -0.00000
    C14      Z    -0.00000   0.00119  -0.00000
    C15      X    -0.00000  -0.00698   0.00000
    C15      Y    -0.00000   0.00026  -0.00000
    C15      Z     0.00001   0.02323  -0.00000
    C40      X     0.00001   0.05802  -0.00001
    C40      Y     0.00000   0.01427  -0.00000
    C40      Z     0.00001   0.05275  -0.00001
    C41      X    -0.00019   0.00001  -0.00000
    C41      Y    -0.00088  -0.00008   0.00000
    C41      Z     0.00230   0.00010  -0.00002
    C42      X    -0.00006  -0.00189   0.00001
    C42      Y     0.00006  -0.00015  -0.00001
    C42      Z     0.00002   0.00016  -0.00000
    C43      X    -0.00001   0.00003   0.00000
    C43      Y    -0.00014   0.00001   0.00001
    C43      Z     0.00100  -0.00002   0.00004
    C44      X    -0.00004   0.00005  -0.00010
    C44      Y     0.00002  -0.00005   0.00005
    C44      Z    -0.00007   0.00008  -0.00019
    C45      X     0.00000  -0.00025  -0.00000
    C45      Y     0.00000  -0.00010  -0.00001
    C45      Z    -0.00001   0.00035   0.00000
    C46      X    -0.00003  -0.00306  -0.00000
    C46      Y     0.00003  -0.00049   0.00001
    C46      Z     0.00000   0.00216  -0.00000
    H47      X    -0.00033   0.00042   0.00002
    H47      Y    -0.00271   0.00433  -0.00007
    H47      Z     0.00126  -0.00200   0.00003
    H48      X    -0.00052   0.00119  -0.00003
    H48      Y    -0.00133   0.00318  -0.00006
    H48      Z    -0.00101   0.00237  -0.00005
    H49      X    -0.00002   0.00120  -0.00001
    H49      Y     0.00002  -0.00071   0.00001
    H49      Z    -0.00010   0.00492  -0.00008
    H50      X    -0.00005  -0.00043   0.00001
    H50      Y    -0.00059  -0.00509   0.00010
    H50      Z     0.00025   0.00226  -0.00005
    H51      X     0.00010  -0.00022   0.00002
    H51      Y     0.00021  -0.00102   0.00025
    H51      Z     0.00015  -0.00088   0.00020
    H52      X     0.00002   0.02844   0.00005
    H52      Y     0.00001   0.00680   0.00001
    H52      Z     0.00001   0.02699   0.00002
    H53      X    -0.00005   0.07442  -0.00005
    H53      Y    -0.00001   0.01470  -0.00001
    H53      Z     0.00002  -0.02267   0.00002
    H54      X     0.00001   0.05369  -0.00002
    H54      Y     0.00000  -0.00660   0.00001
    H54      Z    -0.00005  -0.24655   0.00005
    H31      X    -0.00013  -0.66137   0.00007
    H31      Y    -0.00003  -0.16161   0.00003
    H31      Z    -0.00011  -0.60832   0.00006
    H32      X     0.00565   0.00038   0.00018
    H32      Y    -0.00006  -0.00013   0.00006
    H32      Z    -0.00061   0.00004  -0.00016
    H33      X    -0.00241  -0.00046   0.00008
    H33      Y     0.00473   0.00086  -0.00026
    H33      Z    -0.00028  -0.00012   0.00014
    H34      X     0.00622   0.00014  -0.00030
    H34      Y     0.00493   0.00013  -0.00004
    H34      Z    -0.03456  -0.00133   0.00045
    H35      X     0.00128   0.02047   0.00009
    H35      Y     0.00012   0.00263   0.00003
    H35      Z    -0.00045  -0.00480  -0.00007
    H36      X    -0.00022   0.00067  -0.00002
    H36      Y    -0.00029   0.00168   0.00002
    H36      Z    -0.00014   0.00176  -0.00002
    H37      X     0.00016   0.00292   0.00004
    H37      Y    -0.00049  -0.00466  -0.00015
    H37      Z     0.00011   0.00006   0.00010
    H38      X     0.00165   0.00023   0.00023
    H38      Y     0.00429  -0.00001  -0.00010
    H38      Z    -0.01007  -0.00018   0.00075
    H39      X     0.00018  -0.00034   0.00008
    H39      Y    -0.00058   0.00047  -0.00002
    H39      Z     0.00076  -0.00000  -0.00014
    H40      X    -0.00217  -0.00012  -0.00019
    H40      Y    -0.00283  -0.00011  -0.00020
    H40      Z    -0.00377  -0.00007  -0.00048
    H41      X     0.00037  -0.00044   0.00093
    H41      Y    -0.00034   0.00036  -0.00137
    H41      Z     0.00084  -0.00091   0.00366
    H42      X     0.00004   0.00028  -0.00037
    H42      Y     0.00004  -0.00014   0.00026
    H42      Z    -0.00012  -0.00005  -0.00079
    H43      X     0.00005  -0.00009   0.00013
    H43      Y     0.00005  -0.00003   0.00037
    H43      Z     0.00006  -0.00000   0.00040
    H44      X     0.00004  -0.00038   0.00000
    H44      Y    -0.00001   0.00040  -0.00002
    H44      Z     0.00007  -0.00241  -0.00001
    H45      X    -0.00002   0.00031   0.00004
    H45      Y    -0.00007   0.00040   0.00004
    H45      Z    -0.00002   0.00006   0.00001
    H46      X    -0.00003   0.00317  -0.00007
    H46      Y    -0.00000  -0.00022   0.00002
    H46      Z     0.00003  -0.00158   0.00003
    H71      X     0.00023   0.00694   0.00010
    H71      Y    -0.00019  -0.00803  -0.00007
    H71      Z     0.00007   0.00112   0.00003
    H72      X     0.00009   0.03767  -0.00006
    H72      Y     0.00002   0.01409  -0.00005
    H72      Z    -0.00006  -0.02954   0.00008
    H73      X    -0.00003   0.00080   0.00000
    H73      Y    -0.00013   0.00373  -0.00004
    H73      Z    -0.00004   0.00177   0.00002
  
  Number of imaginary frequencies:   0
   
  Writing vibrational animation data to red_elim_N_trans_L1_PL139.vib
  Writing IR vibrational spectrum data to red_elim_N_trans_L1_PL139_vib.spm
  rotational symmetry number:  1

  rotational temperatures (K):      0.007599      0.004120      0.003352
   
  The Quasi-Harmonic approximation will be applied to compute
  vibrational constributions to thermodynamic properties.
  Frequencies will be adjusted to a minimum value of  100.00 cm^-1.

  vibrational temperatures:
       mode:      1        2        3        4        5        6
  temp. (K):   143.88   143.88   143.88   143.88   143.88   143.88
   
       mode:      7        8        9       10       11       12
  temp. (K):   143.88   143.88   143.88   143.88   143.88   155.26
   
       mode:     13       14       15       16       17       18
  temp. (K):   162.13   167.49   169.29   180.42   199.84   209.02
   
       mode:     19       20       21       22       23       24
  temp. (K):   230.81   255.48   286.66   295.38   312.27   326.31
   
       mode:     25       26       27       28       29       30
  temp. (K):   347.63   349.79   362.61   368.34   383.52   387.49
   
       mode:     31       32       33       34       35       36
  temp. (K):   404.33   418.74   451.07   464.31   474.44   478.58
   
       mode:     37       38       39       40       41       42
  temp. (K):   487.29   501.39   509.64   519.03   528.72   558.64
   
       mode:     43       44       45       46       47       48
  temp. (K):   580.52   585.35   589.10   594.31   599.87   602.50
   
       mode:     49       50       51       52       53       54
  temp. (K):   608.48   622.63   666.36   701.25   729.03   741.32
   
       mode:     55       56       57       58       59       60
  temp. (K):   754.94   790.00   800.35   806.27   831.38   843.75
   
       mode:     61       62       63       64       65       66
  temp. (K):   857.46   896.81   899.48   903.83   909.08   914.26
   
       mode:     67       68       69       70       71       72
  temp. (K):  1003.80  1017.67  1023.56  1032.22  1095.16  1108.12
   
       mode:     73       74       75       76       77       78
  temp. (K):  1112.54  1122.76  1139.88  1144.22  1175.22  1187.40
   
       mode:     79       80       81       82       83       84
  temp. (K):  1195.56  1196.60  1203.80  1209.91  1224.77  1245.33
   
       mode:     85       86       87       88       89       90
  temp. (K):  1281.97  1304.14  1343.43  1346.99  1360.25  1377.89
   
       mode:     91       92       93       94       95       96
  temp. (K):  1378.99  1385.46  1390.65  1403.07  1415.85  1418.95
   
       mode:     97       98       99      100      101      102
  temp. (K):  1421.20  1422.50  1423.19  1451.40  1457.37  1459.46
   
       mode:    103      104      105      106      107      108
  temp. (K):  1466.31  1474.60  1481.58  1503.70  1516.35  1524.43
   
       mode:    109      110      111      112      113      114
  temp. (K):  1527.56  1528.06  1535.52  1545.16  1560.30  1597.40
   
       mode:    115      116      117      118      119      120
  temp. (K):  1605.36  1606.49  1615.19  1686.27  1719.72  1723.47
   
       mode:    121      122      123      124      125      126
  temp. (K):  1738.09  1741.65  1748.29  1753.53  1754.50  1760.75
   
       mode:    127      128      129      130      131      132
  temp. (K):  1775.36  1781.87  1796.09  1799.78  1810.32  1832.02
   
       mode:    133      134      135      136      137      138
  temp. (K):  1849.67  1877.95  1886.65  1901.12  1923.47  1934.64
   
       mode:    139      140      141      142      143      144
  temp. (K):  1954.82  1981.95  1988.87  2015.91  2043.47  2051.06
   
       mode:    145      146      147      148      149      150
  temp. (K):  2053.65  2056.51  2060.15  2094.68  2106.32  2119.04
   
       mode:    151      152      153      154      155      156
  temp. (K):  2131.93  2158.46  2163.69  2167.41  2174.14  2177.85
   
       mode:    157      158      159      160      161      162
  temp. (K):  2180.46  2181.16  2193.29  2197.59  2200.34  2203.38
   
       mode:    163      164      165      166      167      168
  temp. (K):  2209.33  2212.81  2217.80  2218.96  2225.09  2247.67
   
       mode:    169      170      171      172      173      174
  temp. (K):  2334.68  2346.02  2358.64  2366.69  2372.30  2380.20
   
       mode:    175      176      177      178      179      180
  temp. (K):  2385.44  2397.36  4368.37  4373.46  4375.46  4378.90
   
       mode:    181      182      183      184      185      186
  temp. (K):  4383.77  4386.22  4475.35  4476.59  4480.01  4487.30
   
       mode:    187      188      189      190      191      192
  temp. (K):  4493.00  4496.01  4513.04  4519.79  4519.91  4538.35
   
       mode:    193      194      195      196      197      198
  temp. (K):  4555.15  4556.12  4556.39  4560.19  4565.85  4583.46
   
       mode:    199      200      201      202      203      204
  temp. (K):  4589.73  4591.39  4595.32  4599.59  4604.71  4609.34
   
       mode:    205      206      207      208      209      210
  temp. (K):  4610.36  4616.49  4620.24  4623.53  4626.29  4643.49
   
       mode:    211      212      213
  temp. (K):  4650.07  4652.92  5016.50
   
   
  Thermodynamic properties calculated assuming an ideal gas

  In the table below, the units for temperature
  are kelvins, the units for U, H, and G are
  kcal/mol and the units for Cv and S are cal/(mol K)

  The zero point energy (ZPE):    385.462 kcal/mol
  is not included in U, H, or G in the table below
  
 
  =============================================================================
  Thermodynamic properties for P = 1.00E+00 atm, calculated at   1 temperatures


  T =   298.15 K, P = 1.00E+00 atm
   
                  U         Cv          S          H          G        ln(Q)
              =========  =========  =========  =========  =========  =========
  trans.          0.889      2.981     45.015      1.481    -11.940   20.15227
  rot.            0.889      2.981     37.069      0.889    -10.163   17.15360
  vib.           20.177    135.629    121.242     20.177    -15.972   26.95696
  elec.           0.000      0.000      0.000      0.000      0.000    0.00000
  ----------------------------------------------------------------------------
  total          21.954    141.590    203.325     22.547    -38.075   64.26284
   
   Total internal energy, Utot(SCFE + ZPE + U):   -1863.318283 hartrees
   Total enthalpy, Htot (Utot + nRT), with n=1:   -1863.317339 hartrees
    Total Gibbs free energy, Gtot (Htot - T*S):   -1863.413945 hartrees
   
  end of program freq
   
 Time(freq)  user:       0.347  user+sys:       0.347  wallclock:       0.518
  
  start of program post
  
  Writing input files for PBF
  end of program post
   
 Time(post)  user:       0.180  user+sys:       0.180  wallclock:       0.152

 Total cpu seconds     user:   79139.436   user+sys:   79139.436
  
 Total elapsed time:    45491 seconds

Job red_elim_N_trans_L1_PL139 completed on bp1-compute052.data.bp.acrc.priv at Wed Apr 30 17:50:11 2025
