Job red_elim_complex_L1_PL139 started on bp1-compute086.data.bp.acrc.priv at Thu Apr 24 01:17:45 2025
jobid: bp1-compute086-0-68098325

  +--------------------------------------------------------------------+
  |  Jaguar version 12.5, release 138                                  |
  |                                                                    |
  |  Copyright Schrodinger, Inc.                                       |
  |  All Rights Reserved.                                              |
  |                                                                    |
  |  The following have contributed to Jaguar (listed alphabetically): |
  |  Ty Balduf, Mike Beachy, Chandler Bennett, Art Bochevarov,         |
  |  Dale Braden, Yixiang Cao, Alan Chien, Chris Cortis,               |
  |  Rich Friesner, Jim Furness, Bill Goddard, Hod Greeley,            |
  |  Tom Hughes, Leif Jacobson, Jean-Marc Langlois, Daniel Levine,     |
  |  Rob Murphy, Dean Philipp, Tom Pollard, Murco Ringnalda,           |
  |  Daniel Mainz, Pablo Videla, Mark Watson, Haoyu Yu.                |
  |                                                                    |
  |  Use of this program should be acknowledged in publications as:    |
  |                                                                    |
  |  Jaguar, version 12.5, Schrodinger, Inc., New York, NY, 2024.      |
  |                                                                    |
  |  A. D. Bochevarov, E. Harder, T. F. Hughes, J. R. Greenwood,       |
  |  D. A. Braden, D. M. Philipp, D. Rinaldo, M. D. Halls,             |
  |  J. Zhang, R. A. Friesner, "Jaguar: A High-Performance Quantum     |
  |  Chemistry Software Program with Strengths in Life and Materials   |
  |  Sciences", Int. J. Quantum Chem., 2013, 113(18), 2110-2142.       |
  +--------------------------------------------------------------------+
  
  start of program pre
  
  Job name: red_elim_complex_L1_PL139
  Executables used: /software/local/apps/schrodinger2024-3/jaguar-v12.5/bin/Linux-x86_64
  Temporary files : /tmp/ar21627/red_elim_complex_L1_PL139#bp1-compute086-0-68098325
  Basis file : using default basis file from /software/local/apps/schrodinger2024-3
  Maestro file (input):  red_elim_complex_L1_PL139.mae
  Maestro file (output): red_elim_complex_L1_PL139.01.mae
  
 Contents of input file: &gen and (if present) &atomic sections only
 ----------------Contents start----------------
&gen
dftname=b3pw91-d3
basis=6-31G*
numd=5
ip11=2
iaccg=3
isolv=2
igeopt=1
solvent=benzene
ifreq=1
&
&atomic
atom basis
Pd2 lacv3p*
&
 -----------------Contents end-----------------
 
  PS calculation requested. Using PS version of 6-31g*
  basis set:               non_standard                    
  net molecular charge:    0
  multiplicity:            1
  
  Using up to   4 threads per process
  
  This run will use ECP on 1 atom
  number of basis functions....          599
  
 Input geometry:
                                   angstroms
  atom               x                 y                 z
  P1            0.0000000000      0.0000000000      0.0000000000 
  Pd2           0.0000000000      0.0000000000      2.2372247470 
  N2           -2.5207554419      2.5741107058      4.8907452314 
  C16          -0.1211391404     -0.9403062886      4.4457014812 
  C17          -1.5182210321     -1.0231627617      4.6196257807 
  C18          -2.3081985747      0.1082586598      4.8126200131 
  C19          -1.7495234947      1.4004386622      4.7653994282 
  C20          -0.3663025738      1.5051846776      4.5350388636 
  C21           0.4461576293      0.3602001654      4.4190706022 
  F22           0.6417735505     -2.0319042879      4.5028594562 
  H23          -1.9840779890     -2.0068286922      4.6526301188 
  H24          -3.3703954136     -0.0235848480      4.9937145601 
  H25           0.0941654646      2.4864610509      4.4566821476 
  H26           1.5297876129      0.4773440431      4.4102190347 
  H30          -3.5240921550      2.4845119639      4.8173456027 
  C28          -1.3467874555      5.2903414471      7.9751511998 
  C29          -0.8214000097      5.4289099755      6.6799210872 
  C30          -1.2071559662      4.5363795149      5.6664113592 
  C31          -2.1182993685      3.5052805258      5.9481317438 
  C32          -2.6437142800      3.3666484494      7.2432896948 
  C33          -2.2579308578      4.2592424580      8.2568715845 
  H34          -1.0437307422      5.9915291318      8.7713823342 
  H35          -0.1055663603      6.2390358845      6.4587134967 
  H36          -0.7944064735      4.6452541861      4.6489004687 
  H37          -3.3594614141      2.5566341701      7.4645046294 
  H38          -2.6706803352      4.1503677746      9.2743824798 
  C3            1.4037020000      0.0000000000     -0.5287930000 
  C4           -0.7175880000      1.2185950000     -0.5000930000 
  C5           -0.6270920000     -1.2611540000     -0.5159910000 
  C6            2.7260500000     -0.4853270000      1.6271060000 
  C7            3.2037415467      0.4890420836      2.5421914869 
  C8            3.3427076298      0.2842074305      3.9252858075 
  C9            3.0029181845     -0.9436439155      4.4993369091 
  C10           2.5252920939     -1.9426734330      3.6472603508 
  C11           2.3990175195     -1.7026668968      2.2690586205 
  C12           2.6019460000     -0.2304150000      0.2176440000 
  C13           3.7878870000     -0.1958030000     -0.5613940000 
  C14           3.8431800000      0.0372740000     -1.9422500000 
  C15           2.6594980000      0.2557690000     -2.6437450000 
  C40           1.4669940000      0.2303350000     -1.9171010000 
  C41           0.2640520000      2.4117330000     -0.4822660000 
  C42          -1.4101740000      1.1825170000     -1.8807340000 
  C43          -1.8189460000      1.5454690000      0.5361260000 
  C44          -2.1080070000     -1.3722510000     -0.0979990000 
  C45           0.1221730000     -2.4158010000      0.1891870000 
  C22          -0.5185810000     -1.5249020000     -2.0327640000 
  H47           3.5106140782      1.4986757485      2.2438585944 
  H48           3.7228140409      1.0933906243      4.5725414540 
  H49           3.1073365851     -1.1176845047      5.5835144817 
  H50           2.2473488768     -2.9241184415      4.0688263639 
  H27           2.0137140197     -2.5696189083      1.7348519269 
  H28           4.7885530000     -0.3513670000     -0.1424820000 
  H29           4.8080470000      0.0488480000     -2.4782120000 
  H54           2.6670950000      0.4405860000     -3.7314160000 
  H31           0.5556520000      0.4025780000     -2.4991290000 
  H32           1.0643220000      2.3023090000     -1.2470840000 
  H33          -0.2516670000      3.3752090000     -0.6985240000 
  H58           0.7608810000      2.5175410000      0.5094590000 
  H59          -0.7084710000      1.0355330000     -2.7274080000 
  H60          -2.1957070000      0.3992420000     -1.9347810000 
  H61          -1.9262770000      2.1470210000     -2.0906830000 
  H62          -1.3958000000      1.6592640000      1.5607770000 
  H39          -2.3500650000      2.4951940000      0.2968930000 
  H40          -2.5919700000      0.7468300000      0.5862940000 
  H41          -2.2342810000     -1.2048910000      0.9961800000 
  H42          -2.7473770000     -0.6357650000     -0.6300580000 
  H43          -2.5273370000     -2.3781680000     -0.3286700000 
  H44           0.0340770000     -2.3450000000      1.2976900000 
  H45          -0.2765190000     -3.4128720000     -0.1076560000 
  H46           1.2083020000     -2.4115640000     -0.0586600000 
  H71          -0.9941950000     -0.7270730000     -2.6402850000 
  H72           0.5384110000     -1.6346130000     -2.3615300000 
  H73          -1.0269740000     -2.4759130000     -2.3116700000 
   
  principal moments of inertia:
        amu*angstrom^2:              2857.39823              7174.49267              7760.13368
                g*cm^2:          4.74482080E-37          1.19135239E-36          1.28860035E-36
   
  rotational constants:
               cm^(-1):      0.00589964      0.00234966      0.00217234
                   GHz:      0.17686684      0.07044108      0.06512504
   
  Molecular weight:     591.17 amu
   
  Stoichiometry: PdC32PNH37F
  Molecular Point Group: C1      
  Point Group used: C1
  
 
Number of optimization coordinates:   254
Number of independent coordinates:    254
Number of non-redundant coordinates:  213
Number of frozen coordinates:           0
Number of harmonic constraints:         0
 
Number of geometric degrees of freedom:   213
Maximum geometric degrees of freedom:     213
 " " " " " excluding dummy atoms:         213
 
 
  bond lengths (angstroms):
 
 P1      -Pd2     :   2.237225      P1      -C3      :   1.500000
 P1      -C4      :   1.500000      P1      -C5      :   1.500000
 Pd2     -C16     :   2.403377      Pd2     -C21     :   2.255937
 N2      -C19     :   1.409970      N2      -H30     :   1.010000
 N2      -C31     :   1.465304      C16     -C17     :   1.410302
 C16     -C21     :   1.419102      C16     -F22     :   1.333000
 C17     -C18     :   1.393351      C17     -H23     :   1.088903
 C18     -C19     :   1.408573      C18     -H24     :   1.085560
 C19     -C20     :   1.406178      C20     -C21     :   1.408733
 C20     -H25     :   1.086772      C21     -H26     :   1.089979
 C28     -C29     :   1.404583      C28     -C33     :   1.404533
 C28     -H34     :   1.103400      C29     -C30     :   1.404500
 C29     -H35     :   1.103474      C30     -C31     :   1.404533
 C30     -H36     :   1.103424      C31     -C32     :   1.404533
 C32     -C33     :   1.404600      C32     -H37     :   1.103337
 C33     -H38     :   1.103424      C3      -C12     :   1.430401
 C3      -C40     :   1.408708      C4      -C41     :   1.545158
 C4      -C42     :   1.545039      C4      -C43     :   1.547122
 C5      -C44     :   1.542780      C5      -C45     :   1.546572
 C5      -C22     :   1.543353      C6      -C7      :   1.419495
 C6      -C11     :   1.414556      C6      -C12     :   1.437694
 C7      -C8      :   1.405069      C7      -H47     :   1.096601
 C8      -C9      :   1.397358      C8      -H48     :   1.103720
 C9      -C10     :   1.397219      C9      -H49     :   1.103011
 C10     -C11     :   1.404631      C10     -H50     :   1.103723
 C11     -H27     :   1.088780      C12     -C13     :   1.419350
 C13     -C14     :   1.401480      C13     -H28     :   1.095911
 C14     -C15     :   1.393176      C14     -H29     :   1.103792
 C15     -C40     :   1.396683      C15     -H54     :   1.103287
 C40     -H31     :   1.094974      C41     -H32     :   1.112363
 C41     -H33     :   1.114011      C41     -H58     :   1.114250
 C42     -H59     :   1.109436      C42     -H60     :   1.110632
 C42     -H61     :   1.113871      C43     -H62     :   1.114411
 C43     -H39     :   1.114135      C43     -H40     :   1.112613
 C44     -H41     :   1.114084      C44     -H42     :   1.110987
 C44     -H43     :   1.113964      C45     -H44     :   1.114250
 C45     -H45     :   1.114101      C45     -H46     :   1.114057
 C22     -H71     :   1.109875      C22     -H72     :   1.112365
 C22     -H73     :   1.113855
 
  bond angles:
 
 C3      -P1      -Pd2     : 110.642051  C4      -P1      -Pd2     : 109.474992
 C4      -P1      -C3      : 109.277784  C5      -P1      -Pd2     : 110.120396
 C5      -P1      -C3      : 105.661559  C5      -P1      -C4      : 111.614203
 C16     -Pd2     -P1      : 156.766629  C21     -Pd2     -P1      : 165.275065
 C21     -Pd2     -C16     :  35.284987  H30     -N2      -C19     : 117.585448
 C31     -N2      -C19     : 116.288852  C31     -N2      -H30     : 112.436635
 C17     -C16     -Pd2     : 100.733458  C21     -C16     -Pd2     :  66.675353
 C21     -C16     -C17     : 116.882693  F22     -C16     -Pd2     : 109.326162
 F22     -C16     -C17     : 120.901465  F22     -C16     -C21     : 121.498685
 C18     -C17     -C16     : 122.074592  H23     -C17     -C16     : 118.726060
 H23     -C17     -C18     : 119.129165  C19     -C18     -C17     : 121.024324
 H24     -C18     -C17     : 118.636186  H24     -C18     -C19     : 120.337843
 C18     -C19     -N2      : 122.935719  C20     -C19     -N2      : 119.380807
 C20     -C19     -C18     : 117.643977  C21     -C20     -C19     : 121.349523
 H25     -C20     -C19     : 119.726173  H25     -C20     -C21     : 118.919471
 C16     -C21     -Pd2     :  78.039661  C20     -C21     -Pd2     :  95.470370
 C20     -C21     -C16     : 120.847442  H26     -C21     -Pd2     : 101.883610
 H26     -C21     -C16     : 119.740527  H26     -C21     -C20     : 119.123130
 C33     -C28     -C29     : 120.002746  H34     -C28     -C29     : 120.000393
 H34     -C28     -C33     : 119.996861  C30     -C29     -C28     : 120.000393
 H35     -C29     -C28     : 119.995826  H35     -C29     -C30     : 120.003781
 C31     -C30     -C29     : 119.996860  H36     -C30     -C29     : 119.999284
 H36     -C30     -C31     : 120.003855  C30     -C31     -N2      : 119.996860
 C32     -C31     -N2      : 119.996860  C32     -C31     -C30     : 120.006279
 C33     -C32     -C31     : 119.996860  H37     -C32     -C31     : 120.001259
 H37     -C32     -C33     : 120.001881  C32     -C33     -C28     : 119.996860
 H38     -C33     -C28     : 120.003855  H38     -C33     -C32     : 119.999284
 C12     -C3      -P1      : 126.866735  C40     -C3      -P1      : 112.921406
 C40     -C3      -C12     : 120.197482  C41     -C4      -P1      : 108.635479
 C42     -C4      -P1      : 119.564083  C42     -C4      -C41     : 108.247562
 C43     -C4      -P1      : 106.792043  C43     -C4      -C41     : 106.342742
 C43     -C4      -C42     : 106.518855  C44     -C5      -P1      : 111.631893
 C45     -C5      -P1      : 105.564318  C45     -C5      -C44     : 106.722903
 C22     -C5      -P1      : 116.895060  C22     -C5      -C44     : 108.750722
 C22     -C5      -C45     : 106.646205  C11     -C6      -C7      : 112.083859
 C12     -C6      -C7      : 122.638665  C12     -C6      -C11     : 125.277476
 C8      -C7      -C6      : 124.596171  H47     -C7      -C6      : 123.420160
 H47     -C7      -C8      : 111.983632  C9      -C8      -C7      : 120.559660
 H48     -C8      -C7      : 120.294259  H48     -C8      -C9      : 119.146078
 C10     -C9      -C8      : 117.443483  H49     -C9      -C8      : 121.293605
 H49     -C9      -C10     : 121.262909  C11     -C10     -C9      : 120.458961
 H50     -C10     -C9      : 119.271939  H50     -C10     -C11     : 120.269097
 C10     -C11     -C6      : 124.857824  H27     -C11     -C6      : 122.983415
 H27     -C11     -C10     : 112.158723  C6      -C12     -C3      : 127.767778
 C13     -C12     -C3      : 114.179167  C13     -C12     -C6      : 118.053050
 C14     -C13     -C12     : 125.296897  H28     -C13     -C12     : 123.344249
 H28     -C13     -C14     : 111.358848  C15     -C14     -C13     : 119.253491
 H29     -C14     -C13     : 120.974078  H29     -C14     -C15     : 119.772406
 C40     -C15     -C14     : 117.425968  H54     -C15     -C14     : 121.118955
 H54     -C15     -C40     : 121.455055  C15     -C40     -C3      : 123.646561
 H31     -C40     -C3      : 120.808706  H31     -C40     -C15     : 115.544693
 H32     -C41     -C4      : 111.910845  H33     -C41     -C4      : 111.807544
 H33     -C41     -H32     : 106.538408  H58     -C41     -C4      : 111.522463
 H58     -C41     -H32     : 107.488352  H58     -C41     -H33     : 107.281718
 H59     -C42     -C4      : 113.673662  H60     -C42     -C4      : 112.148234
 H60     -C42     -H59     : 108.467982  H61     -C42     -C4      : 110.849242
 H61     -C42     -H59     : 105.303521  H61     -C42     -H60     : 105.890065
 H62     -C43     -C4      : 111.536748  H39     -C43     -C4      : 112.063982
 H39     -C43     -H62     : 106.941488  H40     -C43     -C4      : 111.909518
 H40     -C43     -H62     : 107.196505  H40     -C43     -H39     : 106.879073
 H41     -C44     -C5      : 111.350636  H42     -C44     -C5      : 112.020047
 H42     -C44     -H41     : 107.790504  H43     -C44     -C5      : 111.731603
 H43     -C44     -H41     : 107.239005  H43     -C44     -H42     : 106.428016
 H44     -C45     -C5      : 111.584181  H45     -C45     -C5      : 111.919355
 H45     -C45     -H44     : 107.076047  H46     -C45     -C5      : 111.595099
 H46     -C45     -H44     : 107.347393  H46     -C45     -H45     : 107.038637
 H71     -C22     -C5      : 112.642254  H72     -C22     -C5      : 111.970515
 H72     -C22     -H71     : 108.440249  H73     -C22     -C5      : 111.094202
 H73     -C22     -H71     : 106.325725  H73     -C22     -H72     : 105.991230
 
  torsional angles:
 
 P1      -Pd2     -C16     -C17     : -82.913656
 P1      -Pd2     -C16     -C21     : 162.286955
 P1      -Pd2     -C16     -F22     :  45.431764
 P1      -Pd2     -C21     -C16     :-151.823722
 P1      -Pd2     -C21     -C20     :  87.762344
 P1      -Pd2     -C21     -H26     : -33.554844
 P1      -C3      -C12     -C6      :  -1.244791
 P1      -C3      -C12     -C13     : 178.729711
 P1      -C3      -C40     -C15     :-178.962339
 P1      -C3      -C40     -H31     :   0.961507
 P1      -C4      -C41     -H32     :  69.066294
 P1      -C4      -C41     -H33     :-171.500578
 P1      -C4      -C41     -H58     : -51.385074
 P1      -C4      -C42     -H59     : -63.625205
 P1      -C4      -C42     -H60     :  59.871656
 P1      -C4      -C42     -H61     : 177.992778
 P1      -C4      -C43     -H62     :  54.960151
 P1      -C4      -C43     -H39     : 174.826861
 P1      -C4      -C43     -H40     : -65.126497
 P1      -C5      -C44     -H41     : -50.476119
 P1      -C5      -C44     -H42     :  70.318293
 P1      -C5      -C44     -H43     :-170.366999
 P1      -C5      -C45     -H44     :  59.004770
 P1      -C5      -C45     -H45     : 178.976975
 P1      -C5      -C45     -H46     : -61.091110
 P1      -C5      -C22     -H71     : -60.037413
 P1      -C5      -C22     -H72     :  62.500013
 P1      -C5      -C22     -H73     :-179.204233
 Pd2     -P1      -C3      -C12     :  11.615731
 Pd2     -P1      -C3      -C40     :-169.774349
 Pd2     -P1      -C4      -C41     :  82.405157
 Pd2     -P1      -C4      -C42     :-152.760667
 Pd2     -P1      -C4      -C43     : -31.921688
 Pd2     -P1      -C5      -C44     :  62.890670
 Pd2     -P1      -C5      -C45     : -52.690285
 Pd2     -P1      -C5      -C22     :-171.030664
 Pd2     -C16     -C17     -C18     : -71.748605
 Pd2     -C16     -C17     -H23     : 111.326007
 Pd2     -C16     -C21     -C20     :  89.254405
 Pd2     -C16     -C21     -H26     : -96.972894
 Pd2     -C21     -C16     -C17     : -90.504365
 Pd2     -C21     -C16     -F22     :  99.117909
 Pd2     -C21     -C20     -C19     :  83.408039
 Pd2     -C21     -C20     -H25     : -97.394042
 N2      -C19     -C18     -C17     : 176.857126
 N2      -C19     -C18     -H24     :  -2.669570
 N2      -C19     -C20     -C21     : 179.233852
 N2      -C19     -C20     -H25     :   0.042302
 N2      -C31     -C30     -C29     : 180.000000
 N2      -C31     -C30     -H36     :   0.000000
 N2      -C31     -C32     -C33     : 180.000000
 N2      -C31     -C32     -H37     :   0.000000
 C16     -Pd2     -P1      -C3      : -97.340949
 C16     -Pd2     -P1      -C4      : 142.166707
 C16     -Pd2     -P1      -C5      :  19.097300
 C16     -Pd2     -C21     -C20     :-120.413934
 C16     -Pd2     -C21     -H26     : 118.268878
 C16     -C17     -C18     -C19     :   3.700747
 C16     -C17     -C18     -H24     :-176.764674
 C16     -C21     -C20     -C19     :   4.086057
 C16     -C21     -C20     -H25     :-176.716024
 C17     -C16     -Pd2     -C21     : 114.799388
 C17     -C16     -C21     -C20     :  -1.249960
 C17     -C16     -C21     -H26     : 172.522741
 C17     -C18     -C19     -C20     :  -0.839770
 C18     -C17     -C16     -C21     :  -2.586277
 C18     -C17     -C16     -F22     : 167.852571
 C18     -C19     -N2      -H30     : -13.028486
 C18     -C19     -N2      -C31     : 124.565051
 C18     -C19     -C20     -C21     :  -2.984375
 C18     -C19     -C20     -H25     : 177.824075
 C19     -N2      -C31     -C30     :  91.254032
 C19     -N2      -C31     -C32     : -88.745968
 C19     -C18     -C17     -H23     :-179.385855
 C19     -C20     -C21     -H26     :-169.724537
 C20     -C19     -N2      -H30     : 164.630145
 C20     -C19     -N2      -C31     : -57.776318
 C20     -C19     -C18     -H24     : 179.633534
 C20     -C21     -C16     -F22     :-171.627686
 C21     -Pd2     -P1      -C3      :  38.915268
 C21     -Pd2     -P1      -C4      : -81.577076
 C21     -Pd2     -P1      -C5      : 155.353517
 C21     -Pd2     -C16     -F22     :-116.855191
 C21     -C16     -C17     -H23     :-179.511665
 F22     -C16     -C17     -H23     :  -9.072817
 F22     -C16     -C21     -H26     :   2.145015
 H23     -C17     -C18     -H24     :   0.148724
 H25     -C20     -C21     -H26     :   9.473381
 H30     -N2      -C31     -C30     :-129.037283
 H30     -N2      -C31     -C32     :  50.962717
 C28     -C29     -C30     -C31     :   0.000000
 C28     -C29     -C30     -H36     : 180.000000
 C28     -C33     -C32     -C31     :   0.000001
 C28     -C33     -C32     -H37     :-179.999999
 C29     -C28     -C33     -C32     :   0.000000
 C29     -C28     -C33     -H38     : 179.999999
 C29     -C30     -C31     -C32     :   0.000000
 C30     -C29     -C28     -C33     :   0.000000
 C30     -C29     -C28     -H34     : 179.999999
 C30     -C31     -C32     -C33     :   0.000000
 C30     -C31     -C32     -H37     : 180.000000
 C31     -C30     -C29     -H35     : 180.000000
 C31     -C32     -C33     -H38     :-179.999999
 C32     -C31     -C30     -H36     : 180.000000
 C32     -C33     -C28     -H34     :-179.999999
 C33     -C28     -C29     -H35     : 180.000000
 H34     -C28     -C29     -H35     :  -0.000001
 H34     -C28     -C33     -H38     :   0.000000
 H35     -C29     -C30     -H36     :   0.000000
 H37     -C32     -C33     -H38     :   0.000000
 C3      -P1      -C4      -C41     : -38.914883
 C3      -P1      -C4      -C42     :  85.919293
 C3      -P1      -C4      -C43     :-153.241727
 C3      -P1      -C5      -C44     :-177.595796
 C3      -P1      -C5      -C45     :  66.823249
 C3      -P1      -C5      -C22     : -51.517131
 C3      -C12     -C6      -C7      :-105.457153
 C3      -C12     -C6      -C11     :  74.547585
 C3      -C12     -C13     -C14     :  -0.059613
 C3      -C12     -C13     -H28     : 179.909160
 C3      -C40     -C15     -C14     :   0.107798
 C3      -C40     -C15     -H54     :-179.945215
 C4      -P1      -C3      -C12     : 132.225580
 C4      -P1      -C3      -C40     : -49.164500
 C4      -P1      -C5      -C44     : -58.917219
 C4      -P1      -C5      -C45     :-174.498174
 C4      -P1      -C5      -C22     :  67.161446
 C5      -P1      -C3      -C12     :-107.553020
 C5      -P1      -C3      -C40     :  71.056900
 C5      -P1      -C4      -C41     :-155.415056
 C5      -P1      -C4      -C42     : -30.580880
 C5      -P1      -C4      -C43     :  90.258099
 C6      -C7      -C8      -C9      :  -0.011981
 C6      -C7      -C8      -H48     : 179.970654
 C6      -C11     -C10     -C9      :   0.040255
 C6      -C11     -C10     -H50     :-179.980554
 C6      -C12     -C3      -C40     :-179.763430
 C6      -C12     -C13     -C14     : 179.917547
 C6      -C12     -C13     -H28     :  -0.113679
 C7      -C6      -C11     -C10     :  -0.074732
 C7      -C6      -C11     -H27     : 179.848321
 C7      -C6      -C12     -C13     :  74.569205
 C7      -C8      -C9      -C10     :  -0.029064
 C7      -C8      -C9      -H49     : 179.990200
 C8      -C7      -C6      -C11     :   0.060605
 C8      -C7      -C6      -C12     :-179.935221
 C8      -C9      -C10     -C11     :   0.015975
 C8      -C9      -C10     -H50     :-179.963423
 C9      -C8      -C7      -H47     :-179.943483
 C9      -C10     -C11     -H27     :-179.890053
 C10     -C9      -C8      -H48     : 179.988104
 C10     -C11     -C6      -C12     : 179.920963
 C11     -C6      -C7      -H47     : 179.984505
 C11     -C6      -C12     -C13     :-105.426058
 C11     -C10     -C9      -H49     : 179.996718
 C12     -C3      -C40     -C15     :  -0.249043
 C12     -C3      -C40     -H31     : 179.674803
 C12     -C6      -C7      -H47     :  -0.011321
 C12     -C6      -C11     -H27     :  -0.155984
 C12     -C13     -C14     -C15     :  -0.073105
 C12     -C13     -C14     -H29     : 179.984555
 C13     -C12     -C3      -C40     :   0.211072
 C13     -C14     -C15     -C40     :   0.051014
 C13     -C14     -C15     -H54     :-179.896162
 C14     -C15     -C40     -H31     :-179.819709
 C15     -C14     -C13     -H28     : 179.954905
 C40     -C15     -C14     -H29     : 179.994058
 C41     -C4      -C42     -H59     :  61.394213
 C41     -C4      -C42     -H60     :-175.108926
 C41     -C4      -C42     -H61     : -56.987804
 C41     -C4      -C43     -H62     : -60.909139
 C41     -C4      -C43     -H39     :  58.957571
 C41     -C4      -C43     -H40     : 179.004213
 C42     -C4      -C41     -H32     : -62.191818
 C42     -C4      -C41     -H33     :  57.241310
 C42     -C4      -C41     -H58     : 177.356814
 C42     -C4      -C43     -H62     :-176.206687
 C42     -C4      -C43     -H39     : -56.339978
 C42     -C4      -C43     -H40     :  63.706664
 C43     -C4      -C41     -H32     :-176.313205
 C43     -C4      -C41     -H33     : -56.880076
 C43     -C4      -C41     -H58     :  63.235427
 C43     -C4      -C42     -H59     : 175.399296
 C43     -C4      -C42     -H60     : -61.103843
 C43     -C4      -C42     -H61     :  57.017279
 C44     -C5      -C45     -H44     : -59.893717
 C44     -C5      -C45     -H45     :  60.078488
 C44     -C5      -C45     -H46     :-179.989597
 C44     -C5      -C22     -H71     :  67.458488
 C44     -C5      -C22     -H72     :-170.004085
 C44     -C5      -C22     -H73     : -51.708331
 C45     -C5      -C44     -H41     :  64.392944
 C45     -C5      -C44     -H42     :-174.812645
 C45     -C5      -C44     -H43     : -55.497936
 C45     -C5      -C22     -H71     :-177.791448
 C45     -C5      -C22     -H72     : -55.254022
 C45     -C5      -C22     -H73     :  63.041732
 C22     -C5      -C44     -H41     : 179.093085
 C22     -C5      -C44     -H42     : -60.112503
 C22     -C5      -C44     -H43     :  59.202205
 C22     -C5      -C45     -H44     :-176.007825
 C22     -C5      -C45     -H45     : -56.035620
 C22     -C5      -C45     -H46     :  63.896294
 H47     -C7      -C8      -H48     :   0.039152
 H48     -C8      -C9      -H49     :   0.007368
 H49     -C9      -C10     -H50     :   0.017320
 H50     -C10     -C11     -H27     :   0.089139
 H28     -C13     -C14     -H29     :   0.012565
 H29     -C14     -C15     -H54     :   0.046882
 H54     -C15     -C40     -H31     :   0.127278
 
  nuclear repulsion energy.......          4752.014842813 hartrees
  
  Detected an organometallic with only one TM atom. 
  
  
 
  Will use High-Quality Initial guess for organometallics
       including d-d repulsion (iguess=30)
 
 Non-default options chosen:
   SCF calculation type: DFT(b3pw91-d3)              
   DFT=Becke_3_Parameter/HF+Slater+Becke88+PW91+PW-GGAIIC (B3PW91-D3)
   Geometry will be optimized in redundant internal coordinates
   Solvation energy will be computed using PBF
     -solute cavity energy will not be included
     -surface area terms will not be included
   Vibrational frequencies and related properties will be computed
      from analytic second derivatives
   IR intensities will be computed
   Thermochemical properties will be computed
   Maximum number of geometry steps: 100
   Scaling standard convergence criteria by a factor of   5.00
   Solvent: benzene                                                         
   Internal dielectric constant:    1.000
   Continuum dielectric constant:   2.283
   Solvent probe molecule radius:   2.600
  
 Non-default print settings:
     11=  2
  
 Temporary integer options set:
     21= -1  73=  2
  
  atom       vdw   vdw2    cov     mass  grid  daf  charge   basis
  P1        2.147  2.074  1.060   30.974    Y    Y      Y    ps_6-31g*
  Pd2       1.450  1.450  1.280  105.903    Y    Y      Y    lacv3p*
  N2        1.831  1.600  0.750   14.003    Y    Y      Y    ps_6-31g*
  C16       1.949  1.900  0.770   12.000    Y    Y      Y    ps_6-31g*
  C17       1.949  1.900  0.770   12.000    Y    Y      Y    ps_6-31g*
  C18       1.949  1.900  0.770   12.000    Y    Y      Y    ps_6-31g*
  C19       1.949  1.900  0.770   12.000    Y    Y      Y    ps_6-31g*
  C20       1.949  1.900  0.770   12.000    Y    Y      Y    ps_6-31g*
  C21       1.949  1.900  0.770   12.000    Y    Y      Y    ps_6-31g*
  F22       1.736  1.682  0.720   18.998    Y    Y      Y    ps_6-31g*
  H23       1.597  1.150  0.320    1.008    Y    Y      Y    ps_6-31g*
  H24       1.597  1.150  0.320    1.008    Y    Y      Y    ps_6-31g*
  H25       1.597  1.150  0.320    1.008    Y    Y      Y    ps_6-31g*
  H26       1.597  1.150  0.320    1.008    Y    Y      Y    ps_6-31g*
  H30       1.597  1.150  0.320    1.008    Y    Y      Y    ps_6-31g*
  C28       1.949  1.900  0.770   12.000    Y    Y      Y    ps_6-31g*
  C29       1.949  1.900  0.770   12.000    Y    Y      Y    ps_6-31g*
  C30       1.949  1.900  0.770   12.000    Y    Y      Y    ps_6-31g*
  C31       1.949  1.900  0.770   12.000    Y    Y      Y    ps_6-31g*
  C32       1.949  1.900  0.770   12.000    Y    Y      Y    ps_6-31g*
  C33       1.949  1.900  0.770   12.000    Y    Y      Y    ps_6-31g*
  H34       1.597  1.150  0.320    1.008    Y    Y      Y    ps_6-31g*
  H35       1.597  1.150  0.320    1.008    Y    Y      Y    ps_6-31g*
  H36       1.597  1.150  0.320    1.008    Y    Y      Y    ps_6-31g*
  H37       1.597  1.150  0.320    1.008    Y    Y      Y    ps_6-31g*
  H38       1.597  1.150  0.320    1.008    Y    Y      Y    ps_6-31g*
  C3        1.949  1.900  0.770   12.000    Y    Y      Y    ps_6-31g*
  C4        1.949  1.900  0.770   12.000    Y    Y      Y    ps_6-31g*
  C5        1.949  1.900  0.770   12.000    Y    Y      Y    ps_6-31g*
  C6        1.949  1.900  0.770   12.000    Y    Y      Y    ps_6-31g*
  C7        1.949  1.900  0.770   12.000    Y    Y      Y    ps_6-31g*
  C8        1.949  1.900  0.770   12.000    Y    Y      Y    ps_6-31g*
  C9        1.949  1.900  0.770   12.000    Y    Y      Y    ps_6-31g*
  C10       1.949  1.900  0.770   12.000    Y    Y      Y    ps_6-31g*
  C11       1.949  1.900  0.770   12.000    Y    Y      Y    ps_6-31g*
  C12       1.949  1.900  0.770   12.000    Y    Y      Y    ps_6-31g*
  C13       1.949  1.900  0.770   12.000    Y    Y      Y    ps_6-31g*
  C14       1.949  1.900  0.770   12.000    Y    Y      Y    ps_6-31g*
  C15       1.949  1.900  0.770   12.000    Y    Y      Y    ps_6-31g*
  C40       1.949  1.900  0.770   12.000    Y    Y      Y    ps_6-31g*
  C41       1.949  1.900  0.770   12.000    Y    Y      Y    ps_6-31g*
  C42       1.949  1.900  0.770   12.000    Y    Y      Y    ps_6-31g*
  C43       1.949  1.900  0.770   12.000    Y    Y      Y    ps_6-31g*
  C44       1.949  1.900  0.770   12.000    Y    Y      Y    ps_6-31g*
  C45       1.949  1.900  0.770   12.000    Y    Y      Y    ps_6-31g*
  C22       1.949  1.900  0.770   12.000    Y    Y      Y    ps_6-31g*
  H47       1.597  1.150  0.320    1.008    Y    Y      Y    ps_6-31g*
  H48       1.597  1.150  0.320    1.008    Y    Y      Y    ps_6-31g*
  H49       1.597  1.150  0.320    1.008    Y    Y      Y    ps_6-31g*
  H50       1.597  1.150  0.320    1.008    Y    Y      Y    ps_6-31g*
  H27       1.597  1.150  0.320    1.008    Y    Y      Y    ps_6-31g*
  H28       1.597  1.150  0.320    1.008    Y    Y      Y    ps_6-31g*
  H29       1.597  1.150  0.320    1.008    Y    Y      Y    ps_6-31g*
  H54       1.597  1.150  0.320    1.008    Y    Y      Y    ps_6-31g*
  H31       1.597  1.150  0.320    1.008    Y    Y      Y    ps_6-31g*
  H32       1.597  1.150  0.320    1.008    Y    Y      Y    ps_6-31g*
  H33       1.597  1.150  0.320    1.008    Y    Y      Y    ps_6-31g*
  H58       1.597  1.150  0.320    1.008    Y    Y      Y    ps_6-31g*
  H59       1.597  1.150  0.320    1.008    Y    Y      Y    ps_6-31g*
  H60       1.597  1.150  0.320    1.008    Y    Y      Y    ps_6-31g*
  H61       1.597  1.150  0.320    1.008    Y    Y      Y    ps_6-31g*
  H62       1.597  1.150  0.320    1.008    Y    Y      Y    ps_6-31g*
  H39       1.597  1.150  0.320    1.008    Y    Y      Y    ps_6-31g*
  H40       1.597  1.150  0.320    1.008    Y    Y      Y    ps_6-31g*
  H41       1.597  1.150  0.320    1.008    Y    Y      Y    ps_6-31g*
  H42       1.597  1.150  0.320    1.008    Y    Y      Y    ps_6-31g*
  H43       1.597  1.150  0.320    1.008    Y    Y      Y    ps_6-31g*
  H44       1.597  1.150  0.320    1.008    Y    Y      Y    ps_6-31g*
  H45       1.597  1.150  0.320    1.008    Y    Y      Y    ps_6-31g*
  H46       1.597  1.150  0.320    1.008    Y    Y      Y    ps_6-31g*
  H71       1.597  1.150  0.320    1.008    Y    Y      Y    ps_6-31g*
  H72       1.597  1.150  0.320    1.008    Y    Y      Y    ps_6-31g*
  H73       1.597  1.150  0.320    1.008    Y    Y      Y    ps_6-31g*
 
  atom      formal  2spin      esp    mulk    frag
  P1           0       0        Y    0.000       0
  Pd2          0       0        Y    0.000       0
  N2           0       0        Y    0.000       0
  
  end of program pre
   
 Time(pre)  user:       1.002  user+sys:       1.002  wallclock:       1.062
  
  start of program onee
  
  smallest eigenvalue of S:    3.696E-04
  number of canonical orbitals.....          595
  end of program onee
   
 Time(onee)  user:       4.329  user+sys:       4.329  wallclock:       3.220
  
  start of program hfig
  
  initial wavefunction generated automatically from atomic wavefunctions
  Only one possible d-orb occupation 
  Skip d-d repulsion considerations 
 
  Irreducible     Total no   No of occupied orbitals 
  representation  orbitals   Shell_1  Shell_2    ...
  No Symm          595        139
  ------------------------
  Orbital occupation/shell    1.000
 
  end of program hfig
   
 Time(hfig)  user:       1.026  user+sys:       1.026  wallclock:       1.176
  
  start of program probe
  
  end of program probe
   
 Time(probe)  user:       0.560  user+sys:       0.560  wallclock:       0.514
  
  start of program grid
  
   grid     grid set  grid #  grid sym
  ------    --------  ------  --------
  coarse        0        0        1
  medium        2        1        1
  fine          0        0        1
  ultrafine     4        2        1
  charge       -1        3        1
  gradient      4        2        1
  density       0        0        1
  DFT-fine    -11        4        1
  DFT-med.    -10        5        1
  DFT-grad    -12        6        1
  DFT-der2     -8        7        1
  DFT-cphf     -9        8        1
  LMP2-enrg     4        2        1
  LMP2-grad     2        1        1
  DFT-cphf2   -15        9        1
  PBF-dens      0        0        1
  plotting      0        0        1
  Rel-grad    -17        0        1
  
  number of gridpoints: 
     atom           P1         Pd2          N2         C16         C17         C18         C19
  grid # 1         524         361         107          76          94          95          95
  grid # 2         368         317         357         325         326         327         345
  grid # 3           6         226          21          26          29          28          21
  grid # 4        8714        8714        8714        8714        8714        8714        8714
  grid # 5        1192        1192        1192        1192        1192        1192        1192
  grid # 6        9132        9132        5922        5922        5922        5922        5922
  grid # 7       23034       32968       13958       13950       13950       13950       13950
  grid # 8         722        1150         756         748         748         748         748
  grid # 9         366        2198         406         394         394         394         394
   
  number of gridpoints: 
     atom          C20         C21         F22         H23         H24         H25         H26
  grid # 1          95          93         563         115         116         112          99
  grid # 2         325         322         525         464         457         444         424
  grid # 3          25          26         112         372         332         192          83
  grid # 4        8714        8714        8714        8714        8714        8714        8714
  grid # 5        1192        1192        1192        1192        1192        1192        1192
  grid # 6        5922        5922        5922        5922        5922        5922        5922
  grid # 7       13950       13950       23190       15206       15206       15206       15206
  grid # 8         748         748         770         786         786         786         786
  grid # 9         394         394         420         420         420         420         420
   
  number of gridpoints: 
     atom          H30         C28         C29         C30         C31         C32         C33
  grid # 1         112          97          97          96         100          97          97
  grid # 2         446         326         325         324         354         325         326
  grid # 3         310          54          53          41          37          51          54
  grid # 4        8714        8714        8714        8714        8714        8714        8714
  grid # 5        1192        1192        1192        1192        1192        1192        1192
  grid # 6        5922        5922        5922        5922        5922        5922        5922
  grid # 7       15206       13950       13950       13950       13950       13950       13950
  grid # 8         786         748         748         748         748         748         748
  grid # 9         420         394         394         394         394         394         394
   
  number of gridpoints: 
     atom          H34         H35         H36         H37         H38          C3          C4
  grid # 1         118         118         115         116         118          91          87
  grid # 2         467         467         452         463         467         354         337
  grid # 3         422         419         284         354         422           6           6
  grid # 4        8714        8714        8714        8714        8714        8714        8714
  grid # 5        1192        1192        1192        1192        1192        1192        1192
  grid # 6        5922        5922        5922        5922        5922        5922        5922
  grid # 7       15206       15206       15206       15206       15206       13950       13950
  grid # 8         786         786         786         786         786         748         748
  grid # 9         420         420         420         420         420         394         394
   
  number of gridpoints: 
     atom           C5          C6          C7          C8          C9         C10         C11
  grid # 1          87          96          92          93          94          93          93
  grid # 2         344         349         324         308         314         316         323
  grid # 3           6          10          18          29          29          29          21
  grid # 4        8714        8714        8714        8714        8714        8714        8714
  grid # 5        1192        1192        1192        1192        1192        1192        1192
  grid # 6        5922        5922        5922        5922        5922        5922        5922
  grid # 7       13950       13950       13950       13950       13950       13950       13950
  grid # 8         748         748         748         748         748         748         748
  grid # 9         394         394         394         394         394         394         394
   
  number of gridpoints: 
     atom          C12         C13         C14         C15         C40         C41         C42
  grid # 1          97          93          97          95          89          78          81
  grid # 2         349         326         323         318         315         248         240
  grid # 3          11          28          39          18           6           6           6
  grid # 4        8714        8714        8714        8714        8714        8714        8714
  grid # 5        1192        1192        1192        1192        1192        1192        1192
  grid # 6        5922        5922        5922        5922        5922        5922        5922
  grid # 7       13950       13950       13950       13950       13950       13950       13950
  grid # 8         748         748         748         748         748         748         748
  grid # 9         394         394         394         394         394         394         394
   
  number of gridpoints: 
     atom          C43         C44         C45         C22         H47         H48         H49
  grid # 1          79          80          81          80         115         116         116
  grid # 2         247         249         241         242         458         460         463
  grid # 3           6           6           6           6         313         360         376
  grid # 4        8714        8714        8714        8714        8714        8714        8714
  grid # 5        1192        1192        1192        1192        1192        1192        1192
  grid # 6        5922        5922        5922        5922        5922        5922        5922
  grid # 7       13950       13950       13950       13950       15206       15206       15206
  grid # 8         748         748         748         748         786         786         786
  grid # 9         394         394         394         394         420         420         420
   
  number of gridpoints: 
     atom          H50         H27         H28         H29         H54         H31         H32
  grid # 1         104         104         116         118         118          90         102
  grid # 2         444         432         460         465         467         387         429
  grid # 3         305         176         363         420         404          48         187
  grid # 4        8714        8714        8714        8714        8714        8714        8714
  grid # 5        1192        1192        1192        1192        1192        1192        1192
  grid # 6        5922        5922        5922        5922        5922        5922        5922
  grid # 7       15206       15206       15206       15206       15206       15206       15206
  grid # 8         786         786         786         786         786         786         786
  grid # 9         420         420         420         420         420         420         420
   
  number of gridpoints: 
     atom          H33         H58         H59         H60         H61         H62         H39
  grid # 1         107         104          98          98         107          99         108
  grid # 2         445         440         401         415         443         429         447
  grid # 3         282         180         150         135         274          99         258
  grid # 4        8714        8714        8714        8714        8714        8714        8714
  grid # 5        1192        1192        1192        1192        1192        1192        1192
  grid # 6        5922        5922        5922        5922        5922        5922        5922
  grid # 7       15206       15206       15206       15206       15206       15206       15206
  grid # 8         786         786         786         786         786         786         786
  grid # 9         420         420         420         420         420         420         420
   
  number of gridpoints: 
     atom          H40         H41         H42         H43         H44         H45         H46
  grid # 1          96         101          95         107          99         108         100
  grid # 2         416         430         408         445         426         447         422
  grid # 3         145         142         145         280          99         272         125
  grid # 4        8714        8714        8714        8714        8714        8714        8714
  grid # 5        1192        1192        1192        1192        1192        1192        1192
  grid # 6        5922        5922        5922        5922        5922        5922        5922
  grid # 7       15206       15206       15206       15206       15206       15206       15206
  grid # 8         786         786         786         786         786         786         786
  grid # 9         420         420         420         420         420         420         420
   
  number of gridpoints: 
     atom          H71         H72         H73       total
  grid # 1          96         100         109        8433
  grid # 2         403         424         447       27888
  grid # 3         124         177         275       10406
  grid # 4        8714        8714        8714      636122
  grid # 5        1192        1192        1192       87016
  grid # 6        5922        5922        5922      438726
  grid # 7       15206       15206       15206     1102172
  grid # 8         786         786         786       56416
  grid # 9         420         420         420       31538
   
  end of program grid
   
 Time(grid)  user:     273.064  user+sys:     273.064  wallclock:     139.215
  
  start of program rwr
  
  end of program rwr
   
 Time(rwr)  user:      17.131  user+sys:      17.131  wallclock:      21.445
  
  start of program scf
  
 number of electrons..........        278
 number of alpha electrons....        139
 number of beta electrons.....        139
 number of orbitals, total....        595
 number of doubly-occ'd orbs..        139
 number of open shell orbs....          0
 number of occupied orbitals..        139
 number of virtual orbitals...        456
 number of hamiltonians.......          1
 number of shells.............          1
 SCF type: DFT=Becke_3_Parameter/HF+Slater+Becke88+PW91+PW-GGAIIC (B3PW91-D3)
 Energy computed using pseudospectral method.
 Convergence Criterion:
    Energy (econv):       1.00E-05
    RMS density (dconv):  5.00E-06
  
       i  u  d  i  g                   
       t  p  i  c  r                                 RMS    maximum
       e  d  i  u  i                       energy  density   DIIS  
       r  t  s  t  d       total energy    change  change    error 
  
etot    1  N  N  5  M   -1859.11312093639           2.2E-03  1.8E-01
etot    2  Y  Y  6  M   -1862.21194308233  3.1E+00  3.9E-03  1.2E-01
etot    3  Y  Y  6  M   -1862.90194268786  6.9E-01  1.8E-03  4.6E-02
etot    4  N  Y  2  U   -1863.33533113400  4.3E-01  1.4E-03  2.6E-02
etot    5  Y  Y  6  M   -1863.43774739772  1.0E-01  7.4E-04  1.5E-02
etot    6  N  Y  2  U   -1863.44983536129  1.2E-02  6.8E-04  9.0E-03
etot    7  Y  Y  6  M   -1863.45389741912  4.1E-03  1.3E-04  2.6E-03
etot    8  Y  Y  6  M   -1863.45798032195  4.1E-03  3.1E-05  5.8E-04
etot    9  N  Y  2  U   -1863.46037743332  2.4E-03  1.6E-05  1.8E-04
etot   10  N  Y  2  U   -1863.46039021275  1.3E-05  7.7E-06  7.0E-05
etot   11  N  Y  2  U   -1863.46039076219  5.5E-07  3.4E-06  5.7E-05
etot   12  N  N  2  U   -1863.46039151723  7.6E-07  0.0E+00  0.0E+00
 
  Computing the dispersion energy correction and its gradients...
  
  
 Energy components, in hartrees:
   (A)  Nuclear repulsion............    4752.01484281348
   (E)  Total one-electron terms.....  -12057.26561821028
   (F)    Electron-nuclear...........  -13833.40048994666
   (H)    Kinetic....................    1776.13487173639
   (I)  Total two-electron terms.....    5441.79038387956
   (J)    Coulomb....................    5682.85501669426
   (K)    Exchange+Correlation.......    -241.06463281469
   (L)  Electronic energy............   -6615.47523433071  (E+I)
   (N0) D3 correction................      -0.12780695834
   (N)  Total energy.................   -1863.58819847557  (A+L+N0)
   (O)  Gas phase energy.............   -1863.58819847557
  
 SCFE: SCF energy: DFT(b3pw91-d3)     -1863.58819847557 hartrees   iterations:  12
  
 
 HOMO energy:    -0.12634
 LUMO energy:    -0.03267
 
  Orbital energies (hartrees): 
   -76.96503   -24.68741   -14.32210   -10.24703   -10.21037   -10.19745
   -10.19428   -10.18537   -10.17907   -10.17829   -10.17779   -10.17618
   -10.17614   -10.17601   -10.17553   -10.17466   -10.17464   -10.16683
   -10.16674   -10.16453   -10.16417   -10.16370   -10.16292   -10.16110
   -10.15932   -10.15892   -10.15775   -10.15757   -10.15738   -10.15726
   -10.15661   -10.15316   -10.15183   -10.14862   -10.14429    -6.50341
    -4.65978    -4.65922    -4.65458    -3.23970    -1.97698    -1.95875
    -1.95445    -1.23146    -0.92871    -0.91061    -0.86092    -0.85094
    -0.84224    -0.83227    -0.81675    -0.78492    -0.76908    -0.74843
    -0.74657    -0.73998    -0.73518    -0.72817    -0.71180    -0.71000
    -0.69118    -0.67917    -0.67677    -0.67115    -0.62784    -0.61873
    -0.61519    -0.60836    -0.60330    -0.59372    -0.58543    -0.57949
    -0.57698    -0.54560    -0.53346    -0.52252    -0.51824    -0.50494
    -0.49636    -0.48420    -0.48320    -0.47860    -0.47389    -0.47102
    -0.46605    -0.46220    -0.45209    -0.45006    -0.44547    -0.44186
    -0.43840    -0.43633    -0.43008    -0.42635    -0.42278    -0.42053
    -0.41412    -0.40394    -0.39746    -0.39446    -0.39279    -0.39070
    -0.39022    -0.38445    -0.37489    -0.37201    -0.36905    -0.36361
    -0.36213    -0.36165    -0.35953    -0.35596    -0.35212    -0.35065
    -0.34826    -0.34511    -0.34061    -0.33505    -0.33272    -0.32212
    -0.31901    -0.31551    -0.30497    -0.29286    -0.29107    -0.27098
    -0.25727    -0.25294    -0.24754    -0.24610    -0.23891    -0.23702
    -0.22973    -0.21328    -0.18998    -0.17640    -0.17189    -0.16713
    -0.12634    -0.03267    -0.01566    -0.00798    -0.00580     0.00125
     0.00559     0.00771     0.02077     0.04713     0.05713
 
  end of program scf
   
 Time(scf)  user:     413.651  user+sys:     413.651  wallclock:     220.585
  
  start of program der1a
  
  end of program der1a
   
 Time(der1a)  user:      12.896  user+sys:      12.896  wallclock:       6.940
  
  start of program rwr
  
  end of program rwr
   
 Time(rwr)  user:      18.810  user+sys:      18.810  wallclock:      24.054
  
  start of program der1b
  
   
  forces (hartrees/bohr) : total     
   
 atom  label           x              y              z
 ---- --------   -------------  -------------  -------------
    1 P1          8.990844E-03   4.438719E-03   3.066323E-01
    2 Pd2         1.243576E-02  -1.360998E-03   3.759035E-02
    3 N2          1.323069E-02   1.977684E-02   1.386533E-02
    4 C16        -3.264059E-02   3.975447E-02   4.905064E-03
    5 C17         3.301656E-03  -1.462773E-02  -1.581535E-03
    6 C18         3.782454E-03   8.199350E-03   5.270875E-04
    7 C19        -1.397557E-04  -6.938824E-03  -3.009911E-03
    8 C20        -6.978839E-03  -4.298344E-03  -2.048840E-03
    9 C21         3.741878E-04  -8.461490E-04  -2.027279E-04
   10 F22        -4.636059E-02  -1.101188E-02   2.031533E-02
   11 H23         1.545513E-03   2.956964E-04   3.674000E-05
   12 H24        -1.700292E-03   8.688865E-04  -2.928543E-04
   13 H25         7.265963E-04  -2.519450E-03   1.655565E-03
   14 H26        -1.915130E-02   2.480777E-03   1.669552E-03
   15 H30        -6.900289E-04  -7.839709E-03   3.398235E-03
   16 C28         6.686200E-04   1.147919E-03   9.484653E-04
   17 C29         6.643785E-05  -1.577147E-03   1.375441E-03
   18 C30         2.486688E-03   2.786543E-03  -4.511336E-04
   19 C31        -6.534915E-03  -8.439291E-03  -1.174455E-02
   20 C32        -7.581781E-04   2.380125E-03   3.976262E-03
   21 C33        -6.352161E-04   6.353696E-04  -8.140390E-04
   22 H34        -2.976568E-03  -6.806898E-03  -7.682830E-03
   23 H35        -7.087390E-03  -8.034873E-03   1.779203E-03
   24 H36        -6.663967E-03  -1.856971E-03   9.562122E-03
   25 H37         7.571000E-03   6.742527E-03  -3.328561E-03
   26 H38         3.879212E-03   8.119357E-04  -9.906094E-03
   27 C3          2.683542E-01  -3.443517E-03  -1.000387E-01
   28 C4         -1.479736E-01   2.588071E-01  -9.725890E-02
   29 C5         -1.267996E-01  -2.662963E-01  -9.451957E-02
   30 C6         -4.034118E-03  -1.371346E-03   6.540150E-02
   31 C7          1.416589E-02   1.759843E-02   2.235049E-03
   32 C8          1.552145E-02  -9.269933E-03  -2.796554E-03
   33 C9          2.212706E-02  -6.989033E-03  -3.189416E-03
   34 C10         3.912256E-02  -2.385070E-03  -7.962522E-03
   35 C11        -1.368192E-03  -1.869798E-02   4.009942E-03
   36 C12         1.767086E-02   7.937684E-03  -6.444413E-02
   37 C13         1.750401E-02   3.347620E-04  -3.275136E-03
   38 C14        -3.825764E-03   4.596462E-04  -8.036284E-04
   39 C15        -1.447542E-03   1.564990E-03   5.263327E-04
   40 C40         3.586145E-02   3.394312E-03  -2.498953E-02
   41 C41         6.294871E-03   2.775325E-02  -3.047734E-03
   42 C42        -2.363597E-02   2.405981E-02  -1.661986E-02
   43 C43        -2.953916E-02   2.076884E-02   8.084866E-03
   44 C44        -2.295437E-02  -1.530994E-02   1.072521E-03
   45 C45         1.584918E-03  -3.085977E-02   2.272615E-03
   46 C22        -8.194014E-03  -2.659950E-02  -2.476077E-02
   47 H47        -5.178327E-03  -7.024077E-03  -1.102602E-02
   48 H48        -3.252500E-03  -5.597369E-03  -8.743584E-03
   49 H49        -2.177595E-03   1.991816E-03  -1.043089E-02
   50 H50         1.669429E-02   9.129887E-03  -1.357707E-02
   51 H27         5.850633E-03   7.963567E-03  -5.455841E-03
   52 H28        -9.822065E-03  -1.270271E-03   1.152723E-02
   53 H29        -7.961530E-03  -8.072014E-04   8.299271E-03
   54 H54        -1.514919E-03  -1.555252E-03   1.028362E-02
   55 H31         2.209875E-02  -1.157684E-03   1.230476E-02
   56 H32        -9.997550E-03   4.894734E-03   1.005687E-02
   57 H33        -2.740349E-05  -1.077634E-02   3.596552E-03
   58 H58        -5.188113E-03  -3.410706E-03  -9.230269E-03
   59 H59        -1.677217E-02   9.575161E-03   7.793724E-03
   60 H60         8.256599E-03   1.480600E-02  -1.227300E-03
   61 H61         5.328516E-03  -6.753444E-03   5.304413E-03
   62 H62        -2.589876E-03  -1.314191E-03  -1.127366E-02
   63 H39         3.751558E-03  -5.701777E-03  -4.253344E-03
   64 H40         1.078025E-02   1.633714E-02   2.045019E-03
   65 H41         4.254455E-03  -2.594525E-03  -1.075597E-02
   66 H42         4.994389E-03  -1.348360E-02   6.470631E-03
   67 H43         7.164486E-03   7.372150E-03  -2.649847E-04
   68 H44        -2.551765E-03   2.075890E-03  -1.337762E-02
   69 H45         1.395225E-03   9.303711E-03  -2.206465E-03
   70 H46        -1.478007E-02  -1.199381E-03  -2.948807E-04
   71 H71         8.595746E-03  -2.295245E-02   5.955982E-03
   72 H72        -1.452841E-02  -3.790625E-03   4.301952E-03
   73 H73         2.968580E-03   7.297495E-03   5.975236E-03
 -------------   -------------  -------------  -------------
     total        9.680834E-04  -3.023971E-03  -1.132225E-03
   
  end of program der1b
   
 Time(der1b)  user:     138.498  user+sys:     138.498  wallclock:      73.449
  
  start of program geopt
  
 ----------------------------------------------------------------------------
  Geometry optimization step  1
  Total energy:     -1863.58819847557 hartrees
 ----------------------------------------------------------------------------
  
  
  Level shifts adjusted to satisfy step-size constraints
   Step size:    0.3000363
   Cos(theta):   0.7709505
   Final level shift:  -2.1280141E+00
  
  gradient maximum:        4.9172E-01 .  (  2.2500E-03 )
  gradient rms:            8.1618E-02 .  (  1.5000E-03 )
  displacement maximum:    1.5596E-01 .  (  9.0000E-03 )
  displacement rms:        1.8826E-02 .  (  6.0000E-03 )
  
  predicted energy change:  -2.4622E-01
  step size:     0.30003
  trust radius:  0.30000
  
  molecular structure not yet converged...
  
  center of mass moved by:
     x:    -5.8613E-03     y:    -4.3947E-03     z:    -5.8566E-03
  
  new geometry: 
                                   angstroms
  atom               x                 y                 z
  P1            0.0017905633     -0.0011066953      0.0036719260 
  Pd2          -0.0322836913      0.0082496529      2.2503239293 
  N2           -2.5887970013      2.5944195932      4.8804178328 
  C16          -0.2081827725     -0.9320520137      4.4562867627 
  C17          -1.6071536317     -1.0048739270      4.6089334984 
  C18          -2.3897573767      0.1327161719      4.7944247961 
  C19          -1.8206779380      1.4186573368      4.7594116922 
  C20          -0.4340629589      1.5120591948      4.5493609720 
  C21           0.3709774246      0.3612793033      4.4416421187 
  F22           0.5346346738     -2.0409222988      4.5212758576 
  H23          -2.0795195312     -1.9854311721      4.6342591301 
  H24          -3.4561233283      0.0106187778      4.9590569326 
  H25           0.0373047327      2.4885783622      4.4834705510 
  H26           1.4546309689      0.4654344943      4.4546276653 
  H30          -3.5913272681      2.5026291230      4.7962688541 
  C28          -1.4512630625      5.2956889088      7.9805069578 
  C29          -0.9111584300      5.4356451515      6.6939829222 
  C30          -1.2859142504      4.5476519904      5.6754606802 
  C31          -2.2010141631      3.5190526946      5.9424794590 
  C32          -2.7417681748      3.3792098888      7.2292597553 
  C33          -2.3668102781      4.2674764651      8.2477967111 
  H34          -1.1568769395      5.9930729390      8.7801453708 
  H35          -0.1923500331      6.2427354641      6.4832025348 
  H36          -0.8636431030      4.6569888869      4.6646145174 
  H37          -3.4592366429      2.5707013105      7.4387566664 
  H38          -2.7914225795      4.1568459715      9.2577195098 
  C3            1.4784517977     -0.0251021170     -0.5473853595 
  C4           -0.7209824604      1.3256155843     -0.4672981677 
  C5           -0.6820458936     -1.3369474638     -0.4924977849 
  C6            2.8678061175     -0.5204897769      1.5918585389 
  C7            3.3799713509      0.4663542103      2.4702707777 
  C8            3.5952795223      0.2654515597      3.8408618147 
  C9            3.3087275300     -0.9666960864      4.4306418879 
  C10           2.8131455914     -1.9802591868      3.6098936422 
  C11           2.6041279755     -1.7472350547      2.2430557655 
  C12           2.6943582373     -0.2652518923      0.1811861497 
  C13           3.8791522445     -0.2423558432     -0.5952332853 
  C14           3.9336129047     -0.0123257160     -1.9721885072 
  C15           2.7505206489      0.2153338852     -2.6658784700 
  C40           1.5602776809      0.2019441859     -1.9387244556 
  C41           0.2783854810      2.5056855318     -0.4285936761 
  C42          -1.4606420334      1.4365104212     -1.8230487083 
  C43          -1.8065179038      1.7034739157      0.5731607798 
  C44          -2.1677802703     -1.4467050613     -0.0856243096 
  C45           0.0211720650     -2.5116705636      0.2277273347 
  C22          -0.6057530598     -1.7206446934     -1.9881191235 
  H47           3.6416432634      1.4774410118      2.1394262982 
  H48           3.9971488005      1.0808994244      4.4628232784 
  H49           3.4721474481     -1.1374821182      5.5056509319 
  H50           2.5793941326     -2.9625692615      4.0453122480 
  H27           2.2078856830     -2.6144854641      1.7199184220 
  H28           4.8716047553     -0.4086667998     -0.1635696656 
  H29           4.8968878448     -0.0101310605     -2.5062441627 
  H54           2.7526600685      0.3988887080     -3.7515086957 
  H31           0.6617714439      0.3891201113     -2.5267376391 
  H32           1.0612401259      2.4141065429     -1.2091325952 
  H33          -0.2314812346      3.4786900498     -0.6003897013 
  H58           0.7938079498      2.5689751910      0.5545925973 
  H59          -0.8037237785      1.3224061904     -2.7051136551 
  H60          -2.2895849803      0.7078223592     -1.9103069941 
  H61          -1.9272012927      2.4396348677     -1.9339739760 
  H62          -1.3773199435      1.7888738992      1.5953902102 
  H39          -2.2862475021      2.6789245607      0.3346029496 
  H40          -2.6184954926      0.9503023494      0.6213789134 
  H41          -2.3031267228     -1.2494039106      0.9999314136 
  H42          -2.8083194188     -0.7353734481     -0.6432030116 
  H43          -2.5734485415     -2.4609896107     -0.2931750785 
  H44          -0.0646693407     -2.4193096382      1.3320061095 
  H45          -0.4187346832     -3.4922195067     -0.0590522683 
  H46           1.1025625358     -2.5550536847     -0.0231311273 
  H71          -1.0667259808     -0.9646986571     -2.6498314730 
  H72           0.4392166099     -1.8876366821     -2.3208541758 
  H73          -1.1443870911     -2.6740866713     -2.1807482734 
   
 
  bond lengths (angstroms):
 
 P1      -Pd2     :   2.246930      P1      -C3      :   1.576315
 P1      -C4      :   1.582531      P1      -C5      :   1.580597
 Pd2     -C16     :   2.404450      Pd2     -C21     :   2.255909
 N2      -C19     :   1.409633      N2      -H30     :   1.010234
 N2      -C31     :   1.460581      C16     -C17     :   1.409157
 C16     -C21     :   1.417162      C16     -F22     :   1.336261
 C17     -C18     :   1.393193      C17     -H23     :   1.088698
 C18     -C19     :   1.406671      C18     -H24     :   1.085886
 C19     -C20     :   1.405541      C20     -C21     :   1.408541
 C20     -H25     :   1.086333      C21     -H26     :   1.088725
 C28     -C29     :   1.402300      C28     -C33     :   1.402459
 C28     -H34     :   1.101104      C29     -C30     :   1.402270
 C29     -H35     :   1.101140      C30     -C31     :   1.402399
 C30     -H36     :   1.100944      C31     -C32     :   1.402774
 C32     -C33     :   1.402508      C32     -H37     :   1.101061
 C33     -H38     :   1.101126      C3      -C12     :   1.437678
 C3      -C40     :   1.412115      C4      -C41     :   1.546868
 C4      -C42     :   1.548371      C4      -C43     :   1.550393
 C5      -C44     :   1.544344      C5      -C45     :   1.547002
 C5      -C22     :   1.545939      C6      -C7      :   1.416962
 C6      -C11     :   1.413679      C6      -C12     :   1.444032
 C7      -C8      :   1.401870      C7      -H47     :   1.095549
 C8      -C9      :   1.395758      C8      -H48     :   1.101495
 C9      -C10     :   1.395184      C9      -H49     :   1.100690
 C10     -C11     :   1.402225      C10     -H50     :   1.099619
 C11     -H27     :   1.087568      C12     -C13     :   1.416717
 C13     -C14     :   1.397099      C13     -H28     :   1.094968
 C14     -C15     :   1.390231      C14     -H29     :   1.101417
 C15     -C40     :   1.394851      C15     -H54     :   1.101040
 C40     -H31     :   1.090004      C41     -H32     :   1.109274
 C41     -H33     :   1.111852      C41     -H58     :   1.111900
 C42     -H59     :   1.105712      C42     -H60     :   1.107134
 C42     -H61     :   1.111864      C43     -H62     :   1.111961
 C43     -H39     :   1.112904      C43     -H40     :   1.108558
 C44     -H41     :   1.111610      C44     -H42     :   1.107780
 C44     -H43     :   1.111943      C45     -H44     :   1.111454
 C45     -H45     :   1.112311      C45     -H46     :   1.110953
 C22     -H71     :   1.105357      C22     -H72     :   1.109306
 C22     -H73     :   1.111883
 
  bond angles:
 
 C3      -P1      -Pd2     : 111.334493  C4      -P1      -Pd2     : 106.687509
 C4      -P1      -C3      : 109.667989  C5      -P1      -Pd2     : 108.109395
 C5      -P1      -C3      : 106.420708  C5      -P1      -C4      : 114.677828
 C16     -Pd2     -P1      : 156.465182  C21     -Pd2     -P1      : 165.740227
 C21     -Pd2     -C16     :  35.223722  H30     -N2      -C19     : 117.246213
 C31     -N2      -C19     : 116.473009  C31     -N2      -H30     : 112.430559
 C17     -C16     -Pd2     : 101.082306  C21     -C16     -Pd2     :  66.654554
 C21     -C16     -C17     : 117.000840  F22     -C16     -Pd2     : 109.176120
 F22     -C16     -C17     : 120.246549  F22     -C16     -C21     : 122.048922
 C18     -C17     -C16     : 121.998650  H23     -C17     -C16     : 118.672961
 H23     -C17     -C18     : 119.248911  C19     -C18     -C17     : 121.056729
 H24     -C18     -C17     : 118.686082  H24     -C18     -C19     : 120.254987
 C18     -C19     -N2      : 122.678251  C20     -C19     -N2      : 119.667819
 C20     -C19     -C18     : 117.618306  C21     -C20     -C19     : 121.398208
 H25     -C20     -C19     : 119.792745  H25     -C20     -C21     : 118.801641
 C16     -C21     -Pd2     :  78.121724  C20     -C21     -Pd2     :  95.737543
 C20     -C21     -C16     : 120.746903  H26     -C21     -Pd2     : 101.799172
 H26     -C21     -C16     : 119.601005  H26     -C21     -C20     : 119.327925
 C33     -C28     -C29     : 119.964236  H34     -C28     -C29     : 120.004831
 H34     -C28     -C33     : 120.030928  C30     -C29     -C28     : 120.015621
 H35     -C29     -C28     : 120.012815  H35     -C29     -C30     : 119.971561
 C31     -C30     -C29     : 120.036758  H36     -C30     -C29     : 120.099471
 H36     -C30     -C31     : 119.863729  C30     -C31     -N2      : 119.941485
 C32     -C31     -N2      : 120.103681  C32     -C31     -C30     : 119.954819
 C33     -C32     -C31     : 119.998483  H37     -C32     -C31     : 119.929114
 H37     -C32     -C33     : 120.072329  C32     -C33     -C28     : 120.030073
 H38     -C33     -C28     : 120.013030  H38     -C33     -C32     : 119.956892
 C12     -C3      -P1      : 128.145412  C40     -C3      -P1      : 113.345652
 C40     -C3      -C12     : 118.500344  C41     -C4      -P1      : 109.697074
 C42     -C4      -P1      : 122.602101  C42     -C4      -C41     : 106.015331
 C43     -C4      -P1      : 108.928079  C43     -C4      -C41     : 104.455711
 C43     -C4      -C42     : 103.631805  C44     -C5      -P1      : 113.177860
 C45     -C5      -P1      : 107.394907  C45     -C5      -C44     : 105.111120
 C22     -C5      -P1      : 119.479212  C22     -C5      -C44     : 106.542304
 C22     -C5      -C45     : 103.857390  C11     -C6      -C7      : 112.719022
 C12     -C6      -C7      : 121.730224  C12     -C6      -C11     : 125.519246
 C8      -C7      -C6      : 124.180369  H47     -C7      -C6      : 122.811636
 H47     -C7      -C8      : 113.006121  C9      -C8      -C7      : 120.537606
 H48     -C8      -C7      : 120.132003  H48     -C8      -C9      : 119.329998
 C10     -C9      -C8      : 117.753284  H49     -C9      -C8      : 121.277684
 H49     -C9      -C10     : 120.968282  C11     -C10     -C9      : 120.374375
 H50     -C10     -C9      : 119.441878  H50     -C10     -C11     : 120.181829
 C10     -C11     -C6      : 124.431439  H27     -C11     -C6      : 122.571929
 H27     -C11     -C10     : 112.996106  C6      -C12     -C3      : 128.768329
 C13     -C12     -C3      : 115.268514  C13     -C12     -C6      : 115.962752
 C14     -C13     -C12     : 125.127658  H28     -C13     -C12     : 122.649040
 H28     -C13     -C14     : 112.223288  C15     -C14     -C13     : 119.049783
 H29     -C14     -C13     : 120.817802  H29     -C14     -C15     : 120.132416
 C40     -C15     -C14     : 117.676436  H54     -C15     -C14     : 121.173902
 H54     -C15     -C40     : 121.149637  C15     -C40     -C3      : 124.376736
 H31     -C40     -C3      : 120.754955  H31     -C40     -C15     : 114.867532
 H32     -C41     -C4      : 112.046549  H33     -C41     -C4      : 111.560109
 H33     -C41     -H32     : 106.687825  H58     -C41     -C4      : 111.409393
 H58     -C41     -H32     : 107.442497  H58     -C41     -H33     : 107.420810
 H59     -C42     -C4      : 114.035018  H60     -C42     -C4      : 112.305189
 H60     -C42     -H59     : 108.302614  H61     -C42     -C4      : 110.635581
 H61     -C42     -H59     : 105.237335  H61     -C42     -H60     : 105.769162
 H62     -C43     -C4      : 111.432423  H39     -C43     -C4      : 111.813012
 H39     -C43     -H62     : 107.225014  H40     -C43     -C4      : 112.114054
 H40     -C43     -H62     : 107.152260  H40     -C43     -H39     : 106.803453
 H41     -C44     -C5      : 111.211212  H42     -C44     -C5      : 112.211764
 H42     -C44     -H41     : 107.888090  H43     -C44     -C5      : 111.508232
 H43     -C44     -H41     : 107.443389  H43     -C44     -H42     : 106.309613
 H44     -C45     -C5      : 111.367380  H45     -C45     -C5      : 111.690555
 H45     -C45     -H44     : 107.389687  H46     -C45     -C5      : 111.530662
 H46     -C45     -H44     : 107.624058  H46     -C45     -H45     : 106.997054
 H71     -C22     -C5      : 112.882066  H72     -C22     -C5      : 111.964813
 H72     -C22     -H71     : 108.435580  H73     -C22     -C5      : 110.887198
 H73     -C22     -H71     : 106.302076  H73     -C22     -H72     : 105.979135
 
  torsional angles:
 
 P1      -Pd2     -C16     -C17     : -82.215243
 P1      -Pd2     -C16     -C21     : 162.991674
 P1      -Pd2     -C16     -F22     :  45.487583
 P1      -Pd2     -C21     -C16     :-151.693502
 P1      -Pd2     -C21     -C20     :  88.046133
 P1      -Pd2     -C21     -H26     : -33.547315
 P1      -C3      -C12     -C6      :  -1.126881
 P1      -C3      -C12     -C13     : 179.116640
 P1      -C3      -C40     -C15     :-179.277685
 P1      -C3      -C40     -H31     :   1.059792
 P1      -C4      -C41     -H32     :  69.287224
 P1      -C4      -C41     -H33     :-171.166160
 P1      -C4      -C41     -H58     : -51.120379
 P1      -C4      -C42     -H59     : -63.782767
 P1      -C4      -C42     -H60     :  59.900878
 P1      -C4      -C42     -H61     : 177.829287
 P1      -C4      -C43     -H62     :  55.081267
 P1      -C4      -C43     -H39     : 175.065987
 P1      -C4      -C43     -H40     : -65.017172
 P1      -C5      -C44     -H41     : -50.399229
 P1      -C5      -C44     -H42     :  70.555661
 P1      -C5      -C44     -H43     :-170.303671
 P1      -C5      -C45     -H44     :  59.005601
 P1      -C5      -C45     -H45     : 179.071931
 P1      -C5      -C45     -H46     : -61.250153
 P1      -C5      -C22     -H71     : -60.001896
 P1      -C5      -C22     -H72     :  62.704324
 P1      -C5      -C22     -H73     :-179.156258
 Pd2     -P1      -C3      -C12     :  11.479711
 Pd2     -P1      -C3      -C40     :-169.614986
 Pd2     -P1      -C4      -C41     :  82.662240
 Pd2     -P1      -C4      -C42     :-152.110827
 Pd2     -P1      -C4      -C43     : -31.107853
 Pd2     -P1      -C5      -C44     :  62.750513
 Pd2     -P1      -C5      -C45     : -52.799644
 Pd2     -P1      -C5      -C22     :-170.536268
 Pd2     -C16     -C17     -C18     : -71.945408
 Pd2     -C16     -C17     -H23     : 111.322381
 Pd2     -C16     -C21     -C20     :  89.641673
 Pd2     -C16     -C21     -H26     : -96.939922
 Pd2     -C21     -C16     -C17     : -90.862154
 Pd2     -C21     -C16     -F22     :  98.735836
 Pd2     -C21     -C20     -C19     :  83.668013
 Pd2     -C21     -C20     -H25     : -97.324289
 N2      -C19     -C18     -C17     : 176.961317
 N2      -C19     -C18     -H24     :  -2.491813
 N2      -C19     -C20     -C21     : 179.114412
 N2      -C19     -C20     -H25     :   0.116394
 N2      -C31     -C30     -C29     :-179.933970
 N2      -C31     -C30     -H36     :   0.139774
 N2      -C31     -C32     -C33     : 179.934360
 N2      -C31     -C32     -H37     :   0.032547
 C16     -Pd2     -P1      -C3      : -97.687691
 C16     -Pd2     -P1      -C4      : 142.688523
 C16     -Pd2     -P1      -C5      :  18.865807
 C16     -Pd2     -C21     -C20     :-120.260365
 C16     -Pd2     -C21     -H26     : 118.146188
 C16     -C17     -C18     -C19     :   3.751948
 C16     -C17     -C18     -H24     :-176.786525
 C16     -C21     -C20     -C19     :   4.092257
 C16     -C21     -C20     -H25     :-176.900045
 C17     -C16     -Pd2     -C21     : 114.793083
 C17     -C16     -C21     -C20     :  -1.220481
 C17     -C16     -C21     -H26     : 172.197924
 C17     -C18     -C19     -C20     :  -0.857936
 C18     -C17     -C16     -C21     :  -2.640704
 C18     -C17     -C16     -F22     : 167.943741
 C18     -C19     -N2      -H30     : -12.828771
 C18     -C19     -N2      -C31     : 124.554365
 C18     -C19     -C20     -C21     :  -2.998054
 C18     -C19     -C20     -H25     : 178.003928
 C19     -N2      -C31     -C30     :  91.282879
 C19     -N2      -C31     -C32     : -88.672767
 C19     -C18     -C17     -H23     :-179.534091
 C19     -C20     -C21     -H26     :-169.343924
 C20     -C19     -N2      -H30     : 164.947429
 C20     -C19     -N2      -C31     : -57.669435
 C20     -C19     -C18     -H24     : 179.688934
 C20     -C21     -C16     -F22     :-171.622491
 C21     -Pd2     -P1      -C3      :  39.082035
 C21     -Pd2     -P1      -C4      : -80.541751
 C21     -Pd2     -P1      -C5      : 155.635533
 C21     -Pd2     -C16     -F22     :-117.504091
 C21     -C16     -C17     -H23     :-179.372916
 F22     -C16     -C17     -H23     :  -8.788470
 F22     -C16     -C21     -H26     :   1.795914
 H23     -C17     -C18     -H24     :  -0.072564
 H25     -C20     -C21     -H26     :   9.663774
 H30     -N2      -C31     -C30     :-129.352157
 H30     -N2      -C31     -C32     :  50.692197
 C28     -C29     -C30     -C31     :   0.001573
 C28     -C29     -C30     -H36     : 179.927653
 C28     -C33     -C32     -C31     :  -0.002488
 C28     -C33     -C32     -H37     : 179.899183
 C29     -C28     -C33     -C32     :   0.025802
 C29     -C28     -C33     -H38     :-179.999332
 C29     -C30     -C31     -C32     :   0.021742
 C30     -C29     -C28     -C33     :  -0.025344
 C30     -C29     -C28     -H34     :-179.999410
 C30     -C31     -C32     -C33     :  -0.021280
 C30     -C31     -C32     -H37     :-179.923093
 C31     -C30     -C29     -H35     : 179.983904
 C31     -C32     -C33     -H38     :-179.977369
 C32     -C31     -C30     -H36     :-179.904514
 C32     -C33     -C28     -H34     : 179.999861
 C33     -C28     -C29     -H35     : 179.992332
 H34     -C28     -C29     -H35     :   0.018266
 H34     -C28     -C33     -H38     :  -0.025273
 H35     -C29     -C30     -H36     :  -0.090016
 H37     -C32     -C33     -H38     :  -0.075697
 C3      -P1      -C4      -C41     : -38.033943
 C3      -P1      -C4      -C42     :  87.192990
 C3      -P1      -C4      -C43     :-151.804036
 C3      -P1      -C5      -C44     :-177.551480
 C3      -P1      -C5      -C45     :  66.898362
 C3      -P1      -C5      -C22     : -50.838262
 C3      -C12     -C6      -C7      :-105.229903
 C3      -C12     -C6      -C11     :  76.963456
 C3      -C12     -C13     -C14     :  -0.140080
 C3      -C12     -C13     -H28     : 179.906721
 C3      -C40     -C15     -C14     :   0.099553
 C3      -C40     -C15     -H54     :-179.956131
 C4      -P1      -C3      -C12     : 129.317996
 C4      -P1      -C3      -C40     : -51.776702
 C4      -P1      -C5      -C44     : -56.114482
 C4      -P1      -C5      -C45     :-171.664640
 C4      -P1      -C5      -C22     :  70.598736
 C5      -P1      -C3      -C12     :-106.100913
 C5      -P1      -C3      -C40     :  72.804389
 C5      -P1      -C4      -C41     :-157.677560
 C5      -P1      -C4      -C42     : -32.450627
 C5      -P1      -C4      -C43     :  88.552347
 C6      -C7      -C8      -C9      :   0.224682
 C6      -C7      -C8      -H48     : 179.995260
 C6      -C11     -C10     -C9      :   0.243359
 C6      -C11     -C10     -H50     : 179.736727
 C6      -C12     -C3      -C40     :-179.983202
 C6      -C12     -C13     -C14     :-179.928898
 C6      -C12     -C13     -H28     :   0.117904
 C7      -C6      -C11     -C10     :   0.318215
 C7      -C6      -C11     -H27     :-179.964350
 C7      -C6      -C12     -C13     :  74.525157
 C7      -C8      -C9      -C10     :   0.373468
 C7      -C8      -C9      -H49     :-179.938563
 C8      -C7      -C6      -C11     :  -0.550335
 C8      -C7      -C6      -C12     :-178.615053
 C8      -C9      -C10     -C11     :  -0.593250
 C8      -C9      -C10     -H50     : 179.909646
 C9      -C8      -C7      -H47     : 179.737808
 C9      -C10     -C11     -H27     :-179.497962
 C10     -C9      -C8      -H48     :-179.398936
 C10     -C11     -C6      -C12     : 178.295842
 C11     -C6      -C7      -H47     : 179.982889
 C11     -C6      -C12     -C13     :-103.281484
 C11     -C10     -C9      -H49     : 179.717765
 C12     -C3      -C40     -C15     :  -0.257312
 C12     -C3      -C40     -H31     :-179.919835
 C12     -C6      -C7      -H47     :   1.918170
 C12     -C6      -C11     -H27     :  -1.986723
 C12     -C13     -C14     -C15     :  -0.012049
 C12     -C13     -C14     -H29     : 179.989723
 C13     -C12     -C3      -C40     :   0.260319
 C13     -C14     -C15     -C40     :   0.038312
 C13     -C14     -C15     -H54     :-179.905989
 C14     -C15     -C40     -H31     : 179.779901
 C15     -C14     -C13     -H28     : 179.945382
 C40     -C15     -C14     -H29     :-179.963448
 C41     -C4      -C42     -H59     :  63.074571
 C41     -C4      -C42     -H60     :-173.241783
 C41     -C4      -C42     -H61     : -55.313374
 C41     -C4      -C43     -H62     : -62.071671
 C41     -C4      -C43     -H39     :  57.913049
 C41     -C4      -C43     -H40     : 177.829890
 C42     -C4      -C41     -H32     : -64.991777
 C42     -C4      -C41     -H33     :  54.554839
 C42     -C4      -C41     -H58     : 174.600620
 C42     -C4      -C43     -H62     :-172.907502
 C42     -C4      -C43     -H39     : -52.922781
 C42     -C4      -C43     -H40     :  66.994059
 C43     -C4      -C41     -H32     :-174.091326
 C43     -C4      -C41     -H33     : -54.544710
 C43     -C4      -C41     -H58     :  65.501071
 C43     -C4      -C42     -H59     : 172.759604
 C43     -C4      -C42     -H60     : -63.556750
 C43     -C4      -C42     -H61     :  54.371659
 C44     -C5      -C45     -H44     : -61.779355
 C44     -C5      -C45     -H45     :  58.286975
 C44     -C5      -C45     -H46     : 177.964891
 C44     -C5      -C22     -H71     :  69.755930
 C44     -C5      -C22     -H72     :-167.537850
 C44     -C5      -C22     -H73     : -49.398431
 C45     -C5      -C44     -H41     :  66.502569
 C45     -C5      -C44     -H42     :-172.542541
 C45     -C5      -C44     -H43     : -53.401874
 C45     -C5      -C22     -H71     :-179.550487
 C45     -C5      -C22     -H72     : -56.844267
 C45     -C5      -C22     -H73     :  61.295152
 C22     -C5      -C44     -H41     : 176.318472
 C22     -C5      -C44     -H42     : -62.726638
 C22     -C5      -C44     -H43     :  56.414030
 C22     -C5      -C45     -H44     :-173.518060
 C22     -C5      -C45     -H45     : -53.451730
 C22     -C5      -C45     -H46     :  66.226186
 H47     -C7      -C8      -H48     :  -0.491614
 H48     -C8      -C9      -H49     :   0.289033
 H49     -C9      -C10     -H50     :   0.220662
[...]
    H41      Y     0.00003  -0.00003   0.00009  -0.00148   0.00003  -0.00016
    H41      Z    -0.00010   0.00018  -0.00016   0.00696  -0.00016   0.00008
    H42      X    -0.00014  -0.00009   0.00020   0.00168   0.00005  -0.00046
    H42      Y     0.00024   0.00019  -0.00029  -0.00302  -0.00009   0.00070
    H42      Z     0.00004   0.00004  -0.00001  -0.00045  -0.00002   0.00007
    H43      X    -0.00002  -0.00039  -0.00019  -0.00059   0.00011   0.00006
    H43      Y    -0.00003  -0.00038  -0.00023  -0.00031   0.00010   0.00010
    H43      Z    -0.00001  -0.00006  -0.00008  -0.00042   0.00002   0.00005
    H44      X    -0.00092   0.00016  -0.00009   0.00058  -0.00155  -0.00025
    H44      Y     0.00046  -0.00005   0.00005  -0.00010   0.00058   0.00026
    H44      Z    -0.00164   0.00033  -0.00013   0.00080  -0.00213  -0.00044
    H45      X    -0.00040  -0.00064  -0.00006  -0.00049   0.00008  -0.00026
    H45      Y    -0.00036  -0.00062  -0.00006  -0.00050   0.00003  -0.00023
    H45      Z    -0.00009  -0.00012  -0.00000  -0.00025   0.00007  -0.00010
    H46      X     0.00016  -0.00051   0.00018  -0.00059   0.00072   0.00012
    H46      Y    -0.00000   0.00023   0.00000  -0.00003  -0.00002   0.00002
    H46      Z    -0.00006   0.00055  -0.00020   0.00073  -0.00085  -0.00015
    H71      X    -0.00007  -0.00183  -0.00005   0.00015   0.00011  -0.00028
    H71      Y     0.00009   0.00348   0.00010  -0.00021  -0.00021   0.00048
    H71      Z     0.00001   0.00015   0.00003   0.00001  -0.00000   0.00001
    H72      X     0.00052  -0.00788   0.00001  -0.00016   0.00028  -0.00010
    H72      Y     0.00005  -0.00081  -0.00000  -0.00001   0.00003  -0.00002
    H72      Z    -0.00064   0.00986  -0.00002   0.00023  -0.00039   0.00016
    H73      X     0.00004  -0.00120  -0.00009  -0.00022   0.00013  -0.00007
    H73      Y     0.00005  -0.00147  -0.00010  -0.00022   0.00015  -0.00000
    H73      Z     0.00001  -0.00041  -0.00003  -0.00008   0.00004  -0.00009
  
  vibration #          211       212       213
                 --------- --------- ---------
  frequencies      3244.41   3247.86   3596.03
  intensities        10.32      0.74     32.03
  reduc. mass         0.86      0.66      0.94
  force const         5.35      4.12      7.16
    P1       X     0.00005   0.00001  -0.00000
    P1       Y    -0.00001  -0.00001   0.00000
    P1       Z     0.00009   0.00002  -0.00001
    Pd2      X    -0.00000   0.00001  -0.00000
    Pd2      Y    -0.00000  -0.00002  -0.00000
    Pd2      Z     0.00000   0.00000   0.00000
    N2       X     0.00000  -0.00066   0.06498
    N2       Y     0.00002  -0.00014   0.01946
    N2       Z    -0.00000   0.00021  -0.01718
    C16      X    -0.00001   0.00000  -0.00006
    C16      Y     0.00000   0.00037   0.00000
    C16      Z    -0.00000   0.00001   0.00002
    C17      X     0.00002   0.00027   0.00007
    C17      Y     0.00000   0.00051  -0.00019
    C17      Z     0.00000   0.00001   0.00007
    C18      X     0.00002  -0.00014  -0.00045
    C18      Y     0.00002   0.00017   0.00027
    C18      Z     0.00000   0.00002   0.00001
    C19      X     0.00000   0.00118   0.00027
    C19      Y    -0.00002  -0.00016   0.00050
    C19      Z    -0.00000   0.00000  -0.00018
    C20      X     0.00009  -0.01214  -0.00077
    C20      Y     0.00022  -0.02841   0.00007
    C20      Z     0.00004  -0.00813   0.00003
    C21      X     0.00006  -0.00354   0.00011
    C21      Y    -0.00001   0.00045   0.00000
    C21      Z     0.00001  -0.00107   0.00002
    F22      X     0.00000   0.00001  -0.00003
    F22      Y    -0.00000  -0.00002   0.00004
    F22      Z    -0.00000   0.00001  -0.00001
    H23      X    -0.00006  -0.00218   0.00022
    H23      Y    -0.00014  -0.00555   0.00041
    H23      Z    -0.00001  -0.00020  -0.00013
    H24      X    -0.00026   0.00156   0.00206
    H24      Y    -0.00004   0.00006  -0.00124
    H24      Z    -0.00001  -0.00028  -0.00086
    H25      X    -0.00099   0.13370   0.00051
    H25      Y    -0.00255   0.33770   0.00082
    H25      Z    -0.00065   0.08740  -0.00005
    H26      X    -0.00040   0.03598  -0.00037
    H26      Y    -0.00006   0.00322  -0.00021
    H26      Z    -0.00010   0.01120  -0.00029
    H30      X    -0.00005   0.00134  -0.89156
    H30      Y    -0.00001  -0.00047  -0.26612
    H30      Z     0.00003  -0.00023   0.24175
    C28      X    -0.00001   0.00055  -0.00006
    C28      Y    -0.00002  -0.00223  -0.00018
    C28      Z     0.00000  -0.00037   0.00001
    C29      X     0.00002  -0.00770   0.00010
    C29      Y     0.00002  -0.00680   0.00013
    C29      Z    -0.00001   0.00432  -0.00006
    C30      X     0.00029  -0.05243  -0.00061
    C30      Y    -0.00022   0.04188  -0.00052
    C30      Z    -0.00020   0.03572   0.00032
    C31      X    -0.00002   0.00238   0.00046
    C31      Y    -0.00003   0.00164  -0.00034
    C31      Z     0.00001  -0.00125  -0.00053
    C32      X     0.00000   0.00009  -0.00024
    C32      Y     0.00001  -0.00030  -0.00051
    C32      Z    -0.00000  -0.00009   0.00016
    C33      X     0.00001   0.00098  -0.00004
    C33      Y    -0.00001  -0.00074   0.00021
    C33      Z    -0.00001  -0.00057   0.00000
    H34      X     0.00002   0.00096   0.00011
    H34      Y     0.00025   0.01897   0.00058
    H34      Z     0.00000   0.00001   0.00008
    H35      X    -0.00024   0.08530  -0.00038
    H35      Y    -0.00015   0.04784   0.00004
    H35      Z     0.00014  -0.04813   0.00040
    H36      X    -0.00329   0.60098   0.00100
    H36      Y     0.00259  -0.48096  -0.00071
    H36      Z     0.00221  -0.40294  -0.00062
    H37      X    -0.00006   0.00179   0.00123
    H37      Y    -0.00004   0.00123   0.00241
    H37      Z     0.00004  -0.00073  -0.00028
    H38      X    -0.00017  -0.00970   0.00040
    H38      Y     0.00013   0.00734  -0.00022
    H38      Z     0.00010   0.00574  -0.00015
    C3       X     0.00022  -0.00001   0.00000
    C3       Y    -0.00005   0.00002  -0.00000
    C3       Z    -0.00269  -0.00004   0.00001
    C4       X    -0.00004   0.00003  -0.00000
    C4       Y    -0.00002  -0.00001  -0.00000
    C4       Z     0.00010  -0.00006   0.00001
    C5       X    -0.00017  -0.00000   0.00000
    C5       Y     0.00005   0.00001   0.00000
    C5       Z     0.00011  -0.00002   0.00000
    C6       X     0.00003  -0.00001   0.00000
    C6       Y     0.00001   0.00001   0.00000
    C6       Z    -0.00005   0.00001   0.00000
    C7       X    -0.00001  -0.00001  -0.00000
    C7       Y    -0.00018  -0.00006   0.00000
    C7       Z     0.00012   0.00002   0.00000
    C8       X    -0.00007  -0.00004  -0.00001
    C8       Y    -0.00008  -0.00006   0.00000
    C8       Z    -0.00007  -0.00003   0.00000
    C9       X    -0.00005  -0.00001  -0.00000
    C9       Y     0.00001   0.00001  -0.00000
    C9       Z    -0.00010  -0.00004   0.00000
    C10      X     0.00003  -0.00000  -0.00000
    C10      Y     0.00023   0.00004   0.00000
    C10      Z    -0.00009   0.00002   0.00000
    C11      X     0.00006  -0.00006   0.00000
    C11      Y     0.00009  -0.00002   0.00000
    C11      Z     0.00008  -0.00003   0.00000
    C12      X    -0.00062   0.00000  -0.00000
    C12      Y     0.00007  -0.00000   0.00000
    C12      Z    -0.00027   0.00001   0.00000
    C13      X    -0.00170  -0.00002   0.00000
    C13      Y     0.00022   0.00000   0.00000
    C13      Z    -0.00108  -0.00002   0.00001
    C14      X    -0.00352  -0.00004   0.00000
    C14      Y     0.00038   0.00000   0.00000
    C14      Z     0.00116   0.00002   0.00000
    C15      X    -0.00073  -0.00000  -0.00000
    C15      Y     0.00020   0.00000   0.00000
    C15      Z     0.01659   0.00011  -0.00000
    C40      X     0.07271   0.00043  -0.00001
    C40      Y    -0.00939  -0.00006   0.00000
    C40      Z     0.03508   0.00020   0.00000
    C41      X    -0.00000   0.00008  -0.00000
    C41      Y    -0.00009   0.00044   0.00000
    C41      Z     0.00014  -0.00197  -0.00001
    C42      X    -0.00131   0.00004  -0.00000
    C42      Y     0.00037  -0.00004  -0.00000
    C42      Z     0.00066  -0.00001  -0.00000
    C43      X     0.00004  -0.00011  -0.00001
    C43      Y    -0.00005   0.00041  -0.00001
    C43      Z     0.00014  -0.00113  -0.00001
    C44      X     0.00015   0.00005  -0.00001
    C44      Y    -0.00009  -0.00008  -0.00003
    C44      Z     0.00018   0.00000  -0.00000
    C45      X    -0.00013   0.00001  -0.00000
    C45      Y    -0.00003   0.00001  -0.00000
    C45      Z     0.00030  -0.00000  -0.00000
    C22      X    -0.00288   0.00001  -0.00000
    C22      Y     0.00046  -0.00005  -0.00000
    C22      Z     0.00329   0.00001  -0.00000
    H47      X     0.00027   0.00012   0.00001
    H47      Y     0.00181   0.00070  -0.00001
    H47      Z    -0.00091  -0.00034   0.00000
    H48      X     0.00080   0.00053  -0.00001
    H48      Y     0.00102   0.00066  -0.00002
    H48      Z     0.00074   0.00043  -0.00001
    H49      X     0.00057   0.00015  -0.00001
    H49      Y    -0.00027  -0.00009   0.00000
    H49      Z     0.00111   0.00037  -0.00002
    H50      X    -0.00032  -0.00002   0.00003
    H50      Y    -0.00254  -0.00036  -0.00003
    H50      Z     0.00118   0.00012   0.00001
    H27      X    -0.00052   0.00023  -0.00002
    H27      Y    -0.00083   0.00032  -0.00004
    H27      Z    -0.00067   0.00023  -0.00003
    H28      X     0.01819   0.00015  -0.00000
    H28      Y    -0.00239  -0.00002   0.00000
    H28      Z     0.00914   0.00009  -0.00000
    H29      X     0.02960   0.00039  -0.00003
    H29      Y    -0.00336  -0.00004   0.00001
    H29      Z    -0.01857  -0.00026   0.00002
    H54      X    -0.01269  -0.00009   0.00000
    H54      Y     0.00058   0.00000   0.00000
    H54      Z    -0.16533  -0.00117   0.00005
    H31      X    -0.83738  -0.00486   0.00003
    H31      Y     0.10815   0.00062  -0.00001
    H31      Z    -0.40457  -0.00235   0.00001
    H32      X     0.00045  -0.00434  -0.00006
    H32      Y    -0.00021   0.00114   0.00002
    H32      Z    -0.00010   0.00179   0.00004
    H33      X    -0.00024   0.00047   0.00001
    H33      Y     0.00091  -0.00080  -0.00001
    H33      Z    -0.00004  -0.00092  -0.00001
    H58      X    -0.00009   0.00093   0.00002
    H58      Y     0.00029  -0.00691  -0.00002
    H58      Z    -0.00176   0.02655   0.00014
    H59      X     0.01677  -0.00093  -0.00003
    H59      Y    -0.00029   0.00002   0.00000
    H59      Z    -0.00775   0.00061   0.00003
    H60      X    -0.00199   0.00013   0.00003
    H60      Y    -0.00269   0.00008   0.00003
    H60      Z    -0.00167   0.00003   0.00003
    H61      X     0.00231  -0.00013   0.00001
    H61      Y    -0.00558   0.00063  -0.00003
    H61      Z    -0.00074  -0.00015   0.00000
    H62      X     0.00022  -0.00052   0.00005
    H62      Y     0.00074  -0.00587   0.00001
    H62      Z    -0.00212   0.01167  -0.00003
    H39      X    -0.00025  -0.00021  -0.00002
    H39      Y     0.00072  -0.00055   0.00002
    H39      Z     0.00013  -0.00056  -0.00000
    H40      X    -0.00050   0.00296   0.00006
    H40      Y    -0.00027   0.00163   0.00006
    H40      Z    -0.00026   0.00295   0.00007
    H41      X    -0.00126  -0.00007   0.00005
    H41      Y     0.00069   0.00008  -0.00007
    H41      Z    -0.00223  -0.00019  -0.00003
    H42      X    -0.00007  -0.00055  -0.00014
    H42      Y     0.00031   0.00075   0.00011
    H42      Z    -0.00001   0.00012  -0.00005
    H43      X    -0.00039   0.00002   0.00014
    H43      Y    -0.00034   0.00013   0.00021
    H43      Z    -0.00009   0.00003   0.00011
    H44      X    -0.00058   0.00003   0.00001
    H44      Y     0.00047   0.00005  -0.00003
    H44      Z    -0.00179   0.00005   0.00001
    H45      X    -0.00004  -0.00010   0.00005
    H45      Y    -0.00007  -0.00009   0.00005
    H45      Z     0.00003  -0.00004   0.00002
    H46      X     0.00221  -0.00004  -0.00003
    H46      Y    -0.00059   0.00001   0.00000
    H46      Z    -0.00155   0.00002   0.00003
    H71      X     0.00540  -0.00032  -0.00001
    H71      Y    -0.01073   0.00048  -0.00003
    H71      Z    -0.00027  -0.00001  -0.00001
    H72      X     0.03719   0.00012  -0.00002
    H72      Y     0.00515   0.00003  -0.00001
    H72      Z    -0.04425  -0.00013   0.00003
    H73      X     0.00249  -0.00000   0.00006
    H73      Y     0.00362   0.00008   0.00007
    H73      Z     0.00135  -0.00003   0.00003
  
  Number of imaginary frequencies:   1
   
  Writing vibrational animation data to red_elim_complex_L1_PL139.vib
  Writing IR vibrational spectrum data to red_elim_complex_L1_PL139_vib.spm
  rotational symmetry number:  1

  rotational temperatures (K):      0.006376      0.004389      0.003670
   
  The Quasi-Harmonic approximation will be applied to compute
  vibrational constributions to thermodynamic properties.
  Frequencies will be adjusted to a minimum value of  100.00 cm^-1.

    1 vibrational frequencies below    0.0 cm-1 not included in zero-point
  energy or thermochemical analysis.  Set freqcut to change the frequency
  cutoff value.

  vibrational temperatures:
       mode:      2        3        4        5        6        7
  temp. (K):   143.88   143.88   143.88   143.88   143.88   143.88
   
       mode:      8        9       10       11       12       13
  temp. (K):   143.88   143.88   143.88   143.88   143.88   159.16
   
       mode:     14       15       16       17       18       19
  temp. (K):   172.08   176.56   183.78   193.21   206.44   217.16
   
       mode:     20       21       22       23       24       25
  temp. (K):   225.84   246.68   305.98   334.39   341.78   350.13
   
       mode:     26       27       28       29       30       31
  temp. (K):   359.14   363.96   370.79   379.45   404.41   410.46
   
       mode:     32       33       34       35       36       37
  temp. (K):   416.80   443.59   450.09   458.64   470.59   478.71
   
       mode:     38       39       40       41       42       43
  temp. (K):   486.68   505.86   517.30   535.21   556.61   579.62
   
       mode:     44       45       46       47       48       49
  temp. (K):   587.17   591.39   593.78   597.54   617.91   622.19
   
       mode:     50       51       52       53       54       55
  temp. (K):   632.78   697.62   719.14   730.76   735.64   743.92
   
       mode:     56       57       58       59       60       61
  temp. (K):   761.91   781.99   805.82   809.31   850.34   881.90
   
       mode:     62       63       64       65       66       67
  temp. (K):   888.03   898.21   901.68   903.08   946.53   985.07
   
       mode:     68       69       70       71       72       73
  temp. (K):  1000.42  1026.96  1034.65  1084.70  1101.53  1107.36
   
       mode:     74       75       76       77       78       79
  temp. (K):  1107.79  1126.62  1141.84  1160.33  1175.89  1197.14
   
       mode:     80       81       82       83       84       85
  temp. (K):  1202.87  1214.40  1228.53  1231.85  1289.02  1296.89
   
       mode:     86       87       88       89       90       91
  temp. (K):  1303.65  1313.06  1322.12  1355.69  1375.18  1377.51
   
       mode:     92       93       94       95       96       97
  temp. (K):  1386.11  1391.86  1402.44  1409.70  1412.71  1420.11
   
       mode:     98       99      100      101      102      103
  temp. (K):  1425.37  1435.93  1453.11  1454.89  1459.10  1463.34
   
       mode:    104      105      106      107      108      109
  temp. (K):  1470.28  1473.14  1501.58  1515.32  1517.01  1522.63
   
       mode:    110      111      112      113      114      115
  temp. (K):  1532.14  1536.82  1541.13  1596.64  1599.20  1609.27
   
       mode:    116      117      118      119      120      121
  temp. (K):  1640.96  1679.98  1702.35  1728.86  1731.86  1739.32
   
       mode:    122      123      124      125      126      127
  temp. (K):  1750.22  1751.99  1756.62  1771.46  1773.31  1783.97
   
       mode:    128      129      130      131      132      133
  temp. (K):  1794.59  1801.06  1808.10  1818.25  1847.05  1868.35
   
       mode:    134      135      136      137      138      139
  temp. (K):  1877.18  1919.51  1921.78  1948.69  1972.76  1975.11
   
       mode:    140      141      142      143      144      145
  temp. (K):  2002.50  2006.90  2040.98  2045.69  2048.09  2050.79
   
       mode:    146      147      148      149      150      151
  temp. (K):  2051.36  2088.72  2098.89  2119.91  2128.79  2154.08
   
       mode:    152      153      154      155      156      157
  temp. (K):  2158.16  2161.30  2170.77  2171.89  2177.18  2177.81
   
       mode:    158      159      160      161      162      163
  temp. (K):  2186.34  2191.71  2202.40  2207.62  2209.41  2212.72
   
       mode:    164      165      166      167      168      169
  temp. (K):  2217.29  2227.20  2229.21  2235.83  2275.69  2332.74
   
       mode:    170      171      172      173      174      175
  temp. (K):  2340.74  2343.80  2368.14  2375.49  2382.16  2389.89
   
       mode:    176      177      178      179      180      181
  temp. (K):  2415.15  4367.72  4369.42  4370.12  4376.51  4377.74
   
       mode:    182      183      184      185      186      187
  temp. (K):  4384.79  4471.77  4473.87  4482.75  4484.42  4491.23
   
       mode:    188      189      190      191      192      193
  temp. (K):  4495.00  4516.52  4520.56  4535.93  4540.26  4543.35
   
       mode:    194      195      196      197      198      199
  temp. (K):  4549.25  4559.79  4577.73  4578.39  4582.17  4582.52
   
       mode:    200      201      202      203      204      205
  temp. (K):  4592.00  4594.32  4596.16  4597.65  4600.96  4614.57
   
       mode:    206      207      208      209      210      211
  temp. (K):  4618.19  4619.60  4625.35  4646.91  4648.60  4667.98
   
       mode:    212      213
  temp. (K):  4672.94  5173.88
   
   
  Thermodynamic properties calculated assuming an ideal gas

  In the table below, the units for temperature
  are kelvins, the units for U, H, and G are
  kcal/mol and the units for Cv and S are cal/(mol K)

  The zero point energy (ZPE):    386.049 kcal/mol
  is not included in U, H, or G in the table below
  
 
  =============================================================================
  Thermodynamic properties for P = 1.00E+00 atm, calculated at   1 temperatures


  T =   298.15 K, P = 1.00E+00 atm
   
                  U         Cv          S          H          G        ln(Q)
              =========  =========  =========  =========  =========  =========
  trans.          0.889      2.981     45.015      1.481    -11.940   20.15227
  rot.            0.889      2.981     37.090      0.889    -10.170   17.16448
  vib.           19.747    133.568    118.228     19.747    -15.503   26.16537
  elec.           0.000      0.000      0.000      0.000      0.000    0.00000
  ----------------------------------------------------------------------------
  total          21.524    139.529    200.333     22.117    -37.612   63.48212
   
   Total internal energy, Utot(SCFE + ZPE + U):   -1863.361213 hartrees
   Total enthalpy, Htot (Utot + nRT), with n=1:   -1863.360269 hartrees
    Total Gibbs free energy, Gtot (Htot - T*S):   -1863.455453 hartrees
   
  end of program freq
   
 Time(freq)  user:       0.372  user+sys:       0.372  wallclock:       0.538
  
  start of program post
  
  Writing input files for PBF
  end of program post
   
 Time(post)  user:       0.162  user+sys:       0.162  wallclock:       0.111

 Total cpu seconds     user:   76182.153   user+sys:   76182.153
  
 Total elapsed time:    43605 seconds

Job red_elim_complex_L1_PL139 completed on bp1-compute086.data.bp.acrc.priv at Thu Apr 24 13:24:30 2025
