Job red_elim_TS_L1_PL139_3 started on bp1-compute062.data.bp.acrc.priv at Thu Apr 10 13:38:03 2025
jobid: bp1-compute062-0-67f7bb99

  +--------------------------------------------------------------------+
  |  Jaguar version 12.5, release 138                                  |
  |                                                                    |
  |  Copyright Schrodinger, Inc.                                       |
  |  All Rights Reserved.                                              |
  |                                                                    |
  |  The following have contributed to Jaguar (listed alphabetically): |
  |  Ty Balduf, Mike Beachy, Chandler Bennett, Art Bochevarov,         |
  |  Dale Braden, Yixiang Cao, Alan Chien, Chris Cortis,               |
  |  Rich Friesner, Jim Furness, Bill Goddard, Hod Greeley,            |
  |  Tom Hughes, Leif Jacobson, Jean-Marc Langlois, Daniel Levine,     |
  |  Rob Murphy, Dean Philipp, Tom Pollard, Murco Ringnalda,           |
  |  Daniel Mainz, Pablo Videla, Mark Watson, Haoyu Yu.                |
  |                                                                    |
  |  Use of this program should be acknowledged in publications as:    |
  |                                                                    |
  |  Jaguar, version 12.5, Schrodinger, Inc., New York, NY, 2024.      |
  |                                                                    |
  |  A. D. Bochevarov, E. Harder, T. F. Hughes, J. R. Greenwood,       |
  |  D. A. Braden, D. M. Philipp, D. Rinaldo, M. D. Halls,             |
  |  J. Zhang, R. A. Friesner, "Jaguar: A High-Performance Quantum     |
  |  Chemistry Software Program with Strengths in Life and Materials   |
  |  Sciences", Int. J. Quantum Chem., 2013, 113(18), 2110-2142.       |
  +--------------------------------------------------------------------+
  
  start of program pre
  
  Job name: red_elim_TS_L1_PL139_3
  Executables used: /software/local/apps/schrodinger2024-3/jaguar-v12.5/bin/Linux-x86_64
  Temporary files : /tmp/ar21627/red_elim_TS_L1_PL139_3#bp1-compute062-0-67f7bb99
  Basis file : using default basis file from /software/local/apps/schrodinger2024-3
  Maestro file (input):  red_elim_TS_L1_PL139_3.mae
  Maestro file (output): red_elim_TS_L1_PL139_3.01.mae
  
 Contents of input file: &gen and (if present) &atomic sections only
 ----------------Contents start----------------
&gen
dftname=b3pw91-d3
basis=6-31G*
numd=5
ip11=2
iaccg=3
isolv=2
igeopt=2
solvent=benzene
ifreq=1
&
&atomic
atom basis
Pd2 lacv3p*
&
 -----------------Contents end-----------------
 
  PS calculation requested. Using PS version of 6-31g*
  basis set:               non_standard                    
  net molecular charge:    0
  multiplicity:            1
  
  Using up to   4 threads per process
  
  This run will use ECP on 1 atom
  number of basis functions....          599
  
 Input geometry:
                                   angstroms
  atom               x                 y                 z
  P1            0.0000000000      0.0000000000      0.0000000000 
  Pd2           0.0000000000      0.0000000000      2.2771142511 
  N2           -0.5228653936      0.1669409009      4.2404988086 
  C16          -4.4628716720      1.6107409579      2.9789194635 
  C17          -3.3726660119      2.4850093732      3.0126747929 
  C18          -2.0578346192      2.0185046188      3.0509340949 
  C19          -1.7888477625      0.6406386986      3.0461273258 
  C20          -2.8801295205     -0.2461825453      3.0228057649 
  C21          -4.1859982368      0.2374152642      2.9838869298 
  F10          -5.7188880835      2.0553757390      2.9387736627 
  H23          -3.5487845968      3.5609026379      3.0081425236 
  H24          -1.2426710013      2.7366076865      3.0718998975 
  H25          -2.7127530553     -1.3198275074      3.0218715726 
  H26          -5.0111009933     -0.4750566885      2.9573892758 
  H18          -0.3957959229      1.0817177783      4.8380242173 
  C22          -2.4311241481     -2.9201828734      6.4730850531 
  C23          -2.1485541467     -3.1109079013      5.1105020619 
  C24          -1.5195605607     -2.0933409447      4.3746047813 
  C25          -1.1731369760     -0.8850489601      5.0012904920 
  C26          -1.4556621933     -0.6942514817      6.3638210876 
  C27          -2.0847005635     -1.7118908888      7.0997707638 
  H22          -2.9252726158     -3.7196014422      7.0512189509 
  H27          -2.4207723426     -4.0602497690      4.6182603812 
  H28          -1.2975854867     -2.2431918007      3.3041768120 
  H29          -1.1834914261      0.2549604337      6.8560333926 
  H30          -2.3066756194     -1.5620400405      8.1701987379 
  C3            1.4037020000      0.0000000000     -0.5287930000 
  C4           -0.7175880000      1.2185950000     -0.5000930000 
  C5           -0.6270920000     -1.2611540000     -0.5159910000 
  C6            2.7260500000     -0.4853270000      1.6271060000 
  C7            3.2037415467      0.4890420836      2.5421914869 
  C8            3.3427076298      0.2842074305      3.9252858075 
  C9            3.0029181845     -0.9436439155      4.4993369091 
  C10           2.5252920939     -1.9426734330      3.6472603508 
  C11           2.3990175195     -1.7026668968      2.2690586205 
  C12           2.6019460000     -0.2304150000      0.2176440000 
  C13           3.7878870000     -0.1958030000     -0.5613940000 
  C14           3.8431800000      0.0372740000     -1.9422500000 
  C15           2.6594980000      0.2557690000     -2.6437450000 
  C40           1.4669940000      0.2303350000     -1.9171010000 
  C41          -0.1782669036      2.4539395544      0.2552676857 
  C42          -0.7162643135      1.5373066202     -2.0119024163 
  C43          -2.1999024116      1.0667094785     -0.0838471043 
  C44          -2.1080070000     -1.3722510000     -0.0979990000 
  C45           0.1221730000     -2.4158010000      0.1891870000 
  C46          -0.5185810000     -1.5249020000     -2.0327640000 
  H47           3.5106140782      1.4986757485      2.2438585944 
  H48           3.7228140409      1.0933906243      4.5725414540 
  H49           3.1073365851     -1.1176845047      5.5835144817 
  H50           2.2473488768     -2.9241184415      4.0688263639 
  H51           2.0137140197     -2.5696189083      1.7348519269 
  H52           4.7885530000     -0.3513670000     -0.1424820000 
  H53           4.8080470000      0.0488480000     -2.4782120000 
  H54           2.6670950000      0.4405860000     -3.7314160000 
  H31           0.5556520000      0.4025780000     -2.4991290000 
  H32           0.8712993653      2.6886120596     -0.0287951952 
  H33          -0.7777317218      3.3670625777      0.0364803735 
  H34          -0.2001311677      2.3001227583      1.3586330880 
  H35           0.2925619190      1.7506250025     -2.4213082775 
  H36          -1.1744391453      0.7227335977     -2.6119436753 
  H37          -1.3190305652      2.4493591000     -2.2253080750 
  H38          -2.3017849584      0.9011582220      1.0134788451 
  H39          -2.7993551637      1.9722929590     -0.3325886445 
  H40          -2.6880385674      0.2062753141     -0.5930458153 
  H41          -2.2342810000     -1.2048910000      0.9961800000 
  H42          -2.7473770000     -0.6357650000     -0.6300580000 
  H43          -2.5273370000     -2.3781680000     -0.3286700000 
  H44           0.0340770000     -2.3450000000      1.2976900000 
  H45          -0.2765190000     -3.4128720000     -0.1076560000 
  H46           1.2083020000     -2.4115640000     -0.0586600000 
  H71          -0.9941950000     -0.7270730000     -2.6402850000 
  H72           0.5384110000     -1.6346130000     -2.3615300000 
  H73          -1.0269740000     -2.4759130000     -2.3116700000 
   
  principal moments of inertia:
        amu*angstrom^2:              3265.35798              5182.15285              6810.09382
                g*cm^2:          5.42225382E-37          8.60516619E-37          1.13084254E-36
   
  rotational constants:
               cm^(-1):      0.00516257      0.00325302      0.00247539
                   GHz:      0.15476986      0.09752298      0.07421029
   
  Molecular weight:     591.17 amu
   
  Stoichiometry: PdC32PNH37F
  Molecular Point Group: C1      
  Point Group used: C1
  
 
Number of optimization coordinates:   255
Number of independent coordinates:    255
Number of non-redundant coordinates:  213
Number of frozen coordinates:           0
Number of harmonic constraints:         0
 
Number of geometric degrees of freedom:   213
Maximum geometric degrees of freedom:     213
 " " " " " excluding dummy atoms:         213
 
 
  bond lengths (angstroms):
 
 P1      -Pd2     :   2.277114      P1      -C3      :   1.500000
 P1      -C4      :   1.500000      P1      -C5      :   1.500000
 Pd2     -N2      :   2.038660      Pd2     -C19     :   2.049823
 N2      -C19     :   1.803781      N2      -H18     :   1.100000
 N2      -C25     :   1.452012      C16     -C17     :   1.397867
 C16     -C21     :   1.400966      C16     -F10     :   1.333000
 C17     -C18     :   1.395662      C17     -H23     :   1.090222
 C18     -C19     :   1.403884      C18     -H24     :   1.086556
 C19     -C20     :   1.406375      C20     -C21     :   1.393081
 C20     -H25     :   1.086614      C21     -H26     :   1.090465
 C22     -C23     :   1.404583      C22     -C27     :   1.404533
 C22     -H22     :   1.103400      C23     -C24     :   1.404500
 C23     -H27     :   1.103474      C24     -C25     :   1.404533
 C24     -H28     :   1.103424      C25     -C26     :   1.404533
 C26     -C27     :   1.404600      C26     -H29     :   1.103337
 C27     -H30     :   1.103424      C3      -C12     :   1.430401
 C3      -C40     :   1.408708      C4      -C41     :   1.545158
 C4      -C42     :   1.545039      C4      -C43     :   1.547122
 C5      -C44     :   1.542780      C5      -C45     :   1.546572
 C5      -C46     :   1.543353      C6      -C7      :   1.419495
 C6      -C11     :   1.414556      C6      -C12     :   1.437694
 C7      -C8      :   1.405069      C7      -H47     :   1.096601
 C8      -C9      :   1.397358      C8      -H48     :   1.103720
 C9      -C10     :   1.397219      C9      -H49     :   1.103011
 C10     -C11     :   1.404631      C10     -H50     :   1.103723
 C11     -H51     :   1.088780      C12     -C13     :   1.419350
 C13     -C14     :   1.401480      C13     -H52     :   1.095911
 C14     -C15     :   1.393176      C14     -H53     :   1.103792
 C15     -C40     :   1.396683      C15     -H54     :   1.103287
 C40     -H31     :   1.094974      C41     -H32     :   1.112363
 C41     -H33     :   1.114011      C41     -H34     :   1.114250
 C42     -H35     :   1.109436      C42     -H36     :   1.110632
 C42     -H37     :   1.113871      C43     -H38     :   1.114411
 C43     -H39     :   1.114135      C43     -H40     :   1.112613
 C44     -H41     :   1.114084      C44     -H42     :   1.110987
 C44     -H43     :   1.113964      C45     -H44     :   1.114250
 C45     -H45     :   1.114101      C45     -H46     :   1.114057
 C46     -H71     :   1.109875      C46     -H72     :   1.112365
 C46     -H73     :   1.113855
 
  bond angles:
 
 C3      -P1      -Pd2     : 110.642051  C4      -P1      -Pd2     : 109.474992
 C4      -P1      -C3      : 109.277784  C5      -P1      -Pd2     : 110.120396
 C5      -P1      -C3      : 105.661559  C5      -P1      -C4      : 111.614203
 N2      -Pd2     -P1      : 164.381526  C19     -Pd2     -P1      : 112.034244
 C19     -Pd2     -N2      :  52.358247  C19     -N2      -Pd2     :  64.139084
 H18     -N2      -Pd2     : 124.167840  H18     -N2      -C19     : 102.847973
 C25     -N2      -Pd2     : 124.065642  C25     -N2      -C19     : 102.878543
 C25     -N2      -H18     : 111.692617  C21     -C16     -C17     : 117.314332
 F10     -C16     -C17     : 121.801242  F10     -C16     -C21     : 120.884022
 C18     -C17     -C16     : 121.759000  H23     -C17     -C16     : 119.414265
 H23     -C17     -C18     : 118.826706  C19     -C18     -C17     : 120.561964
 H24     -C18     -C17     : 119.104155  H24     -C18     -C19     : 120.329433
 N2      -C19     -Pd2     :  63.502669  C18     -C19     -Pd2     : 118.374570
 C18     -C19     -N2      : 112.951719  C20     -C19     -Pd2     : 118.285530
 C20     -C19     -N2      : 112.953610  C20     -C19     -C18     : 118.051717
 C21     -C20     -C19     : 120.593282  H25     -C20     -C19     : 120.234262
 H25     -C20     -C21     : 119.167684  C20     -C21     -C16     : 121.712047
 H26     -C21     -C16     : 119.396539  H26     -C21     -C20     : 118.891399
 C27     -C22     -C23     : 120.002746  H22     -C22     -C23     : 120.000393
 H22     -C22     -C27     : 119.996860  C24     -C23     -C22     : 120.000393
 H27     -C23     -C22     : 119.995826  H27     -C23     -C24     : 120.003781
 C25     -C24     -C23     : 119.996860  H28     -C24     -C23     : 119.999284
 H28     -C24     -C25     : 120.003855  C24     -C25     -N2      : 119.996860
 C26     -C25     -N2      : 119.996860  C26     -C25     -C24     : 120.006279
 C27     -C26     -C25     : 119.996860  H29     -C26     -C25     : 120.001259
 H29     -C26     -C27     : 120.001881  C26     -C27     -C22     : 119.996860
 H30     -C27     -C22     : 120.003855  H30     -C27     -C26     : 119.999284
 C12     -C3      -P1      : 126.866735  C40     -C3      -P1      : 112.921406
 C40     -C3      -C12     : 120.197482  C41     -C4      -P1      : 108.635479
 C42     -C4      -P1      : 119.564083  C42     -C4      -C41     : 108.247562
 C43     -C4      -P1      : 106.792043  C43     -C4      -C41     : 106.342742
 C43     -C4      -C42     : 106.518855  C44     -C5      -P1      : 111.631893
 C45     -C5      -P1      : 105.564318  C45     -C5      -C44     : 106.722903
 C46     -C5      -P1      : 116.895060  C46     -C5      -C44     : 108.750722
 C46     -C5      -C45     : 106.646205  C11     -C6      -C7      : 112.083859
 C12     -C6      -C7      : 122.638665  C12     -C6      -C11     : 125.277476
 C8      -C7      -C6      : 124.596171  H47     -C7      -C6      : 123.420160
 H47     -C7      -C8      : 111.983632  C9      -C8      -C7      : 120.559660
 H48     -C8      -C7      : 120.294259  H48     -C8      -C9      : 119.146078
 C10     -C9      -C8      : 117.443483  H49     -C9      -C8      : 121.293605
 H49     -C9      -C10     : 121.262909  C11     -C10     -C9      : 120.458961
 H50     -C10     -C9      : 119.271939  H50     -C10     -C11     : 120.269097
 C10     -C11     -C6      : 124.857824  H51     -C11     -C6      : 122.983415
 H51     -C11     -C10     : 112.158723  C6      -C12     -C3      : 127.767778
 C13     -C12     -C3      : 114.179167  C13     -C12     -C6      : 118.053050
 C14     -C13     -C12     : 125.296897  H52     -C13     -C12     : 123.344249
 H52     -C13     -C14     : 111.358848  C15     -C14     -C13     : 119.253491
 H53     -C14     -C13     : 120.974078  H53     -C14     -C15     : 119.772406
 C40     -C15     -C14     : 117.425968  H54     -C15     -C14     : 121.118955
 H54     -C15     -C40     : 121.455055  C15     -C40     -C3      : 123.646561
 H31     -C40     -C3      : 120.808706  H31     -C40     -C15     : 115.544693
 H32     -C41     -C4      : 111.910845  H33     -C41     -C4      : 111.807544
 H33     -C41     -H32     : 106.538408  H34     -C41     -C4      : 111.522463
 H34     -C41     -H32     : 107.488352  H34     -C41     -H33     : 107.281718
 H35     -C42     -C4      : 113.673662  H36     -C42     -C4      : 112.148234
 H36     -C42     -H35     : 108.467982  H37     -C42     -C4      : 110.849242
 H37     -C42     -H35     : 105.303521  H37     -C42     -H36     : 105.890065
 H38     -C43     -C4      : 111.536748  H39     -C43     -C4      : 112.063982
 H39     -C43     -H38     : 106.941488  H40     -C43     -C4      : 111.909518
 H40     -C43     -H38     : 107.196505  H40     -C43     -H39     : 106.879073
 H41     -C44     -C5      : 111.350636  H42     -C44     -C5      : 112.020047
 H42     -C44     -H41     : 107.790504  H43     -C44     -C5      : 111.731603
 H43     -C44     -H41     : 107.239005  H43     -C44     -H42     : 106.428016
 H44     -C45     -C5      : 111.584181  H45     -C45     -C5      : 111.919355
 H45     -C45     -H44     : 107.076047  H46     -C45     -C5      : 111.595099
 H46     -C45     -H44     : 107.347393  H46     -C45     -H45     : 107.038637
 H71     -C46     -C5      : 112.642254  H72     -C46     -C5      : 111.970515
 H72     -C46     -H71     : 108.440249  H73     -C46     -C5      : 111.094202
 H73     -C46     -H71     : 106.325725  H73     -C46     -H72     : 105.991230
 
  torsional angles:
 
 P1      -Pd2     -N2      -C19     :  -2.337514
 P1      -Pd2     -N2      -H18     : -90.597555
 P1      -Pd2     -N2      -C25     :  86.014157
 P1      -Pd2     -C19     -N2      : 179.321254
 P1      -Pd2     -C19     -C18     : -77.619552
 P1      -Pd2     -C19     -C20     :  76.225373
 P1      -C3      -C12     -C6      :  -1.244791
 P1      -C3      -C12     -C13     : 178.729711
 P1      -C3      -C40     -C15     :-178.962339
 P1      -C3      -C40     -H31     :   0.961507
 P1      -C4      -C41     -H32     :  69.066294
 P1      -C4      -C41     -H33     :-171.500578
 P1      -C4      -C41     -H34     : -51.385074
 P1      -C4      -C42     -H35     : -63.625205
 P1      -C4      -C42     -H36     :  59.871656
 P1      -C4      -C42     -H37     : 177.992778
 P1      -C4      -C43     -H38     :  54.960151
 P1      -C4      -C43     -H39     : 174.826861
 P1      -C4      -C43     -H40     : -65.126497
 P1      -C5      -C44     -H41     : -50.476119
 P1      -C5      -C44     -H42     :  70.318293
 P1      -C5      -C44     -H43     :-170.366999
 P1      -C5      -C45     -H44     :  59.004770
 P1      -C5      -C45     -H45     : 178.976975
 P1      -C5      -C45     -H46     : -61.091110
 P1      -C5      -C46     -H71     : -60.037413
 P1      -C5      -C46     -H72     :  62.500013
 P1      -C5      -C46     -H73     :-179.204233
 Pd2     -P1      -C3      -C12     :  11.615731
 Pd2     -P1      -C3      -C40     :-169.774349
 Pd2     -P1      -C4      -C41     :  48.205157
 Pd2     -P1      -C4      -C42     : 173.039333
 Pd2     -P1      -C4      -C43     : -66.121688
 Pd2     -P1      -C5      -C44     :  62.890670
 Pd2     -P1      -C5      -C45     : -52.690285
 Pd2     -P1      -C5      -C46     :-171.030664
 Pd2     -N2      -C19     -C18     :-111.441526
 Pd2     -N2      -C19     -C20     : 111.338688
 Pd2     -N2      -C25     -C24     :  -2.118093
 Pd2     -N2      -C25     -C26     : 177.881907
 Pd2     -C19     -N2      -H18     : 121.977980
 Pd2     -C19     -N2      -C25     :-121.851250
 Pd2     -C19     -C18     -C17     : 152.938170
 Pd2     -C19     -C18     -H24     : -26.287739
 Pd2     -C19     -C20     -C21     :-152.915797
 Pd2     -C19     -C20     -H25     :  26.282939
 N2      -Pd2     -P1      -C3      : 162.292714
 N2      -Pd2     -P1      -C4      :  41.800370
 N2      -Pd2     -P1      -C5      : -81.269037
 N2      -Pd2     -C19     -C18     : 103.059193
 N2      -Pd2     -C19     -C20     :-103.095882
 N2      -C19     -C18     -C17     :-135.842043
 N2      -C19     -C18     -H24     :  44.932049
 N2      -C19     -C20     -C21     : 135.887109
 N2      -C19     -C20     -H25     : -44.914155
 N2      -C25     -C24     -C23     : 179.999999
 N2      -C25     -C24     -H28     :   0.000001
 N2      -C25     -C26     -C27     :-179.999999
 N2      -C25     -C26     -H29     :   0.000001
 C16     -C17     -C18     -C19     :   0.500634
 C16     -C17     -C18     -H24     : 179.735934
 C16     -C21     -C20     -C19     :  -0.593138
 C16     -C21     -C20     -H25     :-179.800338
 C17     -C16     -C21     -C20     :   0.094014
 C17     -C16     -C21     -H26     :-179.949620
 C17     -C18     -C19     -C20     :  -0.968159
 C18     -C17     -C16     -C21     :  -0.047584
 C18     -C17     -C16     -F10     :-179.818198
 C18     -C19     -N2      -H18     :  10.536454
 C18     -C19     -N2      -C25     : 126.707224
 C18     -C19     -C20     -C21     :   1.014029
 C18     -C19     -C20     -H25     :-179.787235
 C19     -Pd2     -P1      -C3      : 160.296069
 C19     -Pd2     -P1      -C4      :  39.803725
 C19     -Pd2     -P1      -C5      : -83.265682
 C19     -Pd2     -N2      -H18     : -88.260041
 C19     -Pd2     -N2      -C25     :  88.351671
 C19     -N2      -C25     -C24     :  65.205035
 C19     -N2      -C25     -C26     :-114.794965
 C19     -C18     -C17     -H23     :-179.436968
 C19     -C20     -C21     -H26     : 179.450282
 C20     -C19     -N2      -H18     :-126.683332
 C20     -C19     -N2      -C25     : -10.512562
 C20     -C19     -C18     -H24     : 179.805933
 C20     -C21     -C16     -F10     : 179.866853
 C21     -C16     -C17     -H23     : 179.889660
 F10     -C16     -C17     -H23     :   0.119046
 F10     -C16     -C21     -H26     :  -0.176781
 H23     -C17     -C18     -H24     :  -0.201667
 H25     -C20     -C21     -H26     :   0.243082
 H18     -N2      -C25     -C24     : 174.865144
 H18     -N2      -C25     -C26     :  -5.134856
 C22     -C23     -C24     -C25     :   0.000000
 C22     -C23     -C24     -H28     : 179.999999
 C22     -C27     -C26     -C25     :  -0.000001
 C22     -C27     -C26     -H29     : 179.999999
 C23     -C22     -C27     -C26     :   0.000000
 C23     -C22     -C27     -H30     : 180.000000
 C23     -C24     -C25     -C26     :   0.000000
 C24     -C23     -C22     -C27     :   0.000000
 C24     -C23     -C22     -H22     : 180.000000
 C24     -C25     -C26     -C27     :   0.000000
 C24     -C25     -C26     -H29     :-179.999999
 C25     -C24     -C23     -H27     : 180.000000
 C25     -C26     -C27     -H30     : 180.000000
 C26     -C25     -C24     -H28     :-179.999999
 C26     -C27     -C22     -H22     : 180.000000
 C27     -C22     -C23     -H27     : 180.000000
 H22     -C22     -C23     -H27     :   0.000000
 H22     -C22     -C27     -H30     :   0.000000
 H27     -C23     -C24     -H28     :  -0.000001
 H29     -C26     -C27     -H30     :  -0.000001
 C3      -P1      -C4      -C41     : -73.114883
 C3      -P1      -C4      -C42     :  51.719293
 C3      -P1      -C4      -C43     : 172.558273
 C3      -P1      -C5      -C44     :-177.595796
 C3      -P1      -C5      -C45     :  66.823249
 C3      -P1      -C5      -C46     : -51.517131
 C3      -C12     -C6      -C7      :-105.457153
 C3      -C12     -C6      -C11     :  74.547585
 C3      -C12     -C13     -C14     :  -0.059613
 C3      -C12     -C13     -H52     : 179.909160
 C3      -C40     -C15     -C14     :   0.107798
 C3      -C40     -C15     -H54     :-179.945215
 C4      -P1      -C3      -C12     : 132.225580
 C4      -P1      -C3      -C40     : -49.164500
 C4      -P1      -C5      -C44     : -58.917219
 C4      -P1      -C5      -C45     :-174.498174
 C4      -P1      -C5      -C46     :  67.161446
 C5      -P1      -C3      -C12     :-107.553020
 C5      -P1      -C3      -C40     :  71.056900
 C5      -P1      -C4      -C41     : 170.384944
 C5      -P1      -C4      -C42     : -64.780880
 C5      -P1      -C4      -C43     :  56.058099
 C6      -C7      -C8      -C9      :  -0.011981
 C6      -C7      -C8      -H48     : 179.970654
 C6      -C11     -C10     -C9      :   0.040255
 C6      -C11     -C10     -H50     :-179.980554
 C6      -C12     -C3      -C40     :-179.763430
 C6      -C12     -C13     -C14     : 179.917547
 C6      -C12     -C13     -H52     :  -0.113679
 C7      -C6      -C11     -C10     :  -0.074732
 C7      -C6      -C11     -H51     : 179.848321
 C7      -C6      -C12     -C13     :  74.569205
 C7      -C8      -C9      -C10     :  -0.029064
 C7      -C8      -C9      -H49     : 179.990200
 C8      -C7      -C6      -C11     :   0.060605
 C8      -C7      -C6      -C12     :-179.935221
 C8      -C9      -C10     -C11     :   0.015975
 C8      -C9      -C10     -H50     :-179.963423
 C9      -C8      -C7      -H47     :-179.943483
 C9      -C10     -C11     -H51     :-179.890053
 C10     -C9      -C8      -H48     : 179.988104
 C10     -C11     -C6      -C12     : 179.920963
 C11     -C6      -C7      -H47     : 179.984505
 C11     -C6      -C12     -C13     :-105.426058
 C11     -C10     -C9      -H49     : 179.996718
 C12     -C3      -C40     -C15     :  -0.249043
 C12     -C3      -C40     -H31     : 179.674803
 C12     -C6      -C7      -H47     :  -0.011321
 C12     -C6      -C11     -H51     :  -0.155984
 C12     -C13     -C14     -C15     :  -0.073105
 C12     -C13     -C14     -H53     : 179.984555
 C13     -C12     -C3      -C40     :   0.211072
 C13     -C14     -C15     -C40     :   0.051014
 C13     -C14     -C15     -H54     :-179.896162
 C14     -C15     -C40     -H31     :-179.819709
 C15     -C14     -C13     -H52     : 179.954905
 C40     -C15     -C14     -H53     : 179.994058
 C41     -C4      -C42     -H35     :  61.394213
 C41     -C4      -C42     -H36     :-175.108926
 C41     -C4      -C42     -H37     : -56.987804
 C41     -C4      -C43     -H38     : -60.909139
 C41     -C4      -C43     -H39     :  58.957571
 C41     -C4      -C43     -H40     : 179.004213
 C42     -C4      -C41     -H32     : -62.191818
 C42     -C4      -C41     -H33     :  57.241310
 C42     -C4      -C41     -H34     : 177.356814
 C42     -C4      -C43     -H38     :-176.206687
 C42     -C4      -C43     -H39     : -56.339978
 C42     -C4      -C43     -H40     :  63.706664
 C43     -C4      -C41     -H32     :-176.313205
 C43     -C4      -C41     -H33     : -56.880076
 C43     -C4      -C41     -H34     :  63.235427
 C43     -C4      -C42     -H35     : 175.399296
 C43     -C4      -C42     -H36     : -61.103843
 C43     -C4      -C42     -H37     :  57.017279
 C44     -C5      -C45     -H44     : -59.893717
 C44     -C5      -C45     -H45     :  60.078488
 C44     -C5      -C45     -H46     :-179.989597
 C44     -C5      -C46     -H71     :  67.458488
 C44     -C5      -C46     -H72     :-170.004085
 C44     -C5      -C46     -H73     : -51.708331
 C45     -C5      -C44     -H41     :  64.392944
 C45     -C5      -C44     -H42     :-174.812645
 C45     -C5      -C44     -H43     : -55.497936
 C45     -C5      -C46     -H71     :-177.791448
 C45     -C5      -C46     -H72     : -55.254022
 C45     -C5      -C46     -H73     :  63.041732
 C46     -C5      -C44     -H41     : 179.093085
 C46     -C5      -C44     -H42     : -60.112503
 C46     -C5      -C44     -H43     :  59.202205
 C46     -C5      -C45     -H44     :-176.007825
 C46     -C5      -C45     -H45     : -56.035620
 C46     -C5      -C45     -H46     :  63.896294
 H47     -C7      -C8      -H48     :   0.039152
 H48     -C8      -C9      -H49     :   0.007368
 H49     -C9      -C10     -H50     :   0.017320
 H50     -C10     -C11     -H51     :   0.089139
 H52     -C13     -C14     -H53     :   0.012565
 H53     -C14     -C15     -H54     :   0.046882
 H54     -C15     -C40     -H31     :   0.127278
 
  nuclear repulsion energy.......          4871.587572083 hartrees
  
  Detected an organometallic with only one TM atom. 
  
  
 
  Will use High-Quality Initial guess for organometallics
       including d-d repulsion (iguess=30)
 
 Non-default options chosen:
   SCF calculation type: DFT(b3pw91-d3)              
   DFT=Becke_3_Parameter/HF+Slater+Becke88+PW91+PW-GGAIIC (B3PW91-D3)
   Transition state optimization
   Geometry will be optimized in redundant internal coordinates
   Culot/Fletcher trust radius adjustment
      initial trust radius:  0.100
   P-RFO level-shifting used
   Solvation energy will be computed using PBF
     -solute cavity energy will not be included
     -surface area terms will not be included
   Vibrational frequencies and related properties will be computed
      from analytic second derivatives
   IR intensities will be computed
   Thermochemical properties will be computed
   Maximum number of geometry steps: 100
   Scaling standard convergence criteria by a factor of   5.00
   Mixed Murtagh-Sargent/Powell Hessian-updating used
   Solvent: benzene                                                         
   Internal dielectric constant:    1.000
   Continuum dielectric constant:   2.283
   Solvent probe molecule radius:   2.600
  
 Non-default print settings:
     11=  2
  
 Temporary integer options set:
     21= -1  73=  2
  
  atom       vdw   vdw2    cov     mass  grid  daf  charge   basis
  P1        2.147  2.074  1.060   30.974    Y    Y      Y    ps_6-31g*
  Pd2       1.450  1.450  1.280  105.903    Y    Y      Y    lacv3p*
  N2        1.831  1.600  0.750   14.003    Y    Y      Y    ps_6-31g*
  C16       1.949  1.900  0.770   12.000    Y    Y      Y    ps_6-31g*
  C17       1.949  1.900  0.770   12.000    Y    Y      Y    ps_6-31g*
  C18       1.949  1.900  0.770   12.000    Y    Y      Y    ps_6-31g*
  C19       1.949  1.900  0.770   12.000    Y    Y      Y    ps_6-31g*
  C20       1.949  1.900  0.770   12.000    Y    Y      Y    ps_6-31g*
  C21       1.949  1.900  0.770   12.000    Y    Y      Y    ps_6-31g*
  F10       1.736  1.682  0.720   18.998    Y    Y      Y    ps_6-31g*
  H23       1.597  1.150  0.320    1.008    Y    Y      Y    ps_6-31g*
  H24       1.597  1.150  0.320    1.008    Y    Y      Y    ps_6-31g*
  H25       1.597  1.150  0.320    1.008    Y    Y      Y    ps_6-31g*
  H26       1.597  1.150  0.320    1.008    Y    Y      Y    ps_6-31g*
  H18       1.597  1.150  0.320    1.008    Y    Y      Y    ps_6-31g*
  C22       1.949  1.900  0.770   12.000    Y    Y      Y    ps_6-31g*
  C23       1.949  1.900  0.770   12.000    Y    Y      Y    ps_6-31g*
  C24       1.949  1.900  0.770   12.000    Y    Y      Y    ps_6-31g*
  C25       1.949  1.900  0.770   12.000    Y    Y      Y    ps_6-31g*
  C26       1.949  1.900  0.770   12.000    Y    Y      Y    ps_6-31g*
  C27       1.949  1.900  0.770   12.000    Y    Y      Y    ps_6-31g*
  H22       1.597  1.150  0.320    1.008    Y    Y      Y    ps_6-31g*
  H27       1.597  1.150  0.320    1.008    Y    Y      Y    ps_6-31g*
  H28       1.597  1.150  0.320    1.008    Y    Y      Y    ps_6-31g*
  H29       1.597  1.150  0.320    1.008    Y    Y      Y    ps_6-31g*
  H30       1.597  1.150  0.320    1.008    Y    Y      Y    ps_6-31g*
  C3        1.949  1.900  0.770   12.000    Y    Y      Y    ps_6-31g*
  C4        1.949  1.900  0.770   12.000    Y    Y      Y    ps_6-31g*
  C5        1.949  1.900  0.770   12.000    Y    Y      Y    ps_6-31g*
  C6        1.949  1.900  0.770   12.000    Y    Y      Y    ps_6-31g*
  C7        1.949  1.900  0.770   12.000    Y    Y      Y    ps_6-31g*
  C8        1.949  1.900  0.770   12.000    Y    Y      Y    ps_6-31g*
  C9        1.949  1.900  0.770   12.000    Y    Y      Y    ps_6-31g*
  C10       1.949  1.900  0.770   12.000    Y    Y      Y    ps_6-31g*
  C11       1.949  1.900  0.770   12.000    Y    Y      Y    ps_6-31g*
  C12       1.949  1.900  0.770   12.000    Y    Y      Y    ps_6-31g*
  C13       1.949  1.900  0.770   12.000    Y    Y      Y    ps_6-31g*
  C14       1.949  1.900  0.770   12.000    Y    Y      Y    ps_6-31g*
  C15       1.949  1.900  0.770   12.000    Y    Y      Y    ps_6-31g*
  C40       1.949  1.900  0.770   12.000    Y    Y      Y    ps_6-31g*
  C41       1.949  1.900  0.770   12.000    Y    Y      Y    ps_6-31g*
  C42       1.949  1.900  0.770   12.000    Y    Y      Y    ps_6-31g*
  C43       1.949  1.900  0.770   12.000    Y    Y      Y    ps_6-31g*
  C44       1.949  1.900  0.770   12.000    Y    Y      Y    ps_6-31g*
  C45       1.949  1.900  0.770   12.000    Y    Y      Y    ps_6-31g*
  C46       1.949  1.900  0.770   12.000    Y    Y      Y    ps_6-31g*
  H47       1.597  1.150  0.320    1.008    Y    Y      Y    ps_6-31g*
  H48       1.597  1.150  0.320    1.008    Y    Y      Y    ps_6-31g*
  H49       1.597  1.150  0.320    1.008    Y    Y      Y    ps_6-31g*
  H50       1.597  1.150  0.320    1.008    Y    Y      Y    ps_6-31g*
  H51       1.597  1.150  0.320    1.008    Y    Y      Y    ps_6-31g*
  H52       1.597  1.150  0.320    1.008    Y    Y      Y    ps_6-31g*
  H53       1.597  1.150  0.320    1.008    Y    Y      Y    ps_6-31g*
  H54       1.597  1.150  0.320    1.008    Y    Y      Y    ps_6-31g*
  H31       1.597  1.150  0.320    1.008    Y    Y      Y    ps_6-31g*
  H32       1.597  1.150  0.320    1.008    Y    Y      Y    ps_6-31g*
  H33       1.597  1.150  0.320    1.008    Y    Y      Y    ps_6-31g*
  H34       1.597  1.150  0.320    1.008    Y    Y      Y    ps_6-31g*
  H35       1.597  1.150  0.320    1.008    Y    Y      Y    ps_6-31g*
  H36       1.597  1.150  0.320    1.008    Y    Y      Y    ps_6-31g*
  H37       1.597  1.150  0.320    1.008    Y    Y      Y    ps_6-31g*
  H38       1.597  1.150  0.320    1.008    Y    Y      Y    ps_6-31g*
  H39       1.597  1.150  0.320    1.008    Y    Y      Y    ps_6-31g*
  H40       1.597  1.150  0.320    1.008    Y    Y      Y    ps_6-31g*
  H41       1.597  1.150  0.320    1.008    Y    Y      Y    ps_6-31g*
  H42       1.597  1.150  0.320    1.008    Y    Y      Y    ps_6-31g*
  H43       1.597  1.150  0.320    1.008    Y    Y      Y    ps_6-31g*
  H44       1.597  1.150  0.320    1.008    Y    Y      Y    ps_6-31g*
  H45       1.597  1.150  0.320    1.008    Y    Y      Y    ps_6-31g*
  H46       1.597  1.150  0.320    1.008    Y    Y      Y    ps_6-31g*
  H71       1.597  1.150  0.320    1.008    Y    Y      Y    ps_6-31g*
  H72       1.597  1.150  0.320    1.008    Y    Y      Y    ps_6-31g*
  H73       1.597  1.150  0.320    1.008    Y    Y      Y    ps_6-31g*
 
  atom      formal  2spin      esp    mulk    frag
  P1           0       0        Y    0.000       0
  Pd2          0       0        Y    0.000       0
  N2           0       0        Y    0.000       0
  
  end of program pre
   
 Time(pre)  user:       1.087  user+sys:       1.087  wallclock:       1.394
  
  start of program onee
  
  smallest eigenvalue of S:    3.790E-04
  number of canonical orbitals.....          595
  end of program onee
   
 Time(onee)  user:       5.096  user+sys:       5.096  wallclock:       3.870
  
  start of program hfig
  
  initial wavefunction generated automatically from atomic wavefunctions
  Only one possible d-orb occupation 
  Skip d-d repulsion considerations 
 
  Irreducible     Total no   No of occupied orbitals 
  representation  orbitals   Shell_1  Shell_2    ...
  No Symm          595        139
  ------------------------
  Orbital occupation/shell    1.000
 
  end of program hfig
   
 Time(hfig)  user:       1.216  user+sys:       1.216  wallclock:       1.275
  
  start of program probe
  
  end of program probe
   
 Time(probe)  user:       0.686  user+sys:       0.686  wallclock:       0.590
  
  start of program grid
  
   grid     grid set  grid #  grid sym
  ------    --------  ------  --------
  coarse        0        0        1
  medium        2        1        1
  fine          0        0        1
  ultrafine     4        2        1
  charge       -1        3        1
  gradient      4        2        1
  density       0        0        1
  DFT-fine    -11        4        1
  DFT-med.    -10        5        1
  DFT-grad    -12        6        1
  DFT-der2     -8        7        1
  DFT-cphf     -9        8        1
  LMP2-enrg     4        2        1
  LMP2-grad     2        1        1
  DFT-cphf2   -15        9        1
  PBF-dens      0        0        1
  plotting      0        0        1
  Rel-grad    -17        0        1
  
  number of gridpoints: 
     atom           P1         Pd2          N2         C16         C17         C18         C19
  grid # 1         527         356         105          78          95          94          97
  grid # 2         369         297         381         327         325         318         351
  grid # 3           7         213          16          35          25          16          11
  grid # 4        8714        8714        8714        8714        8714        8714        8714
  grid # 5        1192        1192        1192        1192        1192        1192        1192
  grid # 6        9132        9132        5922        5922        5922        5922        5922
  grid # 7       23034       32968       13958       13950       13950       13950       13950
  grid # 8         722        1150         756         748         748         748         748
  grid # 9         366        2198         406         394         394         394         394
   
  number of gridpoints: 
     atom          C20         C21         F10         H23         H24         H25         H26
  grid # 1          94          93         584         117         108         101         115
  grid # 2         317         325         564         465         436         412         464
  grid # 3          15          25         362         387         211          82         383
  grid # 4        8714        8714        8714        8714        8714        8714        8714
  grid # 5        1192        1192        1192        1192        1192        1192        1192
  grid # 6        5922        5922        5922        5922        5922        5922        5922
  grid # 7       13950       13950       23190       15206       15206       15206       15206
  grid # 8         748         748         770         786         786         786         786
  grid # 9         394         394         420         420         420         420         420
   
  number of gridpoints: 
     atom          H18         C22         C23         C24         C25         C26         C27
  grid # 1         110          97          95          94          99          95          97
  grid # 2         447         324         324         314         355         324         324
  grid # 3         203          46          34          21          26          37          47
  grid # 4        8714        8714        8714        8714        8714        8714        8714
  grid # 5        1192        1192        1192        1192        1192        1192        1192
  grid # 6        5922        5922        5922        5922        5922        5922        5922
  grid # 7       15206       13950       13950       13950       13950       13950       13950
  grid # 8         786         748         748         748         748         748         748
  grid # 9         420         394         394         394         394         394         394
   
  number of gridpoints: 
     atom          H22         H27         H28         H29         H30          C3          C4
  grid # 1         118         118         103         115         118          91          87
  grid # 2         467         465         422         456         467         355         339
  grid # 3         422         400          96         337         422           7           6
  grid # 4        8714        8714        8714        8714        8714        8714        8714
  grid # 5        1192        1192        1192        1192        1192        1192        1192
  grid # 6        5922        5922        5922        5922        5922        5922        5922
  grid # 7       15206       15206       15206       15206       15206       13950       13950
  grid # 8         786         786         786         786         786         748         748
  grid # 9         420         420         420         420         420         394         394
   
  number of gridpoints: 
     atom           C5          C6          C7          C8          C9         C10         C11
  grid # 1          87          96          92          95          95          95          93
  grid # 2         344         349         326         324         323         325         325
  grid # 3           6          10          18          31          32          30          21
  grid # 4        8714        8714        8714        8714        8714        8714        8714
  grid # 5        1192        1192        1192        1192        1192        1192        1192
  grid # 6        5922        5922        5922        5922        5922        5922        5922
  grid # 7       13950       13950       13950       13950       13950       13950       13950
  grid # 8         748         748         748         748         748         748         748
  grid # 9         394         394         394         394         394         394         394
   
  number of gridpoints: 
     atom          C12         C13         C14         C15         C40         C41         C42
  grid # 1          97          93          97          95          89          78          81
  grid # 2         349         327         324         320         317         248         238
  grid # 3          13          29          43          25           8           6           6
  grid # 4        8714        8714        8714        8714        8714        8714        8714
  grid # 5        1192        1192        1192        1192        1192        1192        1192
  grid # 6        5922        5922        5922        5922        5922        5922        5922
  grid # 7       13950       13950       13950       13950       13950       13950       13950
  grid # 8         748         748         748         748         748         748         748
  grid # 9         394         394         394         394         394         394         394
   
  number of gridpoints: 
     atom          C43         C44         C45         C46         H47         H48         H49
  grid # 1          78          81          81          80         115         117         117
  grid # 2         248         242         241         242         459         464         465
  grid # 3           6           6           6           6         323         395         394
  grid # 4        8714        8714        8714        8714        8714        8714        8714
  grid # 5        1192        1192        1192        1192        1192        1192        1192
  grid # 6        5922        5922        5922        5922        5922        5922        5922
  grid # 7       13950       13950       13950       13950       15206       15206       15206
  grid # 8         748         748         748         748         786         786         786
  grid # 9         394         394         394         394         420         420         420
   
  number of gridpoints: 
     atom          H50         H51         H52         H53         H54         H31         H32
  grid # 1         117         104         116         118         118          92         104
  grid # 2         460         432         460         465         465         374         444
  grid # 3         353         177         363         420         395          39         243
  grid # 4        8714        8714        8714        8714        8714        8714        8714
  grid # 5        1192        1192        1192        1192        1192        1192        1192
  grid # 6        5922        5922        5922        5922        5922        5922        5922
  grid # 7       15206       15206       15206       15206       15206       15206       15206
  grid # 8         786         786         786         786         786         786         786
  grid # 9         420         420         420         420         420         420         420
   
  number of gridpoints: 
     atom          H33         H34         H35         H36         H37         H38         H39
  grid # 1         107          99          99         100         107          94         108
  grid # 2         442         420         409         405         443         406         444
  grid # 3         255          73         163         139         274          28         229
  grid # 4        8714        8714        8714        8714        8714        8714        8714
  grid # 5        1192        1192        1192        1192        1192        1192        1192
  grid # 6        5922        5922        5922        5922        5922        5922        5922
  grid # 7       15206       15206       15206       15206       15206       15206       15206
  grid # 8         786         786         786         786         786         786         786
  grid # 9         420         420         420         420         420         420         420
   
  number of gridpoints: 
     atom          H40         H41         H42         H43         H44         H45         H46
  grid # 1          83          97          84         107          98         108         100
  grid # 2         352         411         358         445         419         447         422
  grid # 3          83          46         124         270          58         270         125
  grid # 4        8714        8714        8714        8714        8714        8714        8714
  grid # 5        1192        1192        1192        1192        1192        1192        1192
  grid # 6        5922        5922        5922        5922        5922        5922        5922
  grid # 7       15206       15206       15206       15206       15206       15206       15206
  grid # 8         786         786         786         786         786         786         786
  grid # 9         420         420         420         420         420         420         420
   
  number of gridpoints: 
     atom          H71         H72         H73       total
  grid # 1          98         100         109        8420
  grid # 2         408         424         447       27736
  grid # 3         128         177         275       10013
  grid # 4        8714        8714        8714      636122
  grid # 5        1192        1192        1192       87016
  grid # 6        5922        5922        5922      438726
  grid # 7       15206       15206       15206     1102172
  grid # 8         786         786         786       56416
  grid # 9         420         420         420       31538
   
  end of program grid
   
 Time(grid)  user:     321.116  user+sys:     321.116  wallclock:     163.750
  
  start of program rwr
  
  end of program rwr
   
 Time(rwr)  user:      20.482  user+sys:      20.482  wallclock:      25.511
  
  start of program scf
  
 number of electrons..........        278
 number of alpha electrons....        139
 number of beta electrons.....        139
 number of orbitals, total....        595
 number of doubly-occ'd orbs..        139
 number of open shell orbs....          0
 number of occupied orbitals..        139
 number of virtual orbitals...        456
 number of hamiltonians.......          1
 number of shells.............          1
 SCF type: DFT=Becke_3_Parameter/HF+Slater+Becke88+PW91+PW-GGAIIC (B3PW91-D3)
 Energy computed using pseudospectral method.
 Convergence Criterion:
    Energy (econv):       1.00E-05
    RMS density (dconv):  5.00E-06
  
       i  u  d  i  g                   
       t  p  i  c  r                                 RMS    maximum
       e  d  i  u  i                       energy  density   DIIS  
       r  t  s  t  d       total energy    change  change    error 
  
etot    1  N  N  5  M   -1858.86031719050           2.2E-03  1.8E-01
etot    2  Y  Y  6  M   -1862.00334009354  3.1E+00  3.6E-03  1.1E-01
etot    3  Y  Y  6  M   -1862.92200181545  9.2E-01  1.4E-03  5.8E-02
etot    4  N  Y  2  U   -1863.23999216225  3.2E-01  1.1E-03  2.8E-02
etot    5  Y  Y  6  M   -1863.31879940519  7.9E-02  6.6E-04  1.5E-02
etot    6  N  Y  2  U   -1863.33015281906  1.1E-02  5.4E-04  7.3E-03
etot    7  Y  Y  6  M   -1863.33255089024  2.4E-03  1.5E-04  6.6E-03
etot    8  Y  Y  6  M   -1863.33737295475  4.8E-03  3.8E-05  1.4E-03
etot    9  N  Y  2  U   -1863.33952819357  2.2E-03  1.7E-05  1.4E-04
etot   10  N  Y  2  U   -1863.33953801066  9.8E-06  8.1E-06  8.5E-05
etot   11  N  Y  2  U   -1863.33954090033  2.9E-06  3.2E-06  5.5E-05
etot   12  N  N  2  U   -1863.33954132837  4.3E-07  0.0E+00  0.0E+00
 
  Computing the dispersion energy correction and its gradients...
  
  
 Energy components, in hartrees:
   (A)  Nuclear repulsion............    4871.58757208305
   (E)  Total one-electron terms.....  -12294.86957580663
   (F)    Electron-nuclear...........  -14070.91316285012
   (H)    Kinetic....................    1776.04358704349
   (I)  Total two-electron terms.....    5559.94246239521
   (J)    Coulomb....................    5800.97589487079
   (K)    Exchange+Correlation.......    -241.03343247558
   (L)  Electronic energy............   -6734.92711341142  (E+I)
   (N0) D3 correction................      -0.13631634661
   (N)  Total energy.................   -1863.47585767497  (A+L+N0)
   (O)  Gas phase energy.............   -1863.47585767497
  
 SCFE: SCF energy: DFT(b3pw91-d3)     -1863.47585767497 hartrees   iterations:  12
  
 
 HOMO energy:    -0.14071
 LUMO energy:    -0.04579
 
  Orbital energies (hartrees): 
   -76.98598   -24.66516   -14.33169   -10.21912   -10.20941   -10.20078
   -10.19707   -10.19454   -10.19196   -10.18786   -10.18732   -10.18331
   -10.18283   -10.18241   -10.17740   -10.17647   -10.17601   -10.17107
   -10.16981   -10.16965   -10.16882   -10.16618   -10.16429   -10.16355
   -10.16344   -10.16037   -10.16030   -10.15870   -10.15699   -10.15322
   -10.15254   -10.15226   -10.14816   -10.14077   -10.13272    -6.52358
    -4.67976    -4.67947    -4.67509    -3.29063    -2.02657    -2.01419
    -1.99863    -1.20192    -0.92607    -0.88847    -0.87545    -0.85476
    -0.83512    -0.82648    -0.81421    -0.79739    -0.78809    -0.74729
    -0.74573    -0.73864    -0.73172    -0.72942    -0.72178    -0.72068
    -0.70146    -0.69525    -0.68732    -0.66354    -0.64220    -0.62134
    -0.60913    -0.60316    -0.59536    -0.58953    -0.58613    -0.58466
    -0.57396    -0.55964    -0.52318    -0.52206    -0.51533    -0.50994
    -0.50357    -0.49602    -0.48029    -0.47645    -0.47529    -0.47045
    -0.46440    -0.46184    -0.45883    -0.45514    -0.44518    -0.44453
    -0.43843    -0.43747    -0.43651    -0.42372    -0.41873    -0.41587
    -0.41257    -0.40820    -0.40795    -0.40420    -0.40056    -0.39500
    -0.39303    -0.38589    -0.38343    -0.38004    -0.37678    -0.37224
    -0.37157    -0.36434    -0.36214    -0.35561    -0.35198    -0.34911
    -0.34357    -0.34133    -0.33859    -0.33549    -0.33103    -0.32360
    -0.32312    -0.31508    -0.31069    -0.30263    -0.27712    -0.27478
    -0.26260    -0.25853    -0.25525    -0.25054    -0.24260    -0.23951
    -0.23315    -0.22837    -0.22162    -0.21317    -0.20553    -0.19249
    -0.14071    -0.04579    -0.02698    -0.01305    -0.00730     0.00141
     0.00553     0.01382     0.02387     0.03368     0.05445
 
  end of program scf
   
 Time(scf)  user:     536.222  user+sys:     536.222  wallclock:     289.482
  
  start of program der1a
  
  end of program der1a
   
 Time(der1a)  user:      15.528  user+sys:      15.528  wallclock:       8.598
  
  start of program rwr
  
  end of program rwr
   
 Time(rwr)  user:      21.995  user+sys:      21.995  wallclock:      27.667
  
  start of program der1b
  
   
  forces (hartrees/bohr) : total     
   
 atom  label           x              y              z
 ---- --------   -------------  -------------  -------------
    1 P1          5.352472E-03   1.139436E-02   3.092917E-01
    2 Pd2         1.211236E-02  -9.372944E-04   1.076280E-02
    3 N2         -2.088861E-02   1.182317E-02   4.988443E-02
    4 C16         3.311016E-02  -1.534468E-02   1.079496E-03
    5 C17        -3.932707E-03   9.716235E-03   9.752638E-06
    6 C18        -1.282524E-02   6.457884E-03   3.587748E-03
    7 C19         1.104609E-02  -2.265016E-03   1.365521E-02
    8 C20        -2.113580E-02   7.171396E-03  -9.592336E-03
    9 C21        -8.172051E-03  -7.565956E-04  -1.682320E-03
   10 F10        -1.010649E-02   5.106454E-03  -4.195587E-04
   11 H23        -1.351141E-03  -1.591299E-03  -1.739348E-04
   12 H24        -8.459497E-04   3.115509E-04   1.793680E-03
   13 H25        -1.122750E-02   1.219665E-02  -3.872445E-03
   14 H26         2.315087E-04   2.143171E-03  -5.890752E-04
   15 H18        -6.705249E-03  -4.736780E-02  -2.938975E-02
   16 C22        -2.441672E-03  -3.372800E-03   2.084151E-03
   17 C23         2.347158E-03   3.264442E-03   1.334888E-03
   18 C24         5.186670E-03  -1.857739E-02   7.641155E-03
   19 C25         3.113945E-02   2.709743E-02  -3.000553E-03
   20 C26        -4.280558E-03  -4.298909E-03   5.400312E-03
   21 C27         1.383553E-03   1.202904E-03  -2.305115E-03
   22 H22         4.745117E-03   7.721296E-03  -5.574328E-03
   23 H27         2.828082E-03   9.491510E-03   4.084763E-03
   24 H28         6.590451E-03  -1.489601E-03   1.403577E-02
   25 H29        -2.437514E-03  -8.272231E-03  -5.309918E-03
   26 H30         2.374984E-03  -1.032247E-03  -1.036725E-02
   27 C3          2.686888E-01   7.681502E-03  -9.573182E-02
   28 C4         -1.522925E-01   2.513983E-01  -9.540177E-02
   29 C5         -1.289839E-01  -2.646142E-01  -1.003255E-01
   30 C6         -5.532709E-03  -1.986797E-03   6.378976E-02
   31 C7          1.021436E-02   1.771296E-02   6.142396E-03
   32 C8         -4.874208E-04  -4.396059E-03   4.040516E-04
   33 C9         -1.004645E-03  -1.123494E-03   1.993653E-04
   34 C10         4.844597E-03   3.032828E-03   4.784587E-03
   35 C11        -5.928155E-03  -1.947318E-02   4.283743E-03
   36 C12         2.015349E-02   9.927001E-03  -6.539664E-02
   37 C13         1.675658E-02  -4.328619E-04  -1.772136E-03
   38 C14        -4.776107E-03   2.027353E-03  -2.369986E-03
   39 C15         2.203418E-03   1.103345E-03   1.831174E-03
   40 C40         3.806281E-02  -1.176623E-02  -2.567675E-02
   41 C41         6.965141E-03   2.605005E-02   2.766753E-03
   42 C42        -2.546122E-02   4.775812E-02  -1.852159E-02
   43 C43        -2.907353E-02   6.055787E-02   1.771890E-04
   44 C44        -1.898034E-02  -7.332742E-02   2.286477E-03
   45 C45         1.736882E-03  -2.957370E-02   1.573183E-03
   46 C46        -8.300573E-03  -2.849338E-02  -2.131048E-02
   47 H47        -4.962285E-03  -7.111980E-03  -1.127761E-02
   48 H48        -3.663090E-03  -5.978291E-03  -9.358041E-03
   49 H49        -1.518921E-03   1.737900E-03  -1.071627E-02
   50 H50         1.357405E-03   9.434262E-03  -7.459542E-03
   51 H51         5.972184E-03   7.777603E-03  -5.741848E-03
   52 H52        -9.850817E-03  -1.465682E-03   1.151508E-02
   53 H53        -7.860533E-03  -8.720496E-04   8.391067E-03
   54 H54        -1.518641E-03  -2.119758E-03   1.022673E-02
   55 H31         3.669580E-02  -2.729928E-02   1.296557E-02
   56 H32        -7.525421E-03  -4.121565E-03   1.856420E-03
   57 H33         3.347206E-03  -1.050860E-02  -1.112661E-03
   58 H34         9.677208E-04  -4.386760E-04  -1.574283E-02
   59 H35        -2.646807E-02   2.207351E-02   8.123185E-03
   60 H36         2.333971E-03   2.008790E-02   5.614490E-03
   61 H37         2.751578E-04  -8.132760E-03   7.022163E-03
   62 H38        -7.357524E-04   2.760062E-03  -2.328508E-02
   63 H39         1.271689E-02  -7.991856E-04   3.938969E-03
   64 H40         1.251257E-02   1.309628E-01   8.021072E-03
   65 H41        -6.148371E-04  -6.068280E-05  -1.668688E-02
   66 H42         3.100919E-03  -1.228912E-01   2.892410E-03
   67 H43         1.169827E-02   1.126725E-03   3.456568E-03
   68 H44        -2.576915E-03   1.613880E-03  -1.313167E-02
   69 H45         1.467257E-03   1.038263E-02  -1.161307E-03
   70 H46        -1.435679E-02  -1.166455E-03  -1.697908E-04
   71 H71         4.585183E-03  -2.205878E-02   6.475065E-03
   72 H72        -1.519748E-02  -2.980386E-03   3.349554E-03
   73 H73         2.556640E-03   7.880388E-03   6.525791E-03
 -------------   -------------  -------------  -------------
     total        3.640241E-03  -3.130542E-04  -1.368170E-03
   
  end of program der1b
   
 Time(der1b)  user:     179.983  user+sys:     179.983  wallclock:      96.159
  
  start of program geopt
  
 ----------------------------------------------------------------------------
  Geometry optimization step  1
  Total energy:     -1863.47585767497 hartrees
 ----------------------------------------------------------------------------
  
  Hessian eigenvalues: 
    0.00000E+00    0.00000E+00    0.00000E+00    0.00000E+00    0.00000E+00
    0.00000E+00    0.00000E+00    0.00000E+00    0.00000E+00    0.00000E+00
    0.00000E+00    0.00000E+00    0.00000E+00    0.00000E+00    0.00000E+00
    0.00000E+00    0.00000E+00    0.00000E+00    0.00000E+00    0.00000E+00
    0.00000E+00    0.00000E+00    0.00000E+00    0.00000E+00    0.00000E+00
    0.00000E+00    0.00000E+00    0.00000E+00    0.00000E+00    0.00000E+00
    0.00000E+00    0.00000E+00    0.00000E+00    0.00000E+00    0.00000E+00
    0.00000E+00    0.00000E+00    0.00000E+00    0.00000E+00    0.00000E+00
    0.00000E+00    0.00000E+00    1.77163E-02    1.98072E-02    2.08845E-02
    2.12790E-02    2.39328E-02    2.59416E-02    2.84834E-02    2.96809E-02
    3.01105E-02    3.11116E-02    3.19160E-02    3.22158E-02    3.49350E-02
    3.59782E-02    3.69453E-02    3.74716E-02    3.81955E-02    4.04293E-02
    4.33254E-02    4.63044E-02    4.66433E-02    4.99697E-02    5.36743E-02
    6.19984E-02    7.17544E-02    7.24586E-02    7.42233E-02    7.45238E-02
    7.52185E-02    7.93437E-02    9.49778E-02    1.01206E-01    1.05287E-01
    1.10354E-01    1.16816E-01    1.26805E-01    1.27949E-01    1.28837E-01
    1.29254E-01    1.31074E-01    1.32768E-01    1.35095E-01    1.36086E-01
    1.46484E-01    1.47555E-01    1.50701E-01    1.52825E-01    1.56361E-01
    1.57863E-01    1.61982E-01    1.65838E-01    1.67329E-01    1.70492E-01
    1.74265E-01    1.77828E-01    1.82984E-01    1.97827E-01    1.98780E-01
    1.99272E-01    2.00268E-01    2.00689E-01    2.03121E-01    2.06446E-01
    2.10561E-01    2.14085E-01    2.16569E-01    2.19706E-01    2.22166E-01
    2.22724E-01    2.25557E-01    2.32101E-01    2.32901E-01    2.33082E-01
    2.33614E-01    2.34535E-01    2.35776E-01    2.38392E-01    2.40366E-01
    2.40485E-01    2.41011E-01    2.41857E-01    2.42822E-01    2.43840E-01
    2.45955E-01    2.50519E-01    2.65686E-01    2.68805E-01    2.79076E-01
    2.81046E-01    2.84032E-01    2.86164E-01    2.90799E-01    2.94528E-01
    2.96511E-01    2.97635E-01    3.06843E-01    3.12681E-01    3.13450E-01
    3.15160E-01    3.15225E-01    3.15259E-01    3.15350E-01    3.15370E-01
    3.15396E-01    3.15426E-01    3.15492E-01    3.15506E-01    3.15583E-01
    3.16419E-01    3.17026E-01    3.17233E-01    3.18270E-01    3.19200E-01
    3.19625E-01    3.20580E-01    3.20915E-01    3.22141E-01    3.23744E-01
    3.25905E-01    3.25979E-01    3.25982E-01    3.26243E-01    3.26296E-01
    3.26321E-01    3.26325E-01    3.26402E-01    3.26440E-01    3.26733E-01
    3.29132E-01    3.29982E-01    3.33644E-01    3.34406E-01    3.35985E-01
    3.38491E-01    3.40455E-01    3.40724E-01    3.40874E-01    3.42162E-01
    3.42559E-01    3.44088E-01    3.44853E-01    3.46143E-01    3.48508E-01
    3.48770E-01    3.49563E-01    3.50307E-01    3.51411E-01    3.51979E-01
    3.53222E-01    3.56079E-01    3.56950E-01    3.59078E-01    3.59182E-01
    3.59997E-01    3.60173E-01    3.61454E-01    3.62163E-01    3.62388E-01
    3.63214E-01    3.64691E-01    3.64954E-01    3.68018E-01    3.68091E-01
    3.69949E-01    3.72081E-01    3.74119E-01    3.74948E-01    3.80739E-01
    3.81588E-01    3.83008E-01    3.84074E-01    3.85587E-01    3.91040E-01
    3.98760E-01    4.03111E-01    4.04831E-01    4.05947E-01    4.06767E-01
    4.10478E-01    4.14008E-01    4.27054E-01    4.28586E-01    4.39761E-01
    4.40843E-01    4.48962E-01    4.56466E-01    4.62341E-01    4.66912E-01
    4.74109E-01    4.75831E-01    4.92225E-01    5.00438E-01    5.29221E-01
    5.30158E-01    5.32316E-01    5.32926E-01    5.34415E-01    5.35693E-01
    5.59704E-01    5.80272E-01    6.26444E-01    6.55915E-01    6.60378E-01
    6.76170E-01    6.85010E-01    7.10286E-01    7.55223E-01    8.41582E-01
    9.80427E-01    1.14780E+00    1.35037E+00    3.57633E+00    1.67175E+01
  
 WARNING: Hessian has wrong number of negative eigenvalues:           0
  
  TS search will follow eigenvector  43 on this iteration
  
  Selected vector:  eigenvalue     1.77163E-02

 43)  P1-Pd2-N2-H18(  4) -0.51396
       N2-Pd2-P1-C3( 38)  0.49878
       N2-Pd2-P1-C4( 39)  0.49506
      P1-Pd2-N2-C19(  3) -0.46208
  
  
  Level shifts adjusted to satisfy step-size constraints
   Step size:    0.1005142
   Cos(theta):   0.9133347
   Final level shift:  -9.9076226E+00
  
  gradient maximum:        8.5994E-01 .  (  2.2500E-03 )
  gradient rms:            1.1098E-01 .  (  1.5000E-03 )
  displacement maximum:    4.4799E-02 .  (  9.0000E-03 )
  displacement rms:        6.2944E-03 .  (  6.0000E-03 )
  
  predicted energy change:  -1.3140E-01
  step size:     0.10051
  trust radius:  0.10000
  
  molecular structure not yet converged...
  
  center of mass moved by:
     x:     4.0378E-03     y:     3.8807E-04     z:    -1.4805E-02
  
  new geometry: 
                                   angstroms
  atom               x                 y                 z
  P1           -0.0138101232     -0.0009690060     -0.0312211701 
  Pd2           0.0016213188     -0.0033978544      2.2476967250 
  N2           -0.4969322288      0.1604484916      4.2187267230 
  C16          -4.4442096144      1.6303842554      3.0083185627 
  C17          -3.3487227997      2.4975447053      3.0312857203 
  C18          -2.0371099485      2.0217848794      3.0520303102 
  C19          -1.7759508280      0.6416794287      3.0399954190 
  C20          -2.8751160911     -0.2369980173      3.0277650515 
  C21          -4.1778270770      0.2555524741      3.0060908760 
  F10          -5.6982367255      2.0834758429      2.9848430709 
  H23          -3.5185950983      3.5743812049      3.0318420467 
  H24          -1.2168476030      2.7342056491      3.0654387026 
  H25          -2.7183027586     -1.3115066449      3.0206666668 
  H26          -5.0087167384     -0.4502940871      2.9874920154 
  H18          -0.3591228682      1.0704999287      4.8157535608 
  C22          -2.3792449067     -2.9227049186      6.4775400696 
  C23          -2.1120806244     -3.1145027857      5.1127033167 
  C24          -1.4915698434     -2.0983688674      4.3688151411 
  C25          -1.1368467582     -0.8891478401      4.9890655028 
  C26          -1.4032264518     -0.6982756777      6.3546214408 
  C27          -2.0243724171     -1.7144400455      7.0983641188 
  H22          -2.8667409685     -3.7211787838      7.0615513250 
  H27          -2.3905266435     -4.0633391068      4.6242215363 
  H28          -1.2803619566     -2.2499706564      3.2971013458 
  H29          -1.1258613956      0.2508178410      6.8429769394 
  H30          -2.2338521640     -1.5628529820      8.1704969441 
  C3            1.4132864166     -0.0059431235     -0.5488479828 
  C4           -0.7446043558      1.2523028056     -0.4969792364 
  C5           -0.6300535173     -1.3003378632     -0.5324622620 
  C6            2.6792672529     -0.4832866790      1.6444620213 
  C7            3.1398896797      0.4979818221      2.5604936382 
  C8            3.2491515568      0.3038184086      3.9473611374 
  C9            2.8964690697     -0.9190596721      4.5237738597 
  C10           2.4331374517     -1.9232191968      3.6702112455 
  C11           2.3354120781     -1.6949672285      2.2880554981 
  C12           2.5927302716     -0.2376816894      0.2283324390 
  C13           3.8029830209     -0.2171318265     -0.5109551722 
  C14           3.9014633287      0.0050280487     -1.8899447623 
  C15           2.7403794489      0.2254193931     -2.6263862491 
  C40           1.5260229339      0.2130473560     -1.9365718456 
  C41          -0.1811709346      2.4707340313      0.2686196902 
  C42          -0.7922203343      1.6368920208     -1.9933861707 
  C43          -2.2237625937      1.1392949973     -0.0582962394 
  C44          -2.1022642050     -1.4723957368     -0.1035928777 
  C45           0.1507561959     -2.4395016618      0.1637766513 
  C46          -0.5502574953     -1.5963316864     -2.0456377738 
  H47           3.4545567036      1.5033909801      2.2569864488 
  H48           3.6172217222      1.1173329737      4.5951637057 
  H49           2.9776250215     -1.0844094192      5.6107253108 
  H50           2.1453370456     -2.9007820225      4.0926183925 
  H51           1.9602523717     -2.5638801866      1.7504068932 
  H52           4.7866359506     -0.3765847157     -0.0554066016 
  H53           4.8820098121      0.0063154276     -2.3955428164 
  H54           2.7800598121      0.4020198508     -3.7141748289 
  H31           0.6375330730      0.3823841328     -2.5505381759 
  H32           0.8626276918      2.7045641922     -0.0349967405 
  H33          -0.7803948360      3.3900191717      0.0796952788 
  H34          -0.1789066868      2.2962214883      1.3683014290 
  H35           0.2014693273      1.8688143404     -2.4259856157 
  H36          -1.2705701214      0.8508094129     -2.6135997308 
  H37          -1.4017913951      2.5561213765     -2.1457363374 
  H38          -2.3133815294      0.9598356594      1.0366769758 
  H39          -2.7968452178      2.0674980735     -0.2826842018 
  H40          -2.7462426745      0.3043722484     -0.5726976282 
  H41          -2.2286767282     -1.3047794052      0.9896755516 
  H42          -2.7760046907     -0.7689035927     -0.6350574085 
  H43          -2.4774075285     -2.4971612088     -0.3257035717 
  H44           0.0802919324     -2.3650928104      1.2726420608 
  H45          -0.2365152411     -3.4434233002     -0.1230821193 
  H46           1.2313208098     -2.4182294092     -0.1034968085 
  H71          -1.0550579359     -0.8237201277     -2.6601991763 
  H72           0.5002370261     -1.6928063951     -2.3960461234 
  H73          -1.0451226267     -2.5631536336     -2.2904635825 
   
 
  bond lengths (angstroms):
 
 P1      -Pd2     :   2.278971      P1      -C3      :   1.518080
 P1      -C4      :   1.523706      P1      -C5      :   1.522944
 Pd2     -N2      :   2.039696      Pd2     -C19     :   2.050274
 N2      -C19     :   1.804683      N2      -H18     :   1.097099
 N2      -C25     :   1.450712      C16     -C17     :   1.397350
 C16     -C21     :   1.400402      C16     -F10     :   1.333577
 C17     -C18     :   1.395387      C17     -H23     :   1.090153
 C18     -C19     :   1.404649      C18     -H24     :   1.086533
 C19     -C20     :   1.407263      C20     -C21     :   1.392886
 C20     -H25     :   1.085914      C21     -H26     :   1.090387
 C22     -C23     :   1.403903      C22     -C27     :   1.404016
 C22     -H22     :   1.102852      C23     -C24     :   1.403899
 C23     -H27     :   1.102922      C24     -C25     :   1.404548
 C24     -H28     :   1.102798      C25     -C26     :   1.404327
 C26     -C27     :   1.404124      C26     -H29     :   1.102815
 C27     -H30     :   1.102873      C3      -C12     :   1.431363
 C3      -C40     :   1.409413      C4      -C41     :   1.545372
 C4      -C42     :   1.545772      C4      -C43     :   1.546972
 C5      -C44     :   1.543029      C5      -C45     :   1.546644
 C5      -C46     :   1.543917      C6      -C7      :   1.419216
 C6      -C11     :   1.414432      C6      -C12     :   1.439873
 C7      -C8      :   1.404649      C7      -H47     :   1.096348
 C8      -C9      :   1.397164      C8      -H48     :   1.103145
 C9      -C10     :   1.396990      C9      -H49     :   1.102447
 C10     -C11     :   1.404280      C10     -H50     :   1.103126
 C11     -H51     :   1.088495      C12     -C13     :   1.418337
 C13     -C14     :   1.400238      C13     -H52     :   1.095684
 C14     -C15     :   1.392492      C14     -H53     :   1.103224
 C15     -C40     :   1.396660      C15     -H54     :   1.102745
 C40     -H31     :   1.093181      C41     -H32     :   1.111924
 C41     -H33     :   1.113484      C41     -H34     :   1.113445
 C42     -H35     :   1.108309      C42     -H36     :   1.109689
 C42     -H37     :   1.113450      C43     -H38     :   1.113195
 C43     -H39     :   1.113703      C43     -H40     :   1.111166
 C44     -H41     :   1.113244      C44     -H42     :   1.109631
 C44     -H43     :   1.113647      C45     -H44     :   1.113591
 C45     -H45     :   1.113609      C45     -H46     :   1.113332
 C46     -H71     :   1.108800      C46     -H72     :   1.111590
 C46     -H73     :   1.113362
 
  bond angles:
 
 C3      -P1      -Pd2     : 109.548080  C4      -P1      -Pd2     : 108.046663
 C4      -P1      -C3      : 110.446894  C5      -P1      -Pd2     : 109.326405
 C5      -P1      -C3      : 105.388874  C5      -P1      -C4      : 114.022110
 N2      -Pd2     -P1      : 164.703105  C19     -Pd2     -P1      : 112.347339
 C19     -Pd2     -N2      :  52.366020  C19     -N2      -Pd2     :  64.118369
 H18     -N2      -Pd2     : 124.180184  H18     -N2      -C19     : 102.901001
 C25     -N2      -Pd2     : 124.251728  C25     -N2      -C19     : 103.128495
 C25     -N2      -H18     : 111.505647  C21     -C16     -C17     : 117.396357
 F10     -C16     -C17     : 121.779681  F10     -C16     -C21     : 120.823599
 C18     -C17     -C16     : 121.706324  H23     -C17     -C16     : 119.395853
 H23     -C17     -C18     : 118.897778  C19     -C18     -C17     : 120.639139
 H24     -C18     -C17     : 119.093683  H24     -C18     -C19     : 120.263018
 N2      -C19     -Pd2     :  63.515611  C18     -C19     -Pd2     : 118.270733
 C18     -C19     -N2      : 112.840698  C20     -C19     -Pd2     : 118.513710
 C20     -C19     -N2      : 113.124985  C20     -C19     -C18     : 117.926107
 C21     -C20     -C19     : 120.653192  H25     -C20     -C19     : 120.337674
 H25     -C20     -C21     : 119.003346  C20     -C21     -C16     : 121.670993
 H26     -C21     -C16     : 119.379629  H26     -C21     -C20     : 118.949370
 C27     -C22     -C23     : 119.956576  H22     -C22     -C23     : 120.001185
 H22     -C22     -C27     : 120.042217  C24     -C23     -C22     : 120.023616
 H27     -C23     -C22     : 120.004029  H27     -C23     -C24     : 119.972331
 C25     -C24     -C23     : 120.051070  H28     -C24     -C23     : 120.005825
 H28     -C24     -C25     : 119.942983  C24     -C25     -N2      : 119.986573
 C26     -C25     -N2      : 120.111305  C26     -C25     -C24     : 119.902114
 C27     -C26     -C25     : 120.040294  H29     -C26     -C25     : 119.991098
 H29     -C26     -C27     : 119.968542  C26     -C27     -C22     : 120.026293
 H30     -C27     -C22     : 120.008493  H30     -C27     -C26     : 119.965207
 C12     -C3      -P1      : 126.157618  C40     -C3      -P1      : 114.230770
 C40     -C3      -C12     : 119.594285  C41     -C4      -P1      : 108.796172
 C42     -C4      -P1      : 121.019462  C42     -C4      -C41     : 107.137129
 C43     -C4      -P1      : 108.169203  C43     -C4      -C41     : 105.409778
 C43     -C4      -C42     : 105.262438  C44     -C5      -P1      : 112.937578
 C45     -C5      -P1      : 106.020022  C45     -C5      -C44     : 105.927733
 C46     -C5      -P1      : 117.725172  C46     -C5      -C44     : 107.478043
 C46     -C5      -C45     : 105.896417  C11     -C6      -C7      : 112.179881
 C12     -C6      -C7      : 122.437160  C12     -C6      -C11     : 125.382224
 C8      -C7      -C6      : 124.537855  H47     -C7      -C6      : 123.266606
 H47     -C7      -C8      : 112.195493  C9      -C8      -C7      : 120.576426
 H48     -C8      -C7      : 120.252723  H48     -C8      -C9      : 119.170767
 C10     -C9      -C8      : 117.437701  H49     -C9      -C8      : 121.295547
 H49     -C9      -C10     : 121.266483  C11     -C10     -C9      : 120.505518
 H50     -C10     -C9      : 119.311066  H50     -C10     -C11     : 120.183340
 C10     -C11     -C6      : 124.762286  H51     -C11     -C6      : 122.879878
 H51     -C11     -C10     : 112.357835  C6      -C12     -C3      : 127.672758
 C13     -C12     -C3      : 114.692796  C13     -C12     -C6      : 117.634445
 C14     -C13     -C12     : 125.144289  H52     -C13     -C12     : 123.176673
 H52     -C13     -C14     : 111.679033  C15     -C14     -C13     : 119.163814
 H53     -C14     -C13     : 120.932817  H53     -C14     -C15     : 119.903342
 C40     -C15     -C14     : 117.540162  H54     -C15     -C14     : 121.133642
 H54     -C15     -C40     : 121.326168  C15     -C40     -C3      : 123.864206
 H31     -C40     -C3      : 120.800321  H31     -C40     -C15     : 115.334664
 H32     -C41     -C4      : 111.887433  H33     -C41     -C4      : 111.756707
 H33     -C41     -H32     : 106.572882  H34     -C41     -C4      : 111.497342
 H34     -C41     -H32     : 107.501486  H34     -C41     -H33     : 107.341339
 H35     -C42     -C4      : 113.722283  H36     -C42     -C4      : 112.215519
 H36     -C42     -H35     : 108.455359  H37     -C42     -C4      : 110.776516
 H37     -C42     -H35     : 105.347969  H37     -C42     -H36     : 105.804224
 H38     -C43     -C4      : 111.573036  H39     -C43     -C4      : 111.962449
 H39     -C43     -H38     : 106.924679  H40     -C43     -C4      : 111.913638
 H40     -C43     -H38     : 107.239882  H40     -C43     -H39     : 106.918461
 H41     -C44     -C5      : 111.377158  H42     -C44     -C5      : 112.054830
 H42     -C44     -H41     : 107.815833  H43     -C44     -C5      : 111.627658
 H43     -C44     -H41     : 107.227291  H43     -C44     -H42     : 106.459033
 H44     -C45     -C5      : 111.536361  H45     -C45     -C5      : 111.867936
 H45     -C45     -H44     : 107.141515  H46     -C45     -C5      : 111.582566
 H46     -C45     -H44     : 107.408674  H46     -C45     -H45     : 107.032402
 H71     -C46     -C5      : 112.712304  H72     -C46     -C5      : 111.989548
 H72     -C46     -H71     : 108.421208  H73     -C46     -C5      : 111.040592
 H73     -C46     -H71     : 106.310984  H73     -C46     -H72     : 105.983663
 
  torsional angles:
 
 P1      -Pd2     -N2      -C19     :  -2.280937
 P1      -Pd2     -N2      -H18     : -90.589841
 P1      -Pd2     -N2      -C25     :  86.289953
 P1      -Pd2     -C19     -N2      : 179.349535
 P1      -Pd2     -C19     -C18     : -77.678659
 P1      -Pd2     -C19     -C20     :  76.130206
 P1      -C3      -C12     -C6      :  -1.386829
 P1      -C3      -C12     -C13     : 178.606919
 P1      -C3      -C40     -C15     :-178.831291
 P1      -C3      -C40     -H31     :   0.825845
 P1      -C4      -C41     -H32     :  69.062484
 P1      -C4      -C41     -H33     :-171.511327
 P1      -C4      -C41     -H34     : -51.371952
 P1      -C4      -C42     -H35     : -63.840134
 P1      -C4      -C42     -H36     :  59.731326
 P1      -C4      -C42     -H37     : 177.739600
 P1      -C4      -C43     -H38     :  54.801130
 P1      -C4      -C43     -H39     : 174.601699
 P1      -C4      -C43     -H40     : -65.369074
 P1      -C5      -C44     -H41     : -50.299661
 P1      -C5      -C44     -H42     :  70.570231
 P1      -C5      -C44     -H43     :-170.123144
 P1      -C5      -C45     -H44     :  59.002469
 P1      -C5      -C45     -H45     : 178.989920
 P1      -C5      -C45     -H46     : -61.130156
 P1      -C5      -C46     -H71     : -60.063175
 P1      -C5      -C46     -H72     :  62.515778
 P1      -C5      -C46     -H73     :-179.221236
 Pd2     -P1      -C3      -C12     :  11.296077
 Pd2     -P1      -C3      -C40     :-170.235246
 Pd2     -P1      -C4      -C41     :  48.464044
 Pd2     -P1      -C4      -C42     : 173.065267
 Pd2     -P1      -C4      -C43     : -65.559940
 Pd2     -P1      -C5      -C44     :  62.552260
 Pd2     -P1      -C5      -C45     : -53.012690
 Pd2     -P1      -C5      -C46     :-171.230871
 Pd2     -N2      -C19     -C18     :-111.366842
 Pd2     -N2      -C19     -C20     : 111.540751
 Pd2     -N2      -C25     -C24     :  -2.069384
 Pd2     -N2      -C25     -C26     : 177.963254
 Pd2     -C19     -N2      -H18     : 121.969645
 Pd2     -C19     -N2      -C25     :-121.951906
 Pd2     -C19     -C18     -C17     : 152.985898
 Pd2     -C19     -C18     -H24     : -26.265387
 Pd2     -C19     -C20     -C21     :-152.866208
 Pd2     -C19     -C20     -H25     :  26.249943
 N2      -Pd2     -P1      -C3      : 162.259316
 N2      -Pd2     -P1      -C4      :  41.889876
 N2      -Pd2     -P1      -C5      : -82.720259
 N2      -Pd2     -C19     -C18     : 102.971807
 N2      -Pd2     -C19     -C20     :-103.219329
 N2      -C19     -C18     -C17     :-135.853731
 N2      -C19     -C18     -H24     :  44.894984
 N2      -C19     -C20     -C21     : 135.787818
 N2      -C19     -C20     -H25     : -45.096030
 N2      -C25     -C24     -C23     :-179.937541
 N2      -C25     -C24     -H28     :   0.189077
 N2      -C25     -C26     -C27     : 179.909648
 N2      -C25     -C26     -H29     :   0.002887
 C16     -C17     -C18     -C19     :   0.494472
 C16     -C17     -C18     -H24     : 179.754416
 C16     -C21     -C20     -C19     :  -0.606745
 C16     -C21     -C20     -H25     :-179.734547
 C17     -C16     -C21     -C20     :   0.090356
 C17     -C16     -C21     -H26     :-179.943211
 C17     -C18     -C19     -C20     :  -0.977542
 C18     -C17     -C16     -C21     :  -0.034047
 C18     -C17     -C16     -F10     :-179.816376
 C18     -C19     -N2      -H18     :  10.602803
 C18     -C19     -N2      -C25     : 126.681252
 C18     -C19     -C20     -C21     :   1.032981
 C18     -C19     -C20     -H25     :-179.850868
 C19     -Pd2     -P1      -C3      : 160.306437
 C19     -Pd2     -P1      -C4      :  39.936997
 C19     -Pd2     -P1      -C5      : -84.673137
 C19     -Pd2     -N2      -H18     : -88.308904
 C19     -Pd2     -N2      -C25     :  88.570889
 C19     -N2      -C25     -C24     :  65.382345
 C19     -N2      -C25     -C26     :-114.585017
 C19     -C18     -C17     -H23     :-179.428358
 C19     -C20     -C21     -H26     : 179.426681
 C20     -C19     -N2      -H18     :-126.489604
 C20     -C19     -N2      -C25     : -10.411155
 C20     -C19     -C18     -H24     : 179.771173
 C20     -C21     -C16     -F10     : 179.874882
 C21     -C16     -C17     -H23     : 179.888408
 F10     -C16     -C17     -H23     :   0.106079
 F10     -C16     -C21     -H26     :  -0.158684
 H23     -C17     -C18     -H24     :  -0.168414
 H25     -C20     -C21     -H26     :   0.298879
 H18     -N2      -C25     -C24     : 175.156483
 H18     -N2      -C25     -C26     :  -4.810878
 C22     -C23     -C24     -C25     :   0.027542
 C22     -C23     -C24     -H28     : 179.900843
 C22     -C27     -C26     -C25     :   0.028196
 C22     -C27     -C26     -H29     : 179.934978
 C23     -C22     -C27     -C26     :   0.029271
 C23     -C22     -C27     -H30     : 179.999803
 C23     -C24     -C25     -C26     :   0.029890
 C24     -C23     -C22     -C27     :  -0.057122
 C24     -C23     -C22     -H22     : 179.997994
 C24     -C25     -C26     -C27     :  -0.057741
 C24     -C25     -C26     -H29     :-179.964502
 C25     -C24     -C23     -H27     : 179.969740
 C25     -C26     -C27     -H30     :-179.942349
 C26     -C25     -C24     -H28     :-179.843492
 C26     -C27     -C22     -H22     : 179.974132
 C27     -C22     -C23     -H27     :-179.999302
 H22     -C22     -C23     -H27     :   0.055814
 H22     -C22     -C27     -H30     :  -0.055336
 H27     -C23     -C24     -H28     :  -0.156958
 H29     -C26     -C27     -H30     :  -0.035567
 C3      -P1      -C4      -C41     : -71.340825
 C3      -P1      -C4      -C42     :  53.260398
[...]
    H41      X    -0.00002  -0.00005  -0.00003  -0.00001   0.00010   0.00071
    H41      Y     0.00007   0.00008   0.00013  -0.00005  -0.00019  -0.00038
    H41      Z     0.00030   0.00083   0.00068  -0.00021  -0.00119  -0.00055
    H42      X    -0.00006   0.00018   0.00011   0.00017  -0.00051   0.00089
    H42      Y     0.00004  -0.00024  -0.00017  -0.00020   0.00062  -0.00091
    H42      Z    -0.00001   0.00014   0.00008   0.00011  -0.00040   0.00083
    H43      X    -0.00006   0.00016  -0.00000   0.00019  -0.00001   0.00037
    H43      Y    -0.00016   0.00042   0.00005   0.00033  -0.00003   0.00101
    H43      Z    -0.00006   0.00010  -0.00001   0.00006   0.00003   0.00036
    H44      X     0.00049   0.00039   0.00003  -0.00000  -0.00078   0.00009
    H44      Y    -0.00028  -0.00032   0.00004  -0.00000   0.00055   0.00001
    H44      Z     0.00764   0.00571   0.00017  -0.00049  -0.01382  -0.00036
    H45      X     0.00061   0.00073  -0.00004   0.00026  -0.00144  -0.00013
    H45      Y     0.00105   0.00132  -0.00005   0.00047  -0.00249  -0.00038
    H45      Z     0.00042   0.00061  -0.00005   0.00019  -0.00111  -0.00015
    H46      X    -0.00151  -0.00122  -0.00003   0.00052   0.00184  -0.00083
    H46      Y    -0.00014  -0.00012  -0.00000  -0.00012   0.00025   0.00007
    H46      Z     0.00074   0.00064   0.00002  -0.00014  -0.00104   0.00023
    H71      X     0.00001   0.00008  -0.00014   0.00162  -0.00025  -0.00003
    H71      Y    -0.00003  -0.00016   0.00022  -0.00292   0.00043   0.00016
    H71      Z     0.00000   0.00007  -0.00011   0.00145  -0.00022  -0.00010
    H72      X     0.00045   0.00022   0.00009   0.00853  -0.00040  -0.00132
    H72      Y    -0.00002  -0.00002  -0.00000  -0.00031   0.00003   0.00007
    H72      Z    -0.00020  -0.00011  -0.00004  -0.00393   0.00019   0.00077
    H73      X    -0.00001   0.00014  -0.00004   0.00093  -0.00006  -0.00012
    H73      Y    -0.00003   0.00024  -0.00005   0.00156  -0.00012  -0.00032
    H73      Z    -0.00001   0.00010  -0.00004   0.00039  -0.00003  -0.00021
  
  vibration #          211       212       213
                 --------- --------- ---------
  frequencies      3227.81   3251.67   3584.15
  intensities         7.46      6.88     11.45
  reduc. mass         0.39      0.87      0.94
  force const         2.38      5.44      7.11
    P1       X    -0.00001   0.00001  -0.00001
    P1       Y    -0.00000  -0.00001  -0.00001
    P1       Z     0.00001   0.00011  -0.00000
    Pd2      X    -0.00002  -0.00001   0.00003
    Pd2      Y    -0.00000   0.00000   0.00001
    Pd2      Z    -0.00001  -0.00000  -0.00007
    N2       X     0.00002   0.00000   0.00941
    N2       Y     0.00006  -0.00001   0.06116
    N2       Z    -0.00010   0.00003   0.03234
    C16      X    -0.00001   0.00001  -0.00003
    C16      Y    -0.00000  -0.00000  -0.00010
    C16      Z    -0.00000   0.00000  -0.00001
    C17      X    -0.00001   0.00001   0.00016
    C17      Y     0.00009  -0.00004  -0.00003
    C17      Z    -0.00001   0.00000  -0.00005
    C18      X     0.00006  -0.00002  -0.00039
    C18      Y     0.00003   0.00000  -0.00029
    C18      Z    -0.00000  -0.00000  -0.00010
    C19      X     0.00001   0.00004  -0.00033
    C19      Y     0.00002  -0.00002  -0.00043
    C19      Z     0.00009  -0.00003   0.00022
    C20      X     0.00003  -0.00002  -0.00004
    C20      Y    -0.00005   0.00002   0.00021
    C20      Z    -0.00001  -0.00000  -0.00018
    C21      X    -0.00006   0.00004   0.00000
    C21      Y    -0.00003   0.00003   0.00003
    C21      Z    -0.00002   0.00000   0.00001
    F10      X     0.00000  -0.00001  -0.00003
    F10      Y     0.00000   0.00000   0.00002
    F10      Z     0.00000  -0.00000   0.00000
    H23      X     0.00014  -0.00007  -0.00008
    H23      Y    -0.00100   0.00048   0.00041
    H23      Z    -0.00001   0.00001  -0.00001
    H24      X    -0.00062   0.00016   0.00346
    H24      Y    -0.00049   0.00011   0.00262
    H24      Z     0.00000   0.00000   0.00032
    H25      X    -0.00002   0.00004   0.00013
    H25      Y     0.00045  -0.00022  -0.00124
    H25      Z     0.00014  -0.00000   0.00010
    H26      X     0.00066  -0.00040  -0.00030
    H26      Y     0.00048  -0.00029  -0.00012
    H26      Z     0.00006  -0.00003   0.00027
    H18      X    -0.00013   0.00004  -0.12106
    H18      Y    -0.00005  -0.00005  -0.83319
    H18      Z    -0.00002   0.00005  -0.46424
    C22      X     0.00007   0.00001  -0.00005
    C22      Y     0.00023   0.00001  -0.00018
    C22      Z    -0.00011  -0.00001   0.00004
    C23      X    -0.00002   0.00000  -0.00004
    C23      Y     0.00002   0.00003   0.00012
    C23      Z    -0.00000   0.00001   0.00008
    C24      X     0.00006   0.00000  -0.00004
    C24      Y    -0.00008  -0.00001  -0.00066
    C24      Z    -0.00077  -0.00002  -0.00039
    C25      X    -0.00006   0.00001  -0.00066
    C25      Y    -0.00013   0.00003   0.00002
    C25      Z     0.00010  -0.00001   0.00219
    C26      X     0.00000  -0.00000  -0.00008
    C26      Y    -0.00008  -0.00001  -0.00065
    C26      Z    -0.00011   0.00001   0.00013
    C27      X     0.00000   0.00000   0.00007
    C27      Y    -0.00006  -0.00000   0.00017
    C27      Z    -0.00004  -0.00003  -0.00014
    H22      X    -0.00068  -0.00006   0.00026
    H22      Y    -0.00212  -0.00020   0.00040
    H22      Z     0.00165   0.00016  -0.00037
    H27      X    -0.00002  -0.00002   0.00018
    H27      Y    -0.00012  -0.00029   0.00005
    H27      Z    -0.00013  -0.00012  -0.00042
    H28      X    -0.00146  -0.00002  -0.00008
    H28      Y     0.00139   0.00006  -0.00037
    H28      Z     0.00927   0.00021   0.00121
    H29      X     0.00008   0.00001   0.00079
    H29      Y     0.00112   0.00003   0.00211
    H29      Z     0.00050  -0.00000  -0.00138
    H30      X    -0.00012  -0.00005  -0.00006
    H30      Y     0.00012   0.00004   0.00009
    H30      Z     0.00063   0.00028   0.00043
    C3       X    -0.00002   0.00103   0.00001
    C3       Y    -0.00000   0.00006   0.00000
    C3       Z     0.00008  -0.00257   0.00002
    C4       X     0.00001  -0.00009  -0.00001
    C4       Y     0.00000   0.00000   0.00001
    C4       Z    -0.00001   0.00007   0.00002
    C5       X     0.00001  -0.00013  -0.00001
    C5       Y     0.00000   0.00003  -0.00001
    C5       Z    -0.00000   0.00006   0.00001
    C6       X     0.00029   0.00004   0.00001
    C6       Y     0.00142   0.00001  -0.00002
    C6       Z    -0.00124  -0.00003   0.00001
    C7       X     0.00129  -0.00004   0.00002
    C7       Y     0.00490  -0.00014  -0.00002
    C7       Z    -0.00258   0.00009   0.00003
    C8       X     0.00321  -0.00002  -0.00001
    C8       Y     0.00974  -0.00006  -0.00003
    C8       Z     0.00576  -0.00006  -0.00006
    C9       X     0.00203  -0.00000  -0.00003
    C9       Y    -0.00188   0.00000   0.00003
    C9       Z     0.03271  -0.00008   0.00001
    C10      X    -0.01426   0.00002   0.00003
    C10      Y    -0.05726   0.00011  -0.00003
    C10      Z     0.02615  -0.00004  -0.00005
    C11      X    -0.00995   0.00002   0.00008
    C11      Y    -0.03331   0.00008  -0.00001
    C11      Z    -0.02826   0.00007   0.00001
    C12      X     0.00000  -0.00051  -0.00000
    C12      Y    -0.00014   0.00003  -0.00000
    C12      Z    -0.00003  -0.00045   0.00001
    C13      X     0.00032  -0.00109   0.00000
    C13      Y    -0.00003   0.00011  -0.00000
    C13      Z     0.00050  -0.00134  -0.00001
    C14      X     0.00050  -0.00311  -0.00000
    C14      Y    -0.00000   0.00008  -0.00000
    C14      Z    -0.00020  -0.00010   0.00000
    C15      X     0.00001  -0.00559  -0.00000
    C15      Y     0.00000  -0.00042  -0.00000
    C15      Z    -0.00011   0.01426  -0.00000
    C40      X     0.00018   0.05901  -0.00001
    C40      Y    -0.00001  -0.00479   0.00000
    C40      Z     0.00018   0.05635  -0.00001
    C41      X    -0.00004  -0.00006   0.00000
    C41      Y     0.00001  -0.00005   0.00000
    C41      Z     0.00004   0.00012  -0.00000
    C42      X    -0.00004  -0.00307   0.00001
    C42      Y     0.00000  -0.00104  -0.00001
    C42      Z    -0.00000  -0.00024  -0.00001
    C43      X    -0.00001   0.00002  -0.00000
    C43      Y    -0.00000  -0.00002   0.00000
    C43      Z    -0.00001   0.00012  -0.00002
    C44      X     0.00000   0.00005  -0.00000
    C44      Y    -0.00002   0.00001   0.00000
    C44      Z     0.00007   0.00017  -0.00001
    C45      X    -0.00028  -0.00007   0.00000
    C45      Y     0.00000   0.00003  -0.00001
    C45      Z     0.00066   0.00014   0.00001
    C46      X    -0.00003  -0.00389   0.00000
    C46      Y    -0.00001   0.00118   0.00001
    C46      Z    -0.00000   0.00093  -0.00001
    H47      X    -0.01393   0.00039   0.00009
    H47      Y    -0.05210   0.00140   0.00021
    H47      Z     0.02486  -0.00068  -0.00014
    H48      X    -0.03274   0.00025   0.00020
    H48      Y    -0.09518   0.00074   0.00025
    H48      Z    -0.06999   0.00062   0.00022
    H49      X    -0.01569   0.00004  -0.00005
    H49      Y     0.03978  -0.00011  -0.00002
    H49      Z    -0.34973   0.00086  -0.00011
    H50      X     0.16240  -0.00032  -0.00007
    H50      Y     0.63466  -0.00122  -0.00004
    H50      Z    -0.28885   0.00060   0.00004
    H51      X     0.11264  -0.00018  -0.00009
    H51      Y     0.38424  -0.00076   0.00000
    H51      Z     0.29654  -0.00064   0.00002
    H52      X    -0.00417   0.01230  -0.00005
    H52      Y     0.00029  -0.00102  -0.00000
    H52      Z    -0.00420   0.01203  -0.00001
    H53      X    -0.00582   0.02734   0.00001
    H53      Y     0.00007  -0.00047  -0.00000
    H53      Z     0.00182  -0.00668  -0.00001
    H54      X    -0.00023   0.03571  -0.00002
    H54      Y    -0.00006   0.00524  -0.00000
    H54      Z     0.00131  -0.14756   0.00001
    H31      X    -0.00196  -0.67855   0.00002
    H31      Y     0.00018   0.05669  -0.00000
    H31      Z    -0.00174  -0.64628  -0.00001
    H32      X     0.00037   0.00091   0.00008
    H32      Y    -0.00000  -0.00015  -0.00000
    H32      Z    -0.00006   0.00006  -0.00004
    H33      X     0.00003  -0.00029   0.00000
    H33      Y    -0.00004   0.00063  -0.00006
    H33      Z     0.00000  -0.00015   0.00005
    H34      X     0.00008   0.00036  -0.00010
    H34      Y     0.00003   0.00007   0.00003
    H34      Z    -0.00042  -0.00121   0.00003
    H35      X     0.00037   0.03307   0.00001
    H35      Y     0.00007   0.00301  -0.00000
    H35      Z    -0.00009  -0.00717  -0.00002
    H36      X     0.00003   0.00547   0.00001
    H36      Y     0.00009   0.00726   0.00004
    H36      Z     0.00007   0.00720   0.00003
    H37      X     0.00011   0.00400   0.00000
    H37      Y    -0.00019  -0.00559  -0.00006
    H37      Z     0.00003   0.00068   0.00006
    H38      X    -0.00001   0.00051  -0.00007
    H38      Y    -0.00000   0.00055  -0.00005
    H38      Z     0.00003  -0.00159   0.00031
    H39      X     0.00004  -0.00030   0.00003
    H39      Y    -0.00006   0.00048  -0.00007
    H39      Z     0.00000   0.00001   0.00002
    H40      X     0.00006  -0.00026   0.00005
    H40      Y     0.00007  -0.00030   0.00004
    H40      Z     0.00007  -0.00036   0.00000
    H41      X     0.00003   0.00011  -0.00006
    H41      Y    -0.00014  -0.00030   0.00003
    H41      Z    -0.00074  -0.00224   0.00012
    H42      X    -0.00011  -0.00026   0.00003
    H42      Y     0.00017   0.00038  -0.00004
    H42      Z    -0.00013  -0.00023   0.00003
    H43      X     0.00010  -0.00035   0.00005
    H43      Y     0.00018  -0.00053   0.00004
    H43      Z     0.00006  -0.00006   0.00000
    H44      X    -0.00086   0.00016  -0.00001
    H44      Y     0.00026   0.00012   0.00001
    H44      Z    -0.00799  -0.00142  -0.00008
    H45      X    -0.00039  -0.00041  -0.00000
    H45      Y    -0.00071  -0.00065   0.00005
    H45      Z    -0.00030  -0.00016  -0.00001
    H46      X     0.00223   0.00135   0.00004
    H46      Y     0.00012   0.00009  -0.00001
    H46      Z    -0.00129  -0.00010  -0.00002
    H71      X    -0.00000   0.00744  -0.00001
    H71      Y    -0.00001  -0.01267  -0.00001
    H71      Z     0.00001   0.00630  -0.00001
    H72      X     0.00023   0.04251   0.00001
    H72      Y    -0.00003   0.00025  -0.00001
    H72      Z    -0.00013  -0.01938  -0.00002
    H73      X     0.00011   0.00281   0.00004
    H73      Y     0.00018   0.00425   0.00008
    H73      Z     0.00005   0.00084   0.00008
  
  Number of imaginary frequencies:   2
   
  Writing vibrational animation data to red_elim_TS_L1_PL139_3.vib
  Writing IR vibrational spectrum data to red_elim_TS_L1_PL139_3_vib.spm
  rotational symmetry number:  1

  rotational temperatures (K):      0.006566      0.004576      0.003442
   
  The Quasi-Harmonic approximation will be applied to compute
  vibrational constributions to thermodynamic properties.
  Frequencies will be adjusted to a minimum value of  100.00 cm^-1.

    2 vibrational frequencies below    0.0 cm-1 not included in zero-point
  energy or thermochemical analysis.  Set freqcut to change the frequency
  cutoff value.

  vibrational temperatures:
       mode:      3        4        5        6        7        8
  temp. (K):   143.88   143.88   143.88   143.88   143.88   143.88
   
       mode:      9       10       11       12       13       14
  temp. (K):   143.88   143.88   143.88   143.88   146.20   163.75
   
       mode:     15       16       17       18       19       20
  temp. (K):   171.44   178.24   190.45   212.16   222.03   230.23
   
       mode:     21       22       23       24       25       26
  temp. (K):   247.55   298.19   304.85   310.76   328.31   336.25
   
       mode:     27       28       29       30       31       32
  temp. (K):   344.97   351.29   364.13   379.69   386.62   403.84
   
       mode:     33       34       35       36       37       38
  temp. (K):   409.42   451.16   454.97   458.71   476.79   486.62
   
       mode:     39       40       41       42       43       44
  temp. (K):   501.74   507.96   519.26   556.28   579.49   585.17
   
       mode:     45       46       47       48       49       50
  temp. (K):   588.40   590.33   592.97   613.58   615.16   629.08
   
       mode:     51       52       53       54       55       56
  temp. (K):   689.72   700.74   734.98   745.25   755.99   782.52
   
       mode:     57       58       59       60       61       62
  temp. (K):   793.41   802.88   813.12   841.84   858.71   894.73
   
       mode:     63       64       65       66       67       68
  temp. (K):   900.35   902.73   908.90   914.53   982.62   999.64
   
       mode:     69       70       71       72       73       74
  temp. (K):  1027.97  1030.39  1094.56  1103.92  1106.42  1109.02
   
       mode:     75       76       77       78       79       80
  temp. (K):  1119.70  1148.57  1171.50  1174.70  1180.47  1198.04
   
       mode:     81       82       83       84       85       86
  temp. (K):  1202.19  1214.50  1241.25  1247.48  1293.71  1314.05
   
       mode:     87       88       89       90       91       92
  temp. (K):  1342.01  1346.44  1360.35  1375.95  1379.13  1385.91
   
       mode:     93       94       95       96       97       98
  temp. (K):  1391.19  1409.04  1412.05  1414.10  1421.23  1430.47
   
       mode:     99      100      101      102      103      104
  temp. (K):  1431.42  1447.98  1448.72  1455.79  1462.81  1471.00
   
       mode:    105      106      107      108      109      110
  temp. (K):  1473.60  1475.94  1502.04  1514.43  1520.46  1521.57
   
       mode:    111      112      113      114      115      116
  temp. (K):  1525.34  1536.53  1541.84  1601.32  1603.85  1604.95
   
       mode:    117      118      119      120      121      122
  temp. (K):  1630.24  1679.80  1717.27  1723.15  1734.25  1742.13
   
       mode:    123      124      125      126      127      128
  temp. (K):  1746.67  1749.08  1753.93  1755.89  1768.87  1789.73
   
       mode:    129      130      131      132      133      134
  temp. (K):  1793.17  1800.09  1828.30  1841.44  1851.83  1883.46
   
       mode:    135      136      137      138      139      140
  temp. (K):  1894.75  1918.60  1925.71  1928.80  1944.59  1978.72
   
       mode:    141      142      143      144      145      146
  temp. (K):  1987.21  2030.04  2039.65  2046.18  2047.41  2056.83
   
       mode:    147      148      149      150      151      152
  temp. (K):  2078.15  2087.80  2100.43  2122.15  2136.16  2157.51
   
       mode:    153      154      155      156      157      158
  temp. (K):  2162.06  2168.98  2172.24  2174.22  2175.38  2181.66
   
       mode:    159      160      161      162      163      164
  temp. (K):  2185.10  2187.72  2194.21  2202.47  2208.42  2218.59
   
       mode:    165      166      167      168      169      170
  temp. (K):  2221.39  2221.96  2223.34  2235.09  2332.74  2340.07
   
       mode:    171      172      173      174      175      176
  temp. (K):  2350.56  2360.56  2379.28  2381.15  2387.15  2402.77
   
       mode:    177      178      179      180      181      182
  temp. (K):  4370.82  4373.96  4379.35  4382.18  4386.78  4390.02
   
       mode:    183      184      185      186      187      188
  temp. (K):  4475.93  4477.32  4484.49  4487.49  4492.71  4506.58
   
       mode:    189      190      191      192      193      194
  temp. (K):  4514.95  4538.15  4540.11  4548.86  4555.96  4557.21
   
       mode:    195      196      197      198      199      200
  temp. (K):  4564.90  4567.30  4578.01  4583.29  4583.58  4587.95
   
       mode:    201      202      203      204      205      206
  temp. (K):  4590.88  4602.74  4605.36  4605.76  4615.08  4615.10
   
       mode:    207      208      209      210      211      212
  temp. (K):  4616.64  4622.99  4624.68  4634.12  4644.09  4678.42
   
       mode:    213
  temp. (K):  5156.79
   
   
  Thermodynamic properties calculated assuming an ideal gas

  In the table below, the units for temperature
  are kelvins, the units for U, H, and G are
  kcal/mol and the units for Cv and S are cal/(mol K)

  The zero point energy (ZPE):    384.835 kcal/mol
  is not included in U, H, or G in the table below
  
 
  =============================================================================
  Thermodynamic properties for P = 1.00E+00 atm, calculated at   1 temperatures


  T =   298.15 K, P = 1.00E+00 atm
   
                  U         Cv          S          H          G        ln(Q)
              =========  =========  =========  =========  =========  =========
  trans.          0.889      2.981     45.015      1.481    -11.940   20.15227
  rot.            0.889      2.981     37.083      0.889    -10.168   17.16091
  vib.           19.516    132.345    116.619     19.516    -15.254   25.74499
  elec.           0.000      0.000      0.000      0.000      0.000    0.00000
  ----------------------------------------------------------------------------
  total          21.294    138.306    198.717     21.886    -37.361   63.05817
   
   Total internal energy, Utot(SCFE + ZPE + U):   -1863.312520 hartrees
   Total enthalpy, Htot (Utot + nRT), with n=1:   -1863.311575 hartrees
    Total Gibbs free energy, Gtot (Htot - T*S):   -1863.405992 hartrees
   
  end of program freq
   
 Time(freq)  user:       0.366  user+sys:       0.366  wallclock:       0.414
  
  start of program post
  
  Writing input files for PBF
  end of program post
   
 Time(post)  user:       0.186  user+sys:       0.186  wallclock:       0.108

 Total cpu seconds     user:   85372.132   user+sys:   85372.132
  
 Total elapsed time:    49259 seconds

Job red_elim_TS_L1_PL139_3 completed on bp1-compute062.data.bp.acrc.priv at Fri Apr 11 03:19:02 2025
