Job red_elim_L_trans_L1_PL139 started on bp1-compute052.data.bp.acrc.priv at Tue Apr 29 16:49:26 2025
jobid: bp1-compute052-0-6810f4ff

  +--------------------------------------------------------------------+
  |  Jaguar version 12.5, release 138                                  |
  |                                                                    |
  |  Copyright Schrodinger, Inc.                                       |
  |  All Rights Reserved.                                              |
  |                                                                    |
  |  The following have contributed to Jaguar (listed alphabetically): |
  |  Ty Balduf, Mike Beachy, Chandler Bennett, Art Bochevarov,         |
  |  Dale Braden, Yixiang Cao, Alan Chien, Chris Cortis,               |
  |  Rich Friesner, Jim Furness, Bill Goddard, Hod Greeley,            |
  |  Tom Hughes, Leif Jacobson, Jean-Marc Langlois, Daniel Levine,     |
  |  Rob Murphy, Dean Philipp, Tom Pollard, Murco Ringnalda,           |
  |  Daniel Mainz, Pablo Videla, Mark Watson, Haoyu Yu.                |
  |                                                                    |
  |  Use of this program should be acknowledged in publications as:    |
  |                                                                    |
  |  Jaguar, version 12.5, Schrodinger, Inc., New York, NY, 2024.      |
  |                                                                    |
  |  A. D. Bochevarov, E. Harder, T. F. Hughes, J. R. Greenwood,       |
  |  D. A. Braden, D. M. Philipp, D. Rinaldo, M. D. Halls,             |
  |  J. Zhang, R. A. Friesner, "Jaguar: A High-Performance Quantum     |
  |  Chemistry Software Program with Strengths in Life and Materials   |
  |  Sciences", Int. J. Quantum Chem., 2013, 113(18), 2110-2142.       |
  +--------------------------------------------------------------------+
  
  start of program pre
  
  Job name: red_elim_L_trans_L1_PL139
  Executables used: /software/local/apps/schrodinger2024-3/jaguar-v12.5/bin/Linux-x86_64
  Temporary files : /tmp/ar21627/red_elim_L_trans_L1_PL139#bp1-compute052-0-6810f4ff
  Basis file : using default basis file from /software/local/apps/schrodinger2024-3
  Maestro file (input):  red_elim_L_trans_L1_PL139.mae
  Maestro file (output): red_elim_L_trans_L1_PL139.01.mae
  
 Contents of input file: &gen and (if present) &atomic sections only
 ----------------Contents start----------------
&gen
dftname=b3pw91-d3
basis=6-31G*
numd=5
ip11=2
iaccg=3
isolv=2
igeopt=1
solvent=benzene
ifreq=1
&
&atomic
atom basis
Pd2 lacv3p*
&
 -----------------Contents end-----------------
 
  PS calculation requested. Using PS version of 6-31g*
  basis set:               non_standard                    
  net molecular charge:    0
  multiplicity:            1
  
  Using up to   4 threads per process
  
  This run will use ECP on 1 atom
  number of basis functions....          599
  
 Input geometry:
                                   angstroms
  atom               x                 y                 z
  P1            0.0000000000      0.0000000000      0.0000000000 
  Pd2           0.0000000000      0.0000000000      2.2085805062 
  N2           -0.1517568335     -2.0665348548      2.3750259043 
  C16           0.6442508166      4.8273364619      2.5826645130 
  C17           1.7317875095      3.9523835594      2.4962832560 
  C18           1.5398919406      2.5827064890      2.2960640351 
  C19           0.2539610545      2.0218116556      2.1975760572 
  C20          -0.8299056590      2.9176740335      2.2602660615 
  C21          -0.6416149030      4.2855278611      2.4590421015 
  F10           0.8196790824      6.1380298903      2.7505831253 
  H23           2.7442014630      4.3471437532      2.5862268619 
  H24           2.4173338050      1.9385072198      2.2279934944 
  H25          -1.8470919150      2.5389865983      2.1594680927 
  H26          -1.5069463668      4.9464678203      2.5197010906 
  H30           0.7667656381     -2.3950517217      2.8833497551 
  C31          -3.5592881401     -3.2994163349      4.6139341404 
  C32          -2.6755181371     -2.3469146740      5.1473621277 
  C33          -1.5519604860     -1.9403994302      4.4091319392 
  C34          -1.3121728241     -2.4863858661      3.1374737741 
  C35          -2.1958628301     -3.4388585832      2.6039932249 
  C36          -3.3195004920     -3.8454027520      3.3422759645 
  H37          -4.4419748701     -3.6187818885      5.1939008118 
  H38          -2.8640176800     -1.9180339970      6.1464536587 
  H39          -0.8576932803     -1.1921242854      4.8282042538 
  H40          -2.0074168243     -3.8677065995      1.6050284499 
  H41          -4.0137676760     -4.5936779263      2.9232036667 
  C3            1.4037020000      0.0000000000     -0.5287930000 
  C4           -0.7175880000      1.2185950000     -0.5000930000 
  C5           -0.6270920000     -1.2611540000     -0.5159910000 
  C6            2.7260500000     -0.4853270000      1.6271060000 
  C7            3.2037415467      0.4890420836      2.5421914869 
  C8            3.3427076298      0.2842074305      3.9252858075 
  C9            3.0029181845     -0.9436439155      4.4993369091 
  C10           2.5252920939     -1.9426734330      3.6472603508 
  C11           2.3990175195     -1.7026668968      2.2690586205 
  C12           2.6019460000     -0.2304150000      0.2176440000 
  C13           3.7878870000     -0.1958030000     -0.5613940000 
  C14           3.8431800000      0.0372740000     -1.9422500000 
  C15           2.6594980000      0.2557690000     -2.6437450000 
  C40           1.4669940000      0.2303350000     -1.9171010000 
  C41           0.1158517669      2.4672431736     -0.1343484551 
  C42          -1.1055891910      1.3160327984     -1.9924426613 
  C43          -2.0347889354      1.3233670507      0.3046370077 
  C44          -1.8510144222     -1.6741588543      0.3275787881 
  C45           0.4394906475     -2.3642522410     -0.3224465009 
  C22          -1.0219433050     -1.2848289437     -2.0077918989 
  H47           3.5106140782      1.4986757485      2.2438585944 
  H48           3.7228140409      1.0933906243      4.5725414540 
  H49           3.1073365851     -1.1176845047      5.5835144817 
  H50           2.2473488768     -2.9241184415      4.0688263639 
  H27           2.0137140197     -2.5696189083      1.7348519269 
  H28           4.7885530000     -0.3513670000     -0.1424820000 
  H29           4.8080470000      0.0488480000     -2.4782120000 
  H54           2.6670950000      0.4405860000     -3.7314160000 
  H31           0.5556520000      0.4025780000     -2.4991290000 
  H32           1.0626420629      2.5192996510     -0.7159243455 
  H33          -0.4379167675      3.4106575791     -0.3448936565 
  H34           0.3859606466      2.4761718746      0.9466299606 
  H35          -0.2342710401      1.3346550813     -2.6789600677 
  H36          -1.7814503564      0.4916429361     -2.3040448723 
  H61          -1.6611262213      2.2595958572     -2.1968349735 
  H62          -1.8439661266      1.3304272728      1.4025661129 
  H63          -2.5974782081      2.2551215868      0.0669151895 
  H64          -2.7182868499      0.4708395430      0.0950311044 
  H65          -1.6084453730     -1.6873765738      1.4148541557 
  H42          -2.7102678169     -0.9855760885      0.1798297338 
  H43          -2.2132906165     -2.6924243364      0.0577508116 
  H44           0.7329990218     -2.4674193422      0.7474889978 
  H45           0.0726208093     -3.3610562143     -0.6586161266 
  H46           1.3657567178     -2.1450806663     -0.9013396517 
  H71          -1.7612521313     -0.4985421116     -2.2666297491 
  H72          -0.1385403231     -1.1701710265     -2.6739813674 
  H73          -1.4898281634     -2.2573929988     -2.2832494086 
   
  principal moments of inertia:
        amu*angstrom^2:              3851.33130              5001.96441              5653.22591
                g*cm^2:          6.39528529E-37          8.30595628E-37          9.38740131E-37
   
  rotational constants:
               cm^(-1):      0.00437709      0.00337020      0.00298195
                   GHz:      0.13122190      0.10103611      0.08939657
   
  Molecular weight:     591.17 amu
   
  Stoichiometry: PdC32PNH37F
  Molecular Point Group: C1      
  Point Group used: C1
  
 
Number of optimization coordinates:   248
Number of independent coordinates:    248
Number of non-redundant coordinates:  213
Number of frozen coordinates:           0
Number of harmonic constraints:         0
 
Number of geometric degrees of freedom:   213
Maximum geometric degrees of freedom:     213
 " " " " " excluding dummy atoms:         213
 
 
  bond lengths (angstroms):
 
 P1      -Pd2     :   2.208581      P1      -C3      :   1.500000
 P1      -C4      :   1.500000      P1      -C5      :   1.500000
 Pd2     -N2      :   2.078774      Pd2     -C19     :   2.037729
 N2      -H30     :   1.100000      N2      -C34     :   1.450575
 C16     -C17     :   1.398478      C16     -C21     :   1.400818
 C16     -F10     :   1.333000      C17     -C18     :   1.397472
 C17     -H23     :   1.090370      C18     -C19     :   1.406386
 C18     -H24     :   1.090656      C19     -C20     :   1.407575
 C20     -C21     :   1.394987      C20     -H25     :   1.090061
 C21     -H26     :   1.090559      C31     -C32     :   1.404583
 C31     -C36     :   1.404533      C31     -H37     :   1.103400
 C32     -C33     :   1.404500      C32     -H38     :   1.103474
 C33     -C34     :   1.404533      C33     -H39     :   1.103424
 C34     -C35     :   1.404533      C35     -C36     :   1.404600
 C35     -H40     :   1.103337      C36     -H41     :   1.103424
 C3      -C12     :   1.430401      C3      -C40     :   1.408708
 C4      -C41     :   1.545158      C4      -C42     :   1.545039
 C4      -C43     :   1.547122      C5      -C44     :   1.542780
 C5      -C45     :   1.546572      C5      -C22     :   1.543353
 C6      -C7      :   1.419495      C6      -C11     :   1.414556
 C6      -C12     :   1.437694      C7      -C8      :   1.405069
 C7      -H47     :   1.096601      C8      -C9      :   1.397358
 C8      -H48     :   1.103720      C9      -C10     :   1.397219
 C9      -H49     :   1.103011      C10     -C11     :   1.404631
 C10     -H50     :   1.103723      C11     -H27     :   1.088780
 C12     -C13     :   1.419350      C13     -C14     :   1.401480
 C13     -H28     :   1.095911      C14     -C15     :   1.393176
 C14     -H29     :   1.103792      C15     -C40     :   1.396683
 C15     -H54     :   1.103287      C40     -H31     :   1.094974
 C41     -H32     :   1.112363      C41     -H33     :   1.114011
 C41     -H34     :   1.114250      C42     -H35     :   1.109436
 C42     -H36     :   1.110632      C42     -H61     :   1.113871
 C43     -H62     :   1.114411      C43     -H63     :   1.114135
 C43     -H64     :   1.112613      C44     -H65     :   1.114084
 C44     -H42     :   1.110987      C44     -H43     :   1.113964
 C45     -H44     :   1.114250      C45     -H45     :   1.114101
 C45     -H46     :   1.114057      C22     -H71     :   1.109875
 C22     -H72     :   1.112365      C22     -H73     :   1.113855
 
  bond angles:
 
 C3      -P1      -Pd2     : 110.642051  C4      -P1      -Pd2     : 109.474992
 C4      -P1      -C3      : 109.277784  C5      -P1      -Pd2     : 110.120396
 C5      -P1      -C3      : 105.661559  C5      -P1      -C4      : 111.614203
 N2      -Pd2     -P1      :  94.592533  C19     -Pd2     -P1      :  89.690581
 C19     -Pd2     -N2      : 174.795831  H30     -N2      -Pd2     : 105.839005
 C34     -N2      -Pd2     : 112.843761  C34     -N2      -H30     : 109.794980
 C21     -C16     -C17     : 117.801102  F10     -C16     -C17     : 121.373513
 F10     -C16     -C21     : 120.812442  C18     -C17     -C16     : 121.015347
 H23     -C17     -C16     : 119.370349  H23     -C17     -C18     : 119.614295
 C19     -C18     -C17     : 121.767686  H24     -C18     -C17     : 118.514121
 H24     -C18     -C19     : 119.713835  C18     -C19     -Pd2     : 120.615992
 C20     -C19     -Pd2     : 122.362789  C20     -C19     -C18     : 116.559160
 C21     -C20     -C19     : 121.768576  H25     -C20     -C19     : 119.559115
 H25     -C20     -C21     : 118.670546  C20     -C21     -C16     : 121.046438
 H26     -C21     -C16     : 119.277688  H26     -C21     -C20     : 119.675874
 C36     -C31     -C32     : 120.002746  H37     -C31     -C32     : 120.000393
 H37     -C31     -C36     : 119.996860  C33     -C32     -C31     : 120.000393
 H38     -C32     -C31     : 119.995826  H38     -C32     -C33     : 120.003781
 C34     -C33     -C32     : 119.996860  H39     -C33     -C32     : 119.999284
 H39     -C33     -C34     : 120.003855  C33     -C34     -N2      : 119.996860
 C35     -C34     -N2      : 119.996860  C35     -C34     -C33     : 120.006279
 C36     -C35     -C34     : 119.996860  H40     -C35     -C34     : 120.001259
 H40     -C35     -C36     : 120.001881  C35     -C36     -C31     : 119.996860
 H41     -C36     -C31     : 120.003855  H41     -C36     -C35     : 119.999284
 C12     -C3      -P1      : 126.866735  C40     -C3      -P1      : 112.921406
 C40     -C3      -C12     : 120.197482  C41     -C4      -P1      : 108.635479
 C42     -C4      -P1      : 119.564083  C42     -C4      -C41     : 108.247562
 C43     -C4      -P1      : 106.792043  C43     -C4      -C41     : 106.342742
 C43     -C4      -C42     : 106.518855  C44     -C5      -P1      : 111.631893
 C45     -C5      -P1      : 105.564318  C45     -C5      -C44     : 106.722903
 C22     -C5      -P1      : 116.895060  C22     -C5      -C44     : 108.750722
 C22     -C5      -C45     : 106.646205  C11     -C6      -C7      : 112.083859
 C12     -C6      -C7      : 122.638665  C12     -C6      -C11     : 125.277476
 C8      -C7      -C6      : 124.596171  H47     -C7      -C6      : 123.420160
 H47     -C7      -C8      : 111.983632  C9      -C8      -C7      : 120.559660
 H48     -C8      -C7      : 120.294259  H48     -C8      -C9      : 119.146078
 C10     -C9      -C8      : 117.443483  H49     -C9      -C8      : 121.293605
 H49     -C9      -C10     : 121.262909  C11     -C10     -C9      : 120.458961
 H50     -C10     -C9      : 119.271939  H50     -C10     -C11     : 120.269097
 C10     -C11     -C6      : 124.857824  H27     -C11     -C6      : 122.983415
 H27     -C11     -C10     : 112.158723  C6      -C12     -C3      : 127.767778
 C13     -C12     -C3      : 114.179167  C13     -C12     -C6      : 118.053050
 C14     -C13     -C12     : 125.296897  H28     -C13     -C12     : 123.344249
 H28     -C13     -C14     : 111.358848  C15     -C14     -C13     : 119.253491
 H29     -C14     -C13     : 120.974078  H29     -C14     -C15     : 119.772406
 C40     -C15     -C14     : 117.425968  H54     -C15     -C14     : 121.118955
 H54     -C15     -C40     : 121.455055  C15     -C40     -C3      : 123.646561
 H31     -C40     -C3      : 120.808706  H31     -C40     -C15     : 115.544693
 H32     -C41     -C4      : 111.910845  H33     -C41     -C4      : 111.807544
 H33     -C41     -H32     : 106.538408  H34     -C41     -C4      : 111.522463
 H34     -C41     -H32     : 107.488352  H34     -C41     -H33     : 107.281718
 H35     -C42     -C4      : 113.673662  H36     -C42     -C4      : 112.148234
 H36     -C42     -H35     : 108.467982  H61     -C42     -C4      : 110.849242
 H61     -C42     -H35     : 105.303521  H61     -C42     -H36     : 105.890065
 H62     -C43     -C4      : 111.536748  H63     -C43     -C4      : 112.063982
 H63     -C43     -H62     : 106.941488  H64     -C43     -C4      : 111.909518
 H64     -C43     -H62     : 107.196505  H64     -C43     -H63     : 106.879073
 H65     -C44     -C5      : 111.350636  H42     -C44     -C5      : 112.020047
 H42     -C44     -H65     : 107.790504  H43     -C44     -C5      : 111.731603
 H43     -C44     -H65     : 107.239005  H43     -C44     -H42     : 106.428016
 H44     -C45     -C5      : 111.584181  H45     -C45     -C5      : 111.919355
 H45     -C45     -H44     : 107.076047  H46     -C45     -C5      : 111.595099
 H46     -C45     -H44     : 107.347393  H46     -C45     -H45     : 107.038637
 H71     -C22     -C5      : 112.642254  H72     -C22     -C5      : 111.970515
 H72     -C22     -H71     : 108.440249  H73     -C22     -C5      : 111.094202
 H73     -C22     -H71     : 106.325725  H73     -C22     -H72     : 105.991230
 
  torsional angles:
 
 P1      -Pd2     -N2      -H30     : 117.329579
 P1      -Pd2     -N2      -C34     :-122.571445
 P1      -Pd2     -C19     -C18     : -94.851269
 P1      -Pd2     -C19     -C20     :  93.218881
 P1      -C3      -C12     -C6      :  -1.244791
 P1      -C3      -C12     -C13     : 178.729711
 P1      -C3      -C40     -C15     :-178.962339
 P1      -C3      -C40     -H31     :   0.961507
 P1      -C4      -C41     -H32     :  69.066294
 P1      -C4      -C41     -H33     :-171.500578
 P1      -C4      -C41     -H34     : -51.385074
 P1      -C4      -C42     -H35     : -63.625205
 P1      -C4      -C42     -H36     :  59.871656
 P1      -C4      -C42     -H61     : 177.992778
 P1      -C4      -C43     -H62     :  54.960151
 P1      -C4      -C43     -H63     : 174.826861
 P1      -C4      -C43     -H64     : -65.126497
 P1      -C5      -C44     -H65     : -50.476119
 P1      -C5      -C44     -H42     :  70.318293
 P1      -C5      -C44     -H43     :-170.366999
 P1      -C5      -C45     -H44     :  59.004770
 P1      -C5      -C45     -H45     : 178.976975
 P1      -C5      -C45     -H46     : -61.091110
 P1      -C5      -C22     -H71     : -60.037413
 P1      -C5      -C22     -H72     :  62.500013
 P1      -C5      -C22     -H73     :-179.204233
 Pd2     -P1      -C3      -C12     :  11.615731
 Pd2     -P1      -C3      -C40     :-169.774349
 Pd2     -P1      -C4      -C41     :  67.405157
 Pd2     -P1      -C4      -C42     :-167.760667
 Pd2     -P1      -C4      -C43     : -46.921688
 Pd2     -P1      -C5      -C44     :  39.490670
 Pd2     -P1      -C5      -C45     : -76.090285
 Pd2     -P1      -C5      -C22     : 165.569336
 Pd2     -N2      -C34     -C33     : -51.616232
 Pd2     -N2      -C34     -C35     : 128.383766
 Pd2     -C19     -C18     -C17     :-170.050886
 Pd2     -C19     -C18     -H24     :   9.178290
 Pd2     -C19     -C20     -C21     : 169.957016
 Pd2     -C19     -C20     -H25     :  -9.553378
 N2      -Pd2     -P1      -C3      : -94.200000
 N2      -Pd2     -P1      -C4      : 145.307656
 N2      -Pd2     -P1      -C5      :  22.238249
 N2      -Pd2     -C19     -C18     :  50.581459
 N2      -Pd2     -C19     -C20     :-121.348391
 N2      -C34     -C33     -C32     : 179.999999
 N2      -C34     -C33     -H39     :  -0.000003
 N2      -C34     -C35     -C36     :-179.999998
 N2      -C34     -C35     -H40     :   0.000001
 C16     -C17     -C18     -C19     :  -1.182136
 C16     -C17     -C18     -H24     : 179.579750
 C16     -C21     -C20     -C19     :   1.078553
 C16     -C21     -C20     -H25     :-179.406842
 C17     -C16     -C21     -C20     :   0.183250
 C17     -C16     -C21     -H26     :-179.819722
 C17     -C18     -C19     -C20     :   2.330995
 C18     -C17     -C16     -C21     :  -0.133028
 C18     -C17     -C16     -F10     :-178.834314
 C18     -C19     -C20     -C21     :  -2.280368
 C18     -C19     -C20     -H25     : 178.209238
 C19     -Pd2     -P1      -C3      :  82.840537
 C19     -Pd2     -P1      -C4      : -37.651807
 C19     -Pd2     -P1      -C5      :-160.721214
 C19     -Pd2     -N2      -H30     : -27.976472
 C19     -Pd2     -N2      -C34     :  92.122504
 C19     -C18     -C17     -H23     : 178.853796
 C19     -C20     -C21     -H26     :-178.918464
 C20     -C19     -C18     -H24     :-178.439829
 C20     -C21     -C16     -F10     : 178.892184
 C21     -C16     -C17     -H23     : 179.831126
 F10     -C16     -C17     -H23     :   1.129840
 F10     -C16     -C21     -H26     :  -1.110788
 H23     -C17     -C18     -H24     :  -0.384317
 H25     -C20     -C21     -H26     :   0.596141
 H30     -N2      -C34     -C33     :  66.183656
 H30     -N2      -C34     -C35     :-113.816347
 C31     -C32     -C33     -C34     :  -0.000001
 C31     -C32     -C33     -H39     :-179.999999
 C31     -C36     -C35     -C34     :  -0.000001
 C31     -C36     -C35     -H40     : 180.000000
 C32     -C31     -C36     -C35     :   0.000000
 C32     -C31     -C36     -H41     : 179.999999
 C32     -C33     -C34     -C35     :   0.000001
 C33     -C32     -C31     -C36     :   0.000000
 C33     -C32     -C31     -H37     :-179.999999
 C33     -C34     -C35     -C36     :   0.000000
 C33     -C34     -C35     -H40     : 179.999999
 C34     -C33     -C32     -H38     : 180.000000
 C34     -C35     -C36     -H41     :-179.999999
 C35     -C34     -C33     -H39     : 179.999999
 C35     -C36     -C31     -H37     :-179.999999
 C36     -C31     -C32     -H38     : 179.999999
 H37     -C31     -C32     -H38     :  -0.000001
 H37     -C31     -C36     -H41     :  -0.000001
 H38     -C32     -C33     -H39     :   0.000002
 H40     -C35     -C36     -H41     :   0.000002
 C3      -P1      -C4      -C41     : -53.914883
 C3      -P1      -C4      -C42     :  70.919293
 C3      -P1      -C4      -C43     :-168.241727
 C3      -P1      -C5      -C44     : 159.004204
 C3      -P1      -C5      -C45     :  43.423249
 C3      -P1      -C5      -C22     : -74.917131
 C3      -C12     -C6      -C7      :-105.457153
 C3      -C12     -C6      -C11     :  74.547585
 C3      -C12     -C13     -C14     :  -0.059613
 C3      -C12     -C13     -H28     : 179.909160
 C3      -C40     -C15     -C14     :   0.107798
 C3      -C40     -C15     -H54     :-179.945215
 C4      -P1      -C3      -C12     : 132.225580
 C4      -P1      -C3      -C40     : -49.164500
 C4      -P1      -C5      -C44     : -82.317219
 C4      -P1      -C5      -C45     : 162.101826
 C4      -P1      -C5      -C22     :  43.761446
 C5      -P1      -C3      -C12     :-107.553020
 C5      -P1      -C3      -C40     :  71.056900
 C5      -P1      -C4      -C41     :-170.415056
 C5      -P1      -C4      -C42     : -45.580880
 C5      -P1      -C4      -C43     :  75.258099
 C6      -C7      -C8      -C9      :  -0.011981
 C6      -C7      -C8      -H48     : 179.970654
 C6      -C11     -C10     -C9      :   0.040255
 C6      -C11     -C10     -H50     :-179.980554
 C6      -C12     -C3      -C40     :-179.763430
 C6      -C12     -C13     -C14     : 179.917547
 C6      -C12     -C13     -H28     :  -0.113679
 C7      -C6      -C11     -C10     :  -0.074732
 C7      -C6      -C11     -H27     : 179.848321
 C7      -C6      -C12     -C13     :  74.569205
 C7      -C8      -C9      -C10     :  -0.029064
 C7      -C8      -C9      -H49     : 179.990200
 C8      -C7      -C6      -C11     :   0.060605
 C8      -C7      -C6      -C12     :-179.935221
 C8      -C9      -C10     -C11     :   0.015975
 C8      -C9      -C10     -H50     :-179.963423
 C9      -C8      -C7      -H47     :-179.943483
 C9      -C10     -C11     -H27     :-179.890053
 C10     -C9      -C8      -H48     : 179.988104
 C10     -C11     -C6      -C12     : 179.920963
 C11     -C6      -C7      -H47     : 179.984505
 C11     -C6      -C12     -C13     :-105.426058
 C11     -C10     -C9      -H49     : 179.996718
 C12     -C3      -C40     -C15     :  -0.249043
 C12     -C3      -C40     -H31     : 179.674803
 C12     -C6      -C7      -H47     :  -0.011321
 C12     -C6      -C11     -H27     :  -0.155984
 C12     -C13     -C14     -C15     :  -0.073105
 C12     -C13     -C14     -H29     : 179.984555
 C13     -C12     -C3      -C40     :   0.211072
 C13     -C14     -C15     -C40     :   0.051014
 C13     -C14     -C15     -H54     :-179.896162
 C14     -C15     -C40     -H31     :-179.819709
 C15     -C14     -C13     -H28     : 179.954905
 C40     -C15     -C14     -H29     : 179.994058
 C41     -C4      -C42     -H35     :  61.394213
 C41     -C4      -C42     -H36     :-175.108926
 C41     -C4      -C42     -H61     : -56.987804
 C41     -C4      -C43     -H62     : -60.909139
 C41     -C4      -C43     -H63     :  58.957571
 C41     -C4      -C43     -H64     : 179.004213
 C42     -C4      -C41     -H32     : -62.191818
 C42     -C4      -C41     -H33     :  57.241310
 C42     -C4      -C41     -H34     : 177.356814
 C42     -C4      -C43     -H62     :-176.206687
 C42     -C4      -C43     -H63     : -56.339978
 C42     -C4      -C43     -H64     :  63.706664
 C43     -C4      -C41     -H32     :-176.313205
 C43     -C4      -C41     -H33     : -56.880076
 C43     -C4      -C41     -H34     :  63.235427
 C43     -C4      -C42     -H35     : 175.399296
 C43     -C4      -C42     -H36     : -61.103843
 C43     -C4      -C42     -H61     :  57.017279
 C44     -C5      -C45     -H44     : -59.893717
 C44     -C5      -C45     -H45     :  60.078488
 C44     -C5      -C45     -H46     :-179.989597
 C44     -C5      -C22     -H71     :  67.458488
 C44     -C5      -C22     -H72     :-170.004085
 C44     -C5      -C22     -H73     : -51.708331
 C45     -C5      -C44     -H65     :  64.392944
 C45     -C5      -C44     -H42     :-174.812645
 C45     -C5      -C44     -H43     : -55.497936
 C45     -C5      -C22     -H71     :-177.791448
 C45     -C5      -C22     -H72     : -55.254022
 C45     -C5      -C22     -H73     :  63.041732
 C22     -C5      -C44     -H65     : 179.093085
 C22     -C5      -C44     -H42     : -60.112503
 C22     -C5      -C44     -H43     :  59.202205
 C22     -C5      -C45     -H44     :-176.007825
 C22     -C5      -C45     -H45     : -56.035620
 C22     -C5      -C45     -H46     :  63.896294
 H47     -C7      -C8      -H48     :   0.039152
 H48     -C8      -C9      -H49     :   0.007368
 H49     -C9      -C10     -H50     :   0.017320
 H50     -C10     -C11     -H27     :   0.089139
 H28     -C13     -C14     -H29     :   0.012565
 H29     -C14     -C15     -H54     :   0.046882
 H54     -C15     -C40     -H31     :   0.127278
 
  nuclear repulsion energy.......          4954.612065169 hartrees
  
  Detected an organometallic with only one TM atom. 
  
  Oxidation state on metal       2 is     2
  Formal multiplet on metal      2 is     1
  Formal charge on ligand        3 is    -1
  Formal multiplet on ligand     3 is     1
  Formal charge on ligand        4 is    -1
  Formal multiplet on ligand     4 is     1
  
 
  Will use High-Quality Initial guess for organometallics
       including d-d repulsion (iguess=30)
 
 Non-default options chosen:
   SCF calculation type: DFT(b3pw91-d3)              
   DFT=Becke_3_Parameter/HF+Slater+Becke88+PW91+PW-GGAIIC (B3PW91-D3)
   Geometry will be optimized in redundant internal coordinates
   Solvation energy will be computed using PBF
     -solute cavity energy will not be included
     -surface area terms will not be included
   Vibrational frequencies and related properties will be computed
      from analytic second derivatives
   IR intensities will be computed
   Thermochemical properties will be computed
   Maximum number of geometry steps: 100
   Scaling standard convergence criteria by a factor of   5.00
   Solvent: benzene                                                         
   Internal dielectric constant:    1.000
   Continuum dielectric constant:   2.283
   Solvent probe molecule radius:   2.600
  
 Non-default print settings:
     11=  2
  
 Temporary integer options set:
     21= -1  73=  2
  
  atom       vdw   vdw2    cov     mass  grid  daf  charge   basis
  P1        2.147  2.074  1.060   30.974    Y    Y      Y    ps_6-31g*
  Pd2       1.450  1.450  1.280  105.903    Y    Y      Y    lacv3p*
  N2        1.831  1.600  0.750   14.003    Y    Y      Y    ps_6-31g*
  C16       1.949  1.900  0.770   12.000    Y    Y      Y    ps_6-31g*
  C17       1.949  1.900  0.770   12.000    Y    Y      Y    ps_6-31g*
  C18       1.949  1.900  0.770   12.000    Y    Y      Y    ps_6-31g*
  C19       1.949  1.900  0.770   12.000    Y    Y      Y    ps_6-31g*
  C20       1.949  1.900  0.770   12.000    Y    Y      Y    ps_6-31g*
  C21       1.949  1.900  0.770   12.000    Y    Y      Y    ps_6-31g*
  F10       1.736  1.682  0.720   18.998    Y    Y      Y    ps_6-31g*
  H23       1.597  1.150  0.320    1.008    Y    Y      Y    ps_6-31g*
  H24       1.597  1.150  0.320    1.008    Y    Y      Y    ps_6-31g*
  H25       1.597  1.150  0.320    1.008    Y    Y      Y    ps_6-31g*
  H26       1.597  1.150  0.320    1.008    Y    Y      Y    ps_6-31g*
  H30       1.597  1.150  0.320    1.008    Y    Y      Y    ps_6-31g*
  C31       1.949  1.900  0.770   12.000    Y    Y      Y    ps_6-31g*
  C32       1.949  1.900  0.770   12.000    Y    Y      Y    ps_6-31g*
  C33       1.949  1.900  0.770   12.000    Y    Y      Y    ps_6-31g*
  C34       1.949  1.900  0.770   12.000    Y    Y      Y    ps_6-31g*
  C35       1.949  1.900  0.770   12.000    Y    Y      Y    ps_6-31g*
  C36       1.949  1.900  0.770   12.000    Y    Y      Y    ps_6-31g*
  H37       1.597  1.150  0.320    1.008    Y    Y      Y    ps_6-31g*
  H38       1.597  1.150  0.320    1.008    Y    Y      Y    ps_6-31g*
  H39       1.597  1.150  0.320    1.008    Y    Y      Y    ps_6-31g*
  H40       1.597  1.150  0.320    1.008    Y    Y      Y    ps_6-31g*
  H41       1.597  1.150  0.320    1.008    Y    Y      Y    ps_6-31g*
  C3        1.949  1.900  0.770   12.000    Y    Y      Y    ps_6-31g*
  C4        1.949  1.900  0.770   12.000    Y    Y      Y    ps_6-31g*
  C5        1.949  1.900  0.770   12.000    Y    Y      Y    ps_6-31g*
  C6        1.949  1.900  0.770   12.000    Y    Y      Y    ps_6-31g*
  C7        1.949  1.900  0.770   12.000    Y    Y      Y    ps_6-31g*
  C8        1.949  1.900  0.770   12.000    Y    Y      Y    ps_6-31g*
  C9        1.949  1.900  0.770   12.000    Y    Y      Y    ps_6-31g*
  C10       1.949  1.900  0.770   12.000    Y    Y      Y    ps_6-31g*
  C11       1.949  1.900  0.770   12.000    Y    Y      Y    ps_6-31g*
  C12       1.949  1.900  0.770   12.000    Y    Y      Y    ps_6-31g*
  C13       1.949  1.900  0.770   12.000    Y    Y      Y    ps_6-31g*
  C14       1.949  1.900  0.770   12.000    Y    Y      Y    ps_6-31g*
  C15       1.949  1.900  0.770   12.000    Y    Y      Y    ps_6-31g*
  C40       1.949  1.900  0.770   12.000    Y    Y      Y    ps_6-31g*
  C41       1.949  1.900  0.770   12.000    Y    Y      Y    ps_6-31g*
  C42       1.949  1.900  0.770   12.000    Y    Y      Y    ps_6-31g*
  C43       1.949  1.900  0.770   12.000    Y    Y      Y    ps_6-31g*
  C44       1.949  1.900  0.770   12.000    Y    Y      Y    ps_6-31g*
  C45       1.949  1.900  0.770   12.000    Y    Y      Y    ps_6-31g*
  C22       1.949  1.900  0.770   12.000    Y    Y      Y    ps_6-31g*
  H47       1.597  1.150  0.320    1.008    Y    Y      Y    ps_6-31g*
  H48       1.597  1.150  0.320    1.008    Y    Y      Y    ps_6-31g*
  H49       1.597  1.150  0.320    1.008    Y    Y      Y    ps_6-31g*
  H50       1.597  1.150  0.320    1.008    Y    Y      Y    ps_6-31g*
  H27       1.597  1.150  0.320    1.008    Y    Y      Y    ps_6-31g*
  H28       1.597  1.150  0.320    1.008    Y    Y      Y    ps_6-31g*
  H29       1.597  1.150  0.320    1.008    Y    Y      Y    ps_6-31g*
  H54       1.597  1.150  0.320    1.008    Y    Y      Y    ps_6-31g*
  H31       1.597  1.150  0.320    1.008    Y    Y      Y    ps_6-31g*
  H32       1.597  1.150  0.320    1.008    Y    Y      Y    ps_6-31g*
  H33       1.597  1.150  0.320    1.008    Y    Y      Y    ps_6-31g*
  H34       1.597  1.150  0.320    1.008    Y    Y      Y    ps_6-31g*
  H35       1.597  1.150  0.320    1.008    Y    Y      Y    ps_6-31g*
  H36       1.597  1.150  0.320    1.008    Y    Y      Y    ps_6-31g*
  H61       1.597  1.150  0.320    1.008    Y    Y      Y    ps_6-31g*
  H62       1.597  1.150  0.320    1.008    Y    Y      Y    ps_6-31g*
  H63       1.597  1.150  0.320    1.008    Y    Y      Y    ps_6-31g*
  H64       1.597  1.150  0.320    1.008    Y    Y      Y    ps_6-31g*
  H65       1.597  1.150  0.320    1.008    Y    Y      Y    ps_6-31g*
  H42       1.597  1.150  0.320    1.008    Y    Y      Y    ps_6-31g*
  H43       1.597  1.150  0.320    1.008    Y    Y      Y    ps_6-31g*
  H44       1.597  1.150  0.320    1.008    Y    Y      Y    ps_6-31g*
  H45       1.597  1.150  0.320    1.008    Y    Y      Y    ps_6-31g*
  H46       1.597  1.150  0.320    1.008    Y    Y      Y    ps_6-31g*
  H71       1.597  1.150  0.320    1.008    Y    Y      Y    ps_6-31g*
  H72       1.597  1.150  0.320    1.008    Y    Y      Y    ps_6-31g*
  H73       1.597  1.150  0.320    1.008    Y    Y      Y    ps_6-31g*
 
  atom      formal  2spin      esp    mulk    frag
  P1           0       0        Y    0.000       0
  Pd2          2       0        Y    0.000       0
  N2          -1       0        Y    0.000       0
  C16         -1       0        Y    0.000       0
  
  end of program pre
   
 Time(pre)  user:       0.989  user+sys:       0.989  wallclock:       1.185
  
  start of program onee
  
  smallest eigenvalue of S:    3.515E-04
  number of canonical orbitals.....          594
  end of program onee
   
 Time(onee)  user:       4.204  user+sys:       4.204  wallclock:       2.852
  
  start of program hfig
  
  initial wavefunction generated automatically from atomic wavefunctions
  Only one state below 0.010000
  Skip d-d repulsion considerations 
 
  Irreducible     Total no   No of occupied orbitals 
  representation  orbitals   Shell_1  Shell_2    ...
  No Symm          594        139
  ------------------------
  Orbital occupation/shell    1.000
 
  end of program hfig
   
 Time(hfig)  user:       1.071  user+sys:       1.071  wallclock:       1.233
  
  start of program probe
  
  end of program probe
   
 Time(probe)  user:       0.580  user+sys:       0.580  wallclock:       0.497
  
  start of program grid
  
   grid     grid set  grid #  grid sym
  ------    --------  ------  --------
  coarse        0        0        1
  medium        2        1        1
  fine          0        0        1
  ultrafine     4        2        1
  charge       -1        3        1
  gradient      4        2        1
  density       0        0        1
  DFT-fine    -11        4        1
  DFT-med.    -10        5        1
  DFT-grad    -12        6        1
  DFT-der2     -8        7        1
  DFT-cphf     -9        8        1
  LMP2-enrg     4        2        1
  LMP2-grad     2        1        1
  DFT-cphf2   -15        9        1
  PBF-dens      0        0        1
  plotting      0        0        1
  Rel-grad    -17        0        1
  
  number of gridpoints: 
     atom           P1         Pd2          N2         C16         C17         C18         C19
  grid # 1         523         356         105          78          94          93          98
  grid # 2         366         302         356         329         324         314         355
  grid # 3           6         223           6          42          33          24          21
  grid # 4        8714        8714        8714        8714        8714        8714        8714
  grid # 5        1192        1192        1192        1192        1192        1192        1192
  grid # 6        9132        9132        5922        5922        5922        5922        5922
  grid # 7       23034       32968       13958       13950       13950       13950       13950
  grid # 8         722        1150         756         748         748         748         748
  grid # 9         366        2198         406         394         394         394         394
   
  number of gridpoints: 
     atom          C20         C21         F10         H23         H24         H25         H26
  grid # 1          94          93         585         117          94         100         115
  grid # 2         316         323         565         460         382         419         465
  grid # 3          29          31         369         378          49         176         397
  grid # 4        8714        8714        8714        8714        8714        8714        8714
  grid # 5        1192        1192        1192        1192        1192        1192        1192
  grid # 6        5922        5922        5922        5922        5922        5922        5922
  grid # 7       13950       13950       23190       15206       15206       15206       15206
  grid # 8         748         748         770         786         786         786         786
  grid # 9         394         394         420         420         420         420         420
   
  number of gridpoints: 
     atom          H30         C31         C32         C33         C34         C35         C36
  grid # 1          96          97          97          95          98          96          97
  grid # 2         406         325         325         324         342         321         325
  grid # 3          60          54          53          39          25          37          48
  grid # 4        8714        8714        8714        8714        8714        8714        8714
  grid # 5        1192        1192        1192        1192        1192        1192        1192
  grid # 6        5922        5922        5922        5922        5922        5922        5922
  grid # 7       15206       13950       13950       13950       13950       13950       13950
  grid # 8         786         748         748         748         748         748         748
  grid # 9         420         394         394         394         394         394         394
   
  number of gridpoints: 
     atom          H37         H38         H39         H40         H41          C3          C4
  grid # 1         118         118         112         106         118          90          87
  grid # 2         467         467         455         442         467         350         337
  grid # 3         422         422         245         215         416           6           6
  grid # 4        8714        8714        8714        8714        8714        8714        8714
  grid # 5        1192        1192        1192        1192        1192        1192        1192
  grid # 6        5922        5922        5922        5922        5922        5922        5922
  grid # 7       15206       15206       15206       15206       15206       13950       13950
  grid # 8         786         786         786         786         786         748         748
  grid # 9         420         420         420         420         420         394         394
   
  number of gridpoints: 
     atom           C5          C6          C7          C8          C9         C10         C11
  grid # 1          87          96          90          95          95          93          92
  grid # 2         343         349         316         325         323         318         317
  grid # 3           6          10          18          32          33          30          21
  grid # 4        8714        8714        8714        8714        8714        8714        8714
  grid # 5        1192        1192        1192        1192        1192        1192        1192
  grid # 6        5922        5922        5922        5922        5922        5922        5922
  grid # 7       13950       13950       13950       13950       13950       13950       13950
  grid # 8         748         748         748         748         748         748         748
  grid # 9         394         394         394         394         394         394         394
   
  number of gridpoints: 
     atom          C12         C13         C14         C15         C40         C41         C42
  grid # 1          97          92          96          95          89          78          81
  grid # 2         348         325         322         320         319         248         240
  grid # 3          11          24          33          23           6           6           6
  grid # 4        8714        8714        8714        8714        8714        8714        8714
  grid # 5        1192        1192        1192        1192        1192        1192        1192
  grid # 6        5922        5922        5922        5922        5922        5922        5922
  grid # 7       13950       13950       13950       13950       13950       13950       13950
  grid # 8         748         748         748         748         748         748         748
  grid # 9         394         394         394         394         394         394         394
   
  number of gridpoints: 
     atom          C43         C44         C45         C22         H47         H48         H49
  grid # 1          79          80          81          80          97         117         117
  grid # 2         247         249         240         242         395         463         466
  grid # 3           6           6           6           6         182         381         409
  grid # 4        8714        8714        8714        8714        8714        8714        8714
  grid # 5        1192        1192        1192        1192        1192        1192        1192
  grid # 6        5922        5922        5922        5922        5922        5922        5922
  grid # 7       13950       13950       13950       13950       15206       15206       15206
  grid # 8         748         748         748         748         786         786         786
  grid # 9         394         394         394         394         420         420         420
   
  number of gridpoints: 
     atom          H50         H27         H28         H29         H54         H31         H32
  grid # 1         111         102         116         118         118          88         103
  grid # 2         455         416         459         465         466         361         441
  grid # 3         331         173         363         420         405          34         210
  grid # 4        8714        8714        8714        8714        8714        8714        8714
  grid # 5        1192        1192        1192        1192        1192        1192        1192
  grid # 6        5922        5922        5922        5922        5922        5922        5922
  grid # 7       15206       15206       15206       15206       15206       15206       15206
  grid # 8         786         786         786         786         786         786         786
  grid # 9         420         420         420         420         420         420         420
   
  number of gridpoints: 
     atom          H33         H34         H35         H36         H61         H62         H63
  grid # 1         106          89          96          84         107          94         108
  grid # 2         438         381         392         370         443         397         438
  grid # 3         211          24         162         131         274          64         223
  grid # 4        8714        8714        8714        8714        8714        8714        8714
  grid # 5        1192        1192        1192        1192        1192        1192        1192
  grid # 6        5922        5922        5922        5922        5922        5922        5922
  grid # 7       15206       15206       15206       15206       15206       15206       15206
  grid # 8         786         786         786         786         786         786         786
  grid # 9         420         420         420         420         420         420         420
   
  number of gridpoints: 
     atom          H64         H65         H42         H43         H44         H45         H46
  grid # 1          99          94         100         105          94         108         102
  grid # 2         409         401         415         425         393         445         428
  grid # 3         131          39         160         149          41         254         159
  grid # 4        8714        8714        8714        8714        8714        8714        8714
  grid # 5        1192        1192        1192        1192        1192        1192        1192
  grid # 6        5922        5922        5922        5922        5922        5922        5922
  grid # 7       15206       15206       15206       15206       15206       15206       15206
  grid # 8         786         786         786         786         786         786         786
  grid # 9         420         420         420         420         420         420         420
   
  number of gridpoints: 
     atom          H71         H72         H73       total
  grid # 1          84         102         109        8334
  grid # 2         372         423         447       27424
  grid # 3         117         169         275        9606
  grid # 4        8714        8714        8714      636122
  grid # 5        1192        1192        1192       87016
  grid # 6        5922        5922        5922      438726
  grid # 7       15206       15206       15206     1102172
  grid # 8         786         786         786       56416
  grid # 9         420         420         420       31538
   
  end of program grid
   
 Time(grid)  user:     283.522  user+sys:     283.522  wallclock:     144.060
  
  start of program rwr
  
  end of program rwr
   
 Time(rwr)  user:      19.349  user+sys:      19.349  wallclock:      24.082
  
  start of program scf
  
 number of electrons..........        278
 number of alpha electrons....        139
 number of beta electrons.....        139
 number of orbitals, total....        594
 number of doubly-occ'd orbs..        139
 number of open shell orbs....          0
 number of occupied orbitals..        139
 number of virtual orbitals...        455
 number of hamiltonians.......          1
 number of shells.............          1
 SCF type: DFT=Becke_3_Parameter/HF+Slater+Becke88+PW91+PW-GGAIIC (B3PW91-D3)
 Energy computed using pseudospectral method.
 Convergence Criterion:
    Energy (econv):       1.00E-05
    RMS density (dconv):  5.00E-06
  
       i  u  d  i  g                   
       t  p  i  c  r                                 RMS    maximum
       e  d  i  u  i                       energy  density   DIIS  
       r  t  s  t  d       total energy    change  change    error 
  
etot    1  N  N  5  M   -1858.64700205887           2.2E-03  2.3E-01
etot    2  Y  Y  6  M   -1861.71577446987  3.1E+00  4.1E-03  1.4E-01
etot    3  Y  Y  6  M   -1862.22132368904  5.1E-01  2.2E-03  6.0E-02
etot    4  N  Y  2  U   -1862.97301306622  7.5E-01  1.2E-03  3.6E-02
etot    5  Y  Y  6  M   -1863.17164337811  2.0E-01  7.8E-04  2.1E-02
etot    6  N  Y  2  U   -1863.19197861731  2.0E-02  5.9E-04  9.9E-03
etot    7  Y  Y  6  M   -1863.19052667388 -1.5E-03  1.9E-04  3.7E-03
etot    8  Y  Y  6  M   -1863.19767378934  7.1E-03  6.0E-05  1.5E-03
etot    9  N  Y  2  U   -1863.19909001057  1.4E-03  1.7E-05  1.9E-04
etot   10  N  Y  2  U   -1863.19910745434  1.7E-05  9.8E-06  1.3E-04
etot   11  N  Y  2  U   -1863.19911301834  5.6E-06  4.0E-06  3.2E-05
etot   12  N  N  2  U   -1863.19911382276  8.0E-07  0.0E+00  0.0E+00
 
  Computing the dispersion energy correction and its gradients...
  
  
 Energy components, in hartrees:
   (A)  Nuclear repulsion............    4954.61206516879
   (E)  Total one-electron terms.....  -12459.43805107851
   (F)    Electron-nuclear...........  -14236.04845050993
   (H)    Kinetic....................    1776.61039943142
   (I)  Total two-electron terms.....    5641.62687208696
   (J)    Coulomb....................    5882.81901023847
   (K)    Exchange+Correlation.......    -241.19213815151
   (L)  Electronic energy............   -6817.81117899155  (E+I)
   (N0) D3 correction................      -0.14356526500
   (N)  Total energy.................   -1863.34267908776  (A+L+N0)
   (O)  Gas phase energy.............   -1863.34267908776
  
 SCFE: SCF energy: DFT(b3pw91-d3)     -1863.34267908776 hartrees   iterations:  12
  
 
 HOMO energy:    -0.16684
 LUMO energy:    -0.05906
 
  Orbital energies (hartrees): 
   -77.03031   -24.68158   -14.24924   -10.24099   -10.21545   -10.20364
   -10.19726   -10.19536   -10.19439   -10.19150   -10.18913   -10.18689
   -10.18261   -10.18175   -10.18172   -10.17796   -10.17465   -10.17454
   -10.17117   -10.16791   -10.16718   -10.16456   -10.16375   -10.16347
   -10.15767   -10.15754   -10.15557   -10.15461   -10.15444   -10.15075
   -10.14860   -10.14454   -10.14436   -10.14262   -10.12926    -6.56307
    -4.71869    -4.71826    -4.71696    -3.32857    -2.06202    -2.05825
    -2.02926    -1.21817    -0.93709    -0.88308    -0.86564    -0.85780
    -0.85048    -0.82800    -0.80390    -0.79508    -0.78887    -0.76511
    -0.76067    -0.74751    -0.73987    -0.73523    -0.72533    -0.70176
    -0.69037    -0.68555    -0.67920    -0.67730    -0.65041    -0.63164
    -0.62924    -0.60817    -0.60113    -0.59756    -0.58875    -0.58183
    -0.56970    -0.55880    -0.54315    -0.53666    -0.52387    -0.50738
    -0.50268    -0.49477    -0.48895    -0.48490    -0.47886    -0.47486
    -0.46809    -0.46652    -0.46351    -0.45428    -0.45297    -0.45068
    -0.44774    -0.44577    -0.44062    -0.43148    -0.42889    -0.41719
    -0.40923    -0.40532    -0.40255    -0.40060    -0.39782    -0.39663
    -0.39414    -0.38887    -0.38225    -0.38039    -0.37864    -0.37426
    -0.37178    -0.36313    -0.36129    -0.35695    -0.34787    -0.34537
    -0.33679    -0.33215    -0.32861    -0.32797    -0.32094    -0.31869
    -0.31481    -0.31251    -0.30766    -0.30248    -0.29329    -0.28233
    -0.27500    -0.26789    -0.26588    -0.25586    -0.25314    -0.25145
    -0.24146    -0.24090    -0.23075    -0.20967    -0.19929    -0.18098
    -0.16684    -0.05906    -0.04624    -0.03616    -0.01844    -0.01253
    -0.00132     0.00929     0.01386     0.02419     0.04722
 
  end of program scf
   
 Time(scf)  user:     468.900  user+sys:     468.900  wallclock:     249.472
  
  start of program der1a
  
  end of program der1a
   
 Time(der1a)  user:      13.047  user+sys:      13.047  wallclock:       7.249
  
  start of program rwr
  
  end of program rwr
   
 Time(rwr)  user:      20.045  user+sys:      20.045  wallclock:      26.001
  
  start of program der1b
  
   
  forces (hartrees/bohr) : total     
   
 atom  label           x              y              z
 ---- --------   -------------  -------------  -------------
    1 P1          2.002409E-03   5.960198E-03   2.792150E-01
    2 Pd2         6.414136E-03   6.797179E-03   1.930494E-02
    3 N2          1.656250E-02  -3.104292E-02   5.569099E-02
    4 C16        -5.210506E-03  -3.095733E-02  -8.500136E-03
    5 C17         4.426749E-03   4.580167E-03   1.367769E-05
    6 C18        -4.721917E-03   2.024179E-02   3.232774E-02
    7 C19        -2.148775E-03  -1.562305E-02   7.148291E-02
    8 C20        -7.719302E-03   1.957471E-02   5.268574E-02
    9 C21        -5.005294E-03   5.180945E-03   2.925987E-03
   10 F10         1.164516E-03   6.735368E-03   1.727113E-03
   11 H23        -1.214907E-03   1.392746E-03  -8.107958E-04
   12 H24        -4.335739E-02   3.161348E-02  -4.305117E-03
   13 H25         8.149306E-03   1.696280E-02   1.133806E-02
   14 H26         2.103092E-03   4.727439E-05  -7.710975E-05
   15 H30        -6.722270E-02   1.693740E-02  -1.416076E-02
   16 C31        -2.945322E-03  -4.662609E-04   2.229485E-03
   17 C32         5.557026E-05   6.848966E-04   7.859636E-04
   18 C33        -1.243930E-02  -2.793798E-03   9.708194E-03
   19 C34         3.279460E-02   4.179017E-03  -4.370346E-05
   20 C35        -1.011318E-02  -1.228973E-02   7.299619E-03
   21 C36         1.910800E-03   1.496231E-03  -8.534014E-04
   22 H37         8.264914E-03   3.129088E-03  -5.386863E-03
   23 H38         1.522524E-03  -4.094819E-03  -8.993116E-03
   24 H39        -4.721422E-03  -7.206858E-03  -4.773690E-03
   25 H40         7.021095E-04   2.872696E-03   1.493364E-02
   26 H41         6.502886E-03   6.721293E-03   3.900642E-03
   27 C3          2.730213E-01   1.336961E-02  -9.008525E-02
   28 C4         -1.466675E-01   2.581064E-01  -8.504006E-02
   29 C5         -1.248853E-01  -2.675483E-01  -9.175764E-02
   30 C6         -4.920195E-04  -7.116607E-03   6.441572E-02
   31 C7          3.621023E-02  -9.632414E-03   9.504276E-03
   32 C8          6.071324E-04  -3.878160E-03   2.205834E-03
   33 C9         -1.851542E-03   1.613988E-04   2.213757E-04
   34 C10         1.411888E-02   4.054356E-03   5.355074E-03
   35 C11         2.248252E-02  -1.357717E-02  -1.364026E-03
   36 C12         1.981488E-02   1.179273E-02  -6.320047E-02
   37 C13         1.574982E-02   7.003475E-04  -2.633116E-03
   38 C14        -3.737661E-03   1.017430E-03  -2.411812E-03
   39 C15         1.632511E-04  -1.194516E-03   3.891107E-03
   40 C40         3.240642E-02  -2.157132E-03  -2.338255E-02
   41 C41         1.053586E-02   2.483340E-02  -5.868278E-02
   42 C42        -3.123435E-02   5.274740E-02  -2.087460E-02
   43 C43        -3.558110E-02   3.127020E-03  -1.227481E-03
   44 C44        -3.001117E-02  -9.238953E-03  -1.502102E-03
   45 C45         2.118662E-02  -3.303117E-02  -1.035356E-02
   46 C22        -1.378864E-02  -4.490935E-02  -1.928322E-02
   47 H47         2.780892E-02  -3.086448E-02  -9.214166E-03
   48 H48        -3.888778E-03  -5.957484E-03  -9.532669E-03
   49 H49        -1.035007E-03   1.759964E-03  -1.073810E-02
   50 H50         3.230330E-03   8.061087E-03  -6.411184E-03
   51 H27         1.204835E-02   8.844482E-03  -8.844439E-03
   52 H28        -1.017250E-02  -1.522598E-03   1.156918E-02
   53 H29        -7.993902E-03  -7.845916E-04   8.506343E-03
   54 H54        -1.944251E-03  -1.803808E-03   1.069829E-02
   55 H31         3.579157E-02  -1.434721E-02   1.574204E-02
   56 H32        -9.094779E-03  -1.826121E-03   1.306162E-03
   57 H33         1.229242E-03  -1.156146E-02   1.743648E-03
   58 H34         1.010770E-03   8.616385E-03  -8.466239E-02
   59 H35        -3.066712E-02   1.625363E-02   5.863322E-03
   60 H36         8.637063E-03   7.695064E-02   2.802923E-03
   61 H61         7.663791E-03  -3.878440E-03   9.076305E-03
   62 H62        -8.249712E-03  -1.792648E-02  -2.971548E-02
   63 H63         8.680847E-03  -6.787057E-03  -1.958679E-03
   64 H64         8.433196E-03   2.226188E-02  -1.963165E-04
   65 H65        -1.086768E-02   6.892864E-03  -3.772992E-02
   66 H42         8.834704E-03  -1.900480E-02  -1.621567E-03
   67 H43         7.223706E-03   1.178073E-02  -3.108108E-03
   68 H44        -1.759152E-02   5.135892E-04  -2.174391E-02
   69 H45        -2.196013E-03   1.101681E-02   3.517799E-03
   70 H46        -1.521567E-02  -9.090672E-03   7.391275E-04
   71 H71         1.168714E-02  -7.764348E-02   6.115445E-03
   72 H72        -1.404222E-02  -3.966908E-03   5.491500E-03
   73 H73         8.612384E-03   4.076343E-03   9.041844E-03
 -------------   -------------  -------------  -------------
     total        1.736546E-03  -1.678348E-03  -1.803289E-03
   
  end of program der1b
   
 Time(der1b)  user:     154.871  user+sys:     154.871  wallclock:      82.141
  
  start of program geopt
  
 ----------------------------------------------------------------------------
  Geometry optimization step  1
  Total energy:     -1863.34267908776 hartrees
 ----------------------------------------------------------------------------
  
  
  Level shifts adjusted to satisfy step-size constraints
   Step size:    0.3000443
   Cos(theta):   0.8818729
   Final level shift:  -2.7478437E+00
  
  gradient maximum:        5.3237E-01 .  (  2.2500E-03 )
  gradient rms:            1.0161E-01 .  (  1.5000E-03 )
  displacement maximum:    1.3064E-01 .  (  9.0000E-03 )
  displacement rms:        1.9046E-02 .  (  6.0000E-03 )
  
  predicted energy change:  -3.3528E-01
  step size:     0.29994
  trust radius:  0.30000
  
  molecular structure not yet converged...
  
  center of mass moved by:
     x:    -2.8860E-02     y:     3.6920E-02     z:     3.3425E-02
  
  new geometry: 
                                   angstroms
  atom               x                 y                 z
  P1            0.0017420635     -0.0184458499     -0.0466379592 
  Pd2          -0.0860102114      0.0604138152      2.1828792502 
  N2           -0.2424083740     -2.0061718983      2.3842711694 
  C16           0.5438659610      4.8768745166      2.8292492208 
  C17           1.6279239612      4.0128585599      2.6641314286 
  C18           1.4278045429      2.6581124548      2.3913288653 
  C19           0.1455804636      2.0917483595      2.2957975907 
  C20          -0.9341959660      2.9896052095      2.4401557349 
  C21          -0.7432504139      4.3434189080      2.7107840460 
  F10           0.7227848838      6.1772418601      3.0680194529 
  H23           2.6414116606      4.4057654412      2.7485186288 
  H24           2.2960970885      2.0170025875      2.2621603177 
  H25          -1.9566545395      2.6306289208      2.3462216531 
  H26          -1.6050839439      4.9999838387      2.8327579151 
  H30           0.6450220598     -2.3148853081      2.9371601147 
  C31          -3.6249516616     -3.2777087793      4.6329386811 
  C32          -2.7564038794     -2.3130118616      5.1662034200 
  C33          -1.6398798619     -1.8902087778      4.4291349267 
  C34          -1.3918480457     -2.4322711523      3.1576993923 
  C35          -2.2611083550     -3.3978788003      2.6253535691 
  C36          -3.3769255500     -3.8197858540      3.3630563841 
  H37          -4.5015813687     -3.6094733710      5.2117568209 
  H38          -2.9515880976     -1.8875866301      6.1636045513 
  H39          -0.9570823144     -1.1331897465      4.8469867247 
  H40          -2.0646819382     -3.8256089450      1.6302270992 
  H41          -4.0588262021     -4.5771870584      2.9446831412 
  C3            1.4869427347     -0.0490938180     -0.5451013461 
  C4           -0.7331899664      1.2468339879     -0.6099036984 
  C5           -0.6344563891     -1.3527724938     -0.5729443471 
  C6            2.9014879566     -0.5310575920      1.6054676877 
  C7            3.4333545093      0.4399877521      2.4904239082 
  C8            3.6677545218      0.2215307954      3.8566398816 
  C9            3.3901010607     -1.0189380407      4.4352879047 
  C10           2.8680478590     -2.0150613245      3.6081821816 
  C11           2.6372961757     -1.7613719488      2.2474747165 
  C12           2.7047908038     -0.2823274794      0.1953582428 
  C13           3.8831497849     -0.2753201109     -0.5931620746 
  C14           3.9362825045     -0.0668918866     -1.9739209457 
  C15           2.7537593191      0.1511437735     -2.6692496580 
  C40           1.5661632264      0.1522612106     -1.9390142784 
  C41           0.0757793072      2.5109461671     -0.2555765441 
  C42          -1.1320674482      1.4162241226     -2.0952536255 
  C43          -2.0976506213      1.3707998745      0.1109456436 
  C44          -1.9143666409     -1.7656281809      0.1822006329 
  C45           0.3769849833     -2.4945023231     -0.3094515785 
  C22          -0.9628820445     -1.5025143498     -2.0741485961 
  H47           3.7125528635      1.4479944599      2.1707472501 
  H48           4.0842414057      1.0270847882      4.4823708144 
  H49           3.5699418339     -1.2036554336      5.5058159235 
  H50           2.6380791706     -3.0051479640      4.0337207180 
  H27           2.2289242165     -2.6202828794      1.7198606033 
  H28           4.8802268589     -0.4367828250     -0.1700409579 
  H29           4.8987767812     -0.0774710238     -2.5102157181 
  H54           2.7547238818      0.3173435717     -3.7580522136 
  H31           0.6669879137      0.3178855081     -2.5310503162 
  H32           1.0324276622      2.5596136315     -0.8181946723 
  H33          -0.4865293022      3.4391654132     -0.4987060309 
  H34           0.3169222805      2.5360770799      0.8314636141 
  H35          -0.2743611831      1.4585136822     -2.7909972608 
  H36          -1.8156651858      0.6146763317     -2.4367784839 
  H61          -1.6767757278      2.3743512695     -2.2456828485 
  H62          -1.9774771739      1.3749534335      1.2138163248 
  H63          -2.6264292197      2.3104098264     -0.1631486715 
  H64          -2.7798932403      0.5347327943     -0.1442377425 
  H65          -1.7570801313     -1.7474910253      1.2792945857 
  H42          -2.7705747222     -1.1027565860     -0.0521380125 
  H43          -2.2349904683     -2.7941725505     -0.0924836873 
  H44           0.6149518575     -2.5816054751      0.7711940752 
  H45          -0.0195705070     -3.4796132161     -0.6405119825 
  H46           1.3318392436     -2.3301170023     -0.8541358469 
  H71          -1.6872688670     -0.7450855930     -2.4291485252 
  H72          -0.0543290067     -1.4431878444     -2.7087569511 
  H73          -1.4151584138     -2.4972616354     -2.2814742114 
   
 
  bond lengths (angstroms):
 
 P1      -Pd2     :   2.232637      P1      -C3      :   1.566916
 P1      -C4      :   1.567905      P1      -C5      :   1.569132
 Pd2     -N2      :   2.082257      Pd2     -C19     :   2.047610
 N2      -H30     :   1.090194      N2      -C34     :   1.449470
 C16     -C17     :   1.396055      C16     -C21     :   1.398312
 C16     -F10     :   1.334158      C17     -C18     :   1.396355
 C17     -H23     :   1.090254      C18     -C19     :   1.404989
 C18     -H24     :   1.087032      C19     -C20     :   1.411702
 C20     -C21     :   1.393740      C20     -H25     :   1.087708
 C21     -H26     :   1.090281      C31     -C32     :   1.403348
 C31     -C36     :   1.402842      C31     -H37     :   1.101625
 C32     -C33     :   1.403089      C32     -H38     :   1.101768
 C33     -C34     :   1.404243      C33     -H39     :   1.101767
 C34     -C35     :   1.404067      C35     -C36     :   1.402590
 C35     -H40     :   1.100824      C36     -H41     :   1.101672
 C3      -C12     :   1.444241      C3      -C40     :   1.410607
 C4      -C41     :   1.542063      C4      -C42     :   1.547275
 C4      -C43     :   1.548142      C5      -C44     :   1.542357
 C5      -C45     :   1.547898      C5      -C22     :   1.543988
 C6      -C7      :   1.417377      C6      -C11     :   1.412673
 C6      -C12     :   1.445325      C7      -C8      :   1.403286
 C7      -H47     :   1.093720      C8      -C9      :   1.396670
 C8      -H48     :   1.101779      C9      -C10     :   1.396032
 C9      -H49     :   1.101133      C10     -C11     :   1.403257
 C10     -H50     :   1.101926      C11     -H27     :   1.087599
 C12     -C13     :   1.417866      C13     -C14     :   1.397412
 C13     -H28     :   1.095109      C14     -C15     :   1.389022
 C14     -H29     :   1.101871      C15     -C40     :   1.394141
 C15     -H54     :   1.101415      C40     -H31     :   1.089245
 C41     -H32     :   1.110893      C41     -H33     :   1.112157
 C41     -H34     :   1.113749      C42     -H35     :   1.105218
 C42     -H36     :   1.107440      C42     -H61     :   1.112360
 C43     -H62     :   1.109406      C43     -H63     :   1.112475
 C43     -H64     :   1.108865      C44     -H65     :   1.108460
 C44     -H42     :   1.107883      C44     -H43     :   1.111825
 C45     -H44     :   1.109960      C45     -H45     :   1.112340
 C45     -H46     :   1.111508      C22     -H71     :   1.106553
 C22     -H72     :   1.109827      C22     -H73     :   1.112232
 
  bond angles:
 
 C3      -P1      -Pd2     : 110.831352  C4      -P1      -Pd2     : 108.168840
 C4      -P1      -C3      : 110.230126  C5      -P1      -Pd2     : 110.428847
 C5      -P1      -C3      : 105.127557  C5      -P1      -C4      : 112.066775
 N2      -Pd2     -P1      :  93.696974  C19     -Pd2     -P1      :  94.914238
 C19     -Pd2     -N2      : 171.021423  H30     -N2      -Pd2     : 105.601894
 C34     -N2      -Pd2     : 113.761309  C34     -N2      -H30     : 106.957482
 C21     -C16     -C17     : 117.945788  F10     -C16     -C17     : 121.349345
 F10     -C16     -C21     : 120.693217  C18     -C17     -C16     : 120.815596
 H23     -C17     -C16     : 119.317307  H23     -C17     -C18     : 119.867018
 C19     -C18     -C17     : 122.355746  H24     -C18     -C17     : 118.747083
 H24     -C18     -C19     : 118.891555  C18     -C19     -Pd2     : 120.455916
 C20     -C19     -Pd2     : 123.372801  C20     -C19     -C18     : 115.766706
 C21     -C20     -C19     : 122.198664  H25     -C20     -C19     : 120.017112
 H25     -C20     -C21     : 117.783260  C20     -C21     -C16     : 120.872470
 H26     -C21     -C16     : 119.235060  H26     -C21     -C20     : 119.892470
 C36     -C31     -C32     : 120.012200  H37     -C31     -C32     : 119.991522
 H37     -C31     -C36     : 119.996277  C33     -C32     -C31     : 120.002266
 H38     -C32     -C31     : 119.986152  H38     -C32     -C33     : 120.011581
 C34     -C33     -C32     : 119.991396  H39     -C33     -C32     : 120.064473
 H39     -C33     -C34     : 119.944130  C33     -C34     -N2      : 120.645206
 C35     -C34     -N2      : 119.393911  C35     -C34     -C33     : 119.960846
 C36     -C35     -C34     : 119.998459  H40     -C35     -C34     : 119.966195
 H40     -C35     -C36     : 120.035095  C35     -C36     -C31     : 120.034816
 H41     -C36     -C31     : 119.999553  H41     -C36     -C35     : 119.965630
 C12     -C3      -P1      : 129.741818  C40     -C3      -P1      : 111.394805
 C40     -C3      -C12     : 118.837376  C41     -C4      -P1      : 109.456182
 C42     -C4      -P1      : 123.645472  C42     -C4      -C41     : 105.430775
 C43     -C4      -P1      : 108.087343  C43     -C4      -C41     : 106.841830
 C43     -C4      -C42     : 102.181755  C44     -C5      -P1      : 113.569379
 C45     -C5      -P1      : 107.770152  C45     -C5      -C44     : 105.156630
 C22     -C5      -P1      : 119.658722  C22     -C5      -C44     : 105.876198
 C22     -C5      -C45     : 103.471779  C11     -C6      -C7      : 112.525228
 C12     -C6      -C7      : 122.841457  C12     -C6      -C11     : 124.598076
 C8      -C7      -C6      : 124.325583  H47     -C7      -C6      : 123.004846
 H47     -C7      -C8      : 112.668442  C9      -C8      -C7      : 120.558589
 H48     -C8      -C7      : 120.148734  H48     -C8      -C9      : 119.289453
 C10     -C9      -C8      : 117.556033  H49     -C9      -C8      : 121.286184
 H49     -C9      -C10     : 121.156668  C11     -C10     -C9      : 120.464180
 H50     -C10     -C9      : 119.364530  H50     -C10     -C11     : 120.171290
 C10     -C11     -C6      : 124.567635  H27     -C11     -C6      : 122.516282
 H27     -C11     -C10     : 112.915927  C6      -C12     -C3      : 129.997668
 C13     -C12     -C3      : 114.511578  C13     -C12     -C6      : 115.488430
 C14     -C13     -C12     : 125.580132  H28     -C13     -C12     : 122.757148
 H28     -C13     -C14     : 111.662680  C15     -C14     -C13     : 119.056117
 H29     -C14     -C13     : 120.843406  H29     -C14     -C15     : 120.100154
 C40     -C15     -C14     : 117.589331  H54     -C15     -C14     : 121.184611
 H54     -C15     -C40     : 121.226056  C15     -C40     -C3      : 124.424208
 H31     -C40     -C3      : 120.826515  H31     -C40     -C15     : 114.748178
 H32     -C41     -C4      : 111.796082  H33     -C41     -C4      : 111.635782
 H33     -C41     -H32     : 106.745420  H34     -C41     -C4      : 110.875930
 H34     -C41     -H32     : 107.870676  H34     -C41     -H33     : 107.698364
 H35     -C42     -C4      : 114.106972  H36     -C42     -C4      : 112.082516
 H36     -C42     -H35     : 108.215914  H61     -C42     -C4      : 110.509171
 H61     -C42     -H35     : 105.184804  H61     -C42     -H36     : 106.227453
 H62     -C43     -C4      : 111.574373  H63     -C43     -C4      : 111.828695
 H63     -C43     -H62     : 107.052997  H64     -C43     -C4      : 112.007945
 H64     -C43     -H62     : 107.352162  H64     -C43     -H63     : 106.719092
 H65     -C44     -C5      : 111.250922  H42     -C44     -C5      : 112.185645
 H42     -C44     -H65     : 108.012380  H43     -C44     -C5      : 111.467545
 H43     -C44     -H65     : 107.492463  H43     -C44     -H42     : 106.163648
 H44     -C45     -C5      : 111.327798  H45     -C45     -C5      : 111.692112
 H45     -C45     -H44     : 107.259425  H46     -C45     -C5      : 111.643571
 H46     -C45     -H44     : 107.729792  H46     -C45     -H45     : 106.941179
 H71     -C22     -C5      : 112.630711  H72     -C22     -C5      : 112.125917
 H72     -C22     -H71     : 108.413733  H73     -C22     -C5      : 110.761347
 H73     -C22     -H71     : 106.629997  H73     -C22     -H72     : 105.909180
 
  torsional angles:
 
 P1      -Pd2     -N2      -H30     : 117.721411
 P1      -Pd2     -N2      -C34     :-125.290754
 P1      -Pd2     -C19     -C18     : -90.189894
 P1      -Pd2     -C19     -C20     :  97.424809
 P1      -C3      -C12     -C6      :  -1.148905
 P1      -C3      -C12     -C13     : 178.263770
 P1      -C3      -C40     -C15     :-178.729156
 P1      -C3      -C40     -H31     :   0.868943
 P1      -C4      -C41     -H32     :  69.260228
 P1      -C4      -C41     -H33     :-171.238736
 P1      -C4      -C41     -H34     : -51.152663
 P1      -C4      -C42     -H35     : -64.006262
 P1      -C4      -C42     -H36     :  59.437412
 P1      -C4      -C42     -H61     : 177.714888
 P1      -C4      -C43     -H62     :  54.044010
 P1      -C4      -C43     -H63     : 173.917658
 P1      -C4      -C43     -H64     : -66.336433
 P1      -C5      -C44     -H65     : -50.065922
 P1      -C5      -C44     -H42     :  71.058810
 P1      -C5      -C44     -H43     :-170.032103
 P1      -C5      -C45     -H44     :  58.934102
 P1      -C5      -C45     -H45     : 178.808529
 P1      -C5      -C45     -H46     : -61.506531
 P1      -C5      -C22     -H71     : -60.131179
 P1      -C5      -C22     -H72     :  62.479840
 P1      -C5      -C22     -H73     :-179.447794
 Pd2     -P1      -C3      -C12     :  12.913870
 Pd2     -P1      -C3      -C40     :-168.995431
 Pd2     -P1      -C4      -C41     :  67.582274
 Pd2     -P1      -C4      -C42     :-167.382480
 Pd2     -P1      -C4      -C43     : -48.434042
 Pd2     -P1      -C5      -C44     :  40.652262
 Pd2     -P1      -C5      -C45     : -75.410942
 Pd2     -P1      -C5      -C22     : 166.942267
 Pd2     -N2      -C34     -C33     : -51.733912
 Pd2     -N2      -C34     -C35     : 128.336351
 Pd2     -C19     -C18     -C17     :-170.504853
 Pd2     -C19     -C18     -H24     :   8.621704
 Pd2     -C19     -C20     -C21     : 170.371862
 Pd2     -C19     -C20     -H25     :  -9.262924
 N2      -Pd2     -P1      -C3      : -93.664903
 N2      -Pd2     -P1      -C4      : 145.387054
 N2      -Pd2     -P1      -C5      :  22.418712
 N2      -Pd2     -C19     -C18     :  73.318104
 N2      -Pd2     -C19     -C20     : -99.067193
 N2      -C34     -C33     -C32     :-179.974423
 N2      -C34     -C33     -H39     :   0.014793
 N2      -C34     -C35     -C36     : 179.975163
 N2      -C34     -C35     -H40     :   0.157059
 C16     -C17     -C18     -C19     :  -1.291748
 C16     -C17     -C18     -H24     : 179.580484
 C16     -C21     -C20     -C19     :   1.098526
 C16     -C21     -C20     -H25     :-179.258910
 C17     -C16     -C21     -C20     :   0.189984
 C17     -C16     -C21     -H26     :-179.812419
 C17     -C18     -C19     -C20     :   2.436885
 C18     -C17     -C16     -C21     :  -0.100125
 C18     -C17     -C16     -F10     :-178.866587
 C18     -C19     -C20     -C21     :  -2.341218
 C18     -C19     -C20     -H25     : 178.023996
 C19     -Pd2     -P1      -C3      :  83.790534
 C19     -Pd2     -P1      -C4      : -37.157509
 C19     -Pd2     -P1      -C5      :-160.125851
 C19     -Pd2     -N2      -H30     : -45.813697
 C19     -Pd2     -N2      -C34     :  71.174138
 C19     -C18     -C17     -H23     : 178.810684
 C19     -C20     -C21     -H26     :-178.899055
 C20     -C19     -C18     -H24     :-178.436558
 C20     -C21     -C16     -F10     : 178.964913
 C21     -C16     -C17     -H23     : 179.798000
 F10     -C16     -C17     -H23     :   1.031537
 F10     -C16     -C21     -H26     :  -1.037490
 H23     -C17     -C18     -H24     :  -0.317084
 H25     -C20     -C21     -H26     :   0.743508
 H30     -N2      -C34     -C33     :  64.463083
 H30     -N2      -C34     -C35     :-115.466654
 C31     -C32     -C33     -C34     :   0.014427
 C31     -C32     -C33     -H39     :-179.974776
 C31     -C36     -C35     -C34     :  -0.014126
 C31     -C36     -C35     -H40     : 179.803851
 C32     -C31     -C36     -C35     :  -0.016565
 C32     -C31     -C36     -H41     : 179.992030
 C32     -C33     -C34     -C35     :  -0.045084
 C33     -C32     -C31     -C36     :   0.016409
 C33     -C32     -C31     -H37     :-179.994351
 C33     -C34     -C35     -C36     :   0.044938
 C33     -C34     -C35     -H40     :-179.773166
 C34     -C33     -C32     -H38     :-179.971387
 C34     -C35     -C36     -H41     : 179.977282
 C35     -C34     -C33     -H39     : 179.944133
 C35     -C36     -C31     -H37     : 179.994196
 C36     -C31     -C32     -H38     :-179.997773
 H37     -C31     -C32     -H38     :  -0.008533
 H37     -C31     -C36     -H41     :   0.002791
 H38     -C32     -C33     -H39     :   0.039409
 H40     -C35     -C36     -H41     :  -0.204741
 C3      -P1      -C4      -C41     : -53.738512
 C3      -P1      -C4      -C42     :  71.296734
 C3      -P1      -C4      -C43     :-169.754828
 C3      -P1      -C5      -C44     : 160.242931
 C3      -P1      -C5      -C45     :  44.179727
 C3      -P1      -C5      -C22     : -73.467064
 C3      -C12     -C6      -C7      :-105.991579
 C3      -C12     -C6      -C11     :  76.330810
 C3      -C12     -C13     -C14     :   0.006685
 C3      -C12     -C13     -H28     : 179.927742
 C3      -C40     -C15     -C14     :   0.179995
 C3      -C40     -C15     -H54     :-179.805118
 C4      -P1      -C3      -C12     : 132.635173
 C4      -P1      -C3      -C40     : -49.274127
 C4      -P1      -C5      -C44     : -80.014233
 C4      -P1      -C5      -C45     : 163.922563
 C4      -P1      -C5      -C22     :  46.275772
 C5      -P1      -C3      -C12     :-106.408489
 C5      -P1      -C3      -C40     :  71.682210
 C5      -P1      -C4      -C41     :-170.450373
 C5      -P1      -C4      -C42     : -45.415126
 C5      -P1      -C4      -C43     :  73.533311
 C6      -C7      -C8      -C9      :   0.669849
 C6      -C7      -C8      -H48     :-179.988001
 C6      -C11     -C10     -C9      :   0.203327
 C6      -C11     -C10     -H50     :-179.788708
 C6      -C12     -C3      -C40     :-179.119468
 C6      -C12     -C13     -C14     : 179.508242
 C6      -C12     -C13     -H28     :  -0.570701
 C7      -C6      -C11     -C10     :   0.007752
 C7      -C6      -C11     -H27     :-179.838475
 C7      -C6      -C12     -C13     :  74.600435
 C7      -C8      -C9      -C10     :  -0.414751
 C7      -C8      -C9      -H49     : 179.965048
 C8      -C7      -C6      -C11     :  -0.441110
 C8      -C7      -C6      -C12     :-178.371655
 C8      -C9      -C10     -C11     :   0.005165
 C8      -C9      -C10     -H50     : 179.997264
 C9      -C8      -C7      -H47     :-178.952923
 C9      -C10     -C11     -H27     :-179.937451
 C10     -C9      -C8      -H48     :-179.762510
 C10     -C11     -C6      -C12     : 177.895490
 C11     -C6      -C7      -H47     : 179.143819
 C11     -C6      -C12     -C13     :-103.077176
 C11     -C10     -C9      -H49     : 179.625886
 C12     -C3      -C40     -C15     :  -0.405041
 C12     -C3      -C40     -H31     : 179.193058
 C12     -C6      -C7      -H47     :   1.213275
 C12     -C6      -C11     -H27     :  -1.950737
 C12     -C13     -C14     -C15     :  -0.228602
 C12     -C13     -C14     -H29     : 179.977908
 C13     -C12     -C3      -C40     :   0.293207
 C13     -C14     -C15     -C40     :   0.133634
 C13     -C14     -C15     -H54     :-179.881248
 C14     -C15     -C40     -H31     :-179.439981
 C15     -C14     -C13     -H28     : 179.842832
 C40     -C15     -C14     -H29     : 179.928694
 C41     -C4      -C42     -H35     :  62.776306
 C41     -C4      -C42     -H36     :-173.780020
 C41     -C4      -C42     -H61     : -55.502543
 C41     -C4      -C43     -H62     : -63.664425
 C41     -C4      -C43     -H63     :  56.209223
 C41     -C4      -C43     -H64     : 175.955132
 C42     -C4      -C41     -H32     : -65.738272
 C42     -C4      -C41     -H33     :  53.762765
 C42     -C4      -C41     -H34     : 173.848838
 C42     -C4      -C43     -H62     :-174.136442
 C42     -C4      -C43     -H63     : -54.262794
 C42     -C4      -C43     -H64     :  65.483115
 C43     -C4      -C41     -H32     :-173.934410
 C43     -C4      -C41     -H33     : -54.433374
 C43     -C4      -C41     -H34     :  65.652699
 C43     -C4      -C42     -H35     : 174.311667
 C43     -C4      -C42     -H36     : -62.244659
 C43     -C4      -C42     -H61     :  56.032817
 C44     -C5      -C45     -H44     : -62.521674
 C44     -C5      -C45     -H45     :  57.352753
 C44     -C5      -C45     -H46     : 177.037693
 C44     -C5      -C22     -H71     :  69.686290
 C44     -C5      -C22     -H72     :-167.702691
 C44     -C5      -C22     -H73     : -49.630325
 C45     -C5      -C44     -H65     :  67.524658
 C45     -C5      -C44     -H42     :-171.350611
 C45     -C5      -C44     -H43     : -52.441524
 C45     -C5      -C22     -H71     :-179.970017
 C45     -C5      -C22     -H72     : -57.358998
 C45     -C5      -C22     -H73     :  60.713368
 C22     -C5      -C44     -H65     : 176.670574
 C22     -C5      -C44     -H42     : -62.204695
 C22     -C5      -C44     -H43     :  56.704392
 C22     -C5      -C45     -H44     :-173.396603
 C22     -C5      -C45     -H45     : -53.522176
 C22     -C5      -C45     -H46     :  66.162764
 H47     -C7      -C8      -H48     :   0.389228
 H48     -C8      -C9      -H49     :   0.617290
 H49     -C9      -C10     -H50     :  -0.382016
 H50     -C10     -C11     -H27     :   0.070514
 H28     -C13     -C14     -H29     :   0.049342
 H29     -C14     -C15     -H54     :  -0.086187
 H54     -C15     -C40     -H31     :   0.574906
 
  nuclear repulsion energy.......          4836.287459998 hartrees
 -------------------------------------------------
   end of geometry optimization iteration  1
 -------------------------------------------------
   
  end of program geopt
   
 Time(geopt)  user:       0.711  user+sys:       0.711  wallclock:       0.936
  
  start of program onee
  
  smallest eigenvalue of S:    4.008E-04
  number of canonical orbitals.....          595
  end of program onee
   
 Time(onee)  user:       4.330  user+sys:       4.330  wallclock:       3.232
  
  start of program probe
  
  end of program probe
   
 Time(probe)  user:       0.556  user+sys:       0.556  wallclock:       0.525
  
  start of program grid
  
  end of program grid
   
 Time(grid)  user:     282.949  user+sys:     282.949  wallclock:     144.259
  
  start of program rwr
  
  end of program rwr
   
 Time(rwr)  user:      18.410  user+sys:      18.410  wallclock:      23.398
  
  start of program scf
  
 Energy computed using pseudospectral method.
 Convergence Criterion:
    Energy (econv):       1.00E-05
    RMS density (dconv):  5.00E-06
  
       i  u  d  i  g                   
       t  p  i  c  r                                 RMS    maximum
       e  d  i  u  i                       energy  density   DIIS  
       r  t  s  t  d       total energy    change  change    error 
  
[...]
    H64      Z     0.00025  -0.00003  -0.00002  -0.00005  -0.00002   0.00003
    H65      X    -0.00032  -0.00245  -0.00000   0.00012   0.00002   0.00004
    H65      Y     0.00005  -0.00064  -0.00003  -0.00003   0.00001  -0.00000
    H65      Z     0.00098   0.00920   0.00010  -0.00030  -0.00032  -0.00005
    H42      X     0.00102   0.00988   0.00055  -0.00040  -0.00019  -0.00024
    H42      Y    -0.00094  -0.00921  -0.00056   0.00043   0.00019   0.00023
    H42      Z     0.00050   0.00518   0.00030  -0.00028  -0.00009  -0.00015
    H43      X    -0.00002  -0.00055   0.00007  -0.00004  -0.00001   0.00001
    H43      Y    -0.00029  -0.00044   0.00027  -0.00004   0.00002   0.00004
    H43      Z    -0.00030  -0.00115   0.00010   0.00002   0.00004   0.00003
    H44      X    -0.00232  -0.09710  -0.00119  -0.00193   0.00230   0.00033
    H44      Y    -0.00195  -0.08231  -0.00098  -0.00153   0.00177   0.00024
    H44      Z     0.01440   0.61344   0.00734   0.01210  -0.01334  -0.00138
    H45      X     0.00052   0.02463   0.00041   0.00036  -0.00064  -0.00020
    H45      Y     0.00162   0.07307   0.00123   0.00103  -0.00197  -0.00055
    H45      Z     0.00089   0.03489   0.00065   0.00039  -0.00096  -0.00037
    H46      X    -0.00492  -0.17866  -0.00172  -0.00361   0.00202  -0.00138
    H46      Y    -0.00107  -0.03893  -0.00049  -0.00074   0.00049  -0.00026
    H46      Z     0.00079   0.02601   0.00029   0.00049  -0.00017   0.00027
    H71      X     0.04281   0.38066   0.01836  -0.00126  -0.00196  -0.00073
    H71      Y    -0.04689  -0.41680  -0.02030   0.00139   0.00216   0.00079
    H71      Z     0.03655   0.32526   0.01574  -0.00108  -0.00168  -0.00065
    H72      X     0.01926   0.16749   0.01218  -0.00060  -0.00125  -0.00040
    H72      Y     0.00616   0.05347   0.00338  -0.00018  -0.00036  -0.00013
    H72      Z    -0.00325  -0.02753  -0.00215   0.00015   0.00022   0.00007
    H73      X    -0.00220  -0.01900  -0.00049   0.00004   0.00007   0.00003
    H73      Y    -0.00716  -0.06443  -0.00133  -0.00004   0.00021   0.00009
    H73      Z    -0.00349  -0.03136  -0.00095  -0.00003   0.00012   0.00006
  
  vibration #          211       212       213
                 --------- --------- ---------
  frequencies      3240.96   3268.88   3446.07
  intensities         6.17      2.07      6.92
  reduc. mass         0.83      0.91      0.94
  force const         5.15      5.72      6.58
    P1       X    -0.00000  -0.00001   0.00005
    P1       Y    -0.00005   0.00001   0.00004
    P1       Z     0.00013  -0.00001  -0.00004
    Pd2      X    -0.00000   0.00001  -0.00003
    Pd2      Y    -0.00000  -0.00000   0.00001
    Pd2      Z     0.00000   0.00000  -0.00002
    N2       X     0.00001  -0.00004  -0.06561
    N2       Y    -0.00001  -0.00002   0.01355
    N2       Z    -0.00000  -0.00006  -0.01199
    C16      X     0.00001  -0.00000   0.00001
    C16      Y    -0.00001  -0.00000   0.00002
    C16      Z    -0.00001   0.00000   0.00001
    C17      X    -0.00011   0.00002   0.00002
    C17      Y    -0.00008   0.00002   0.00002
    C17      Z     0.00002  -0.00000   0.00001
    C18      X    -0.00025   0.00015   0.00011
    C18      Y     0.00012  -0.00006  -0.00011
    C18      Z     0.00020  -0.00012  -0.00010
    C19      X     0.00000  -0.00001  -0.00006
    C19      Y    -0.00002   0.00001   0.00002
    C19      Z    -0.00002   0.00000   0.00002
    C20      X    -0.00002   0.00000  -0.00003
    C20      Y    -0.00000  -0.00001  -0.00007
    C20      Z     0.00001  -0.00000  -0.00000
    C21      X     0.00002  -0.00000  -0.00002
    C21      Y    -0.00001   0.00000   0.00001
    C21      Z    -0.00002   0.00000   0.00002
    F10      X    -0.00000  -0.00000  -0.00000
    F10      Y     0.00001   0.00000  -0.00002
    F10      Z     0.00000   0.00000  -0.00001
    H23      X     0.00124  -0.00021  -0.00039
    H23      Y     0.00095  -0.00019  -0.00041
    H23      Z    -0.00026   0.00004   0.00005
    H24      X     0.00307  -0.00168  -0.00092
    H24      Y    -0.00139   0.00068   0.00034
    H24      Z    -0.00228   0.00134   0.00074
    H25      X     0.00019  -0.00006   0.00031
    H25      Y     0.00012  -0.00004   0.00021
    H25      Z    -0.00005   0.00001  -0.00013
    H26      X    -0.00026   0.00002   0.00028
    H26      Y     0.00013  -0.00002  -0.00021
    H26      Z     0.00018  -0.00002  -0.00022
    H30      X    -0.00009   0.00009   0.92559
    H30      Y     0.00005   0.00021  -0.17346
    H30      Z    -0.00001   0.00110   0.20203
    C31      X     0.00002   0.00000   0.00005
    C31      Y    -0.00002  -0.00001  -0.00009
    C31      Z    -0.00004  -0.00001  -0.00011
    C32      X    -0.00004  -0.00001  -0.00000
    C32      Y    -0.00003  -0.00002   0.00000
    C32      Z    -0.00004  -0.00002   0.00014
    C33      X    -0.00006  -0.00011   0.00003
    C33      Y     0.00000   0.00001  -0.00030
    C33      Z    -0.00000   0.00001  -0.00017
    C34      X    -0.00000   0.00002  -0.00144
    C34      Y     0.00001   0.00003  -0.00112
    C34      Z     0.00000   0.00004  -0.00285
    C35      X     0.00002   0.00000   0.00063
    C35      Y     0.00002  -0.00002   0.00006
    C35      Z     0.00003  -0.00002   0.00010
    C36      X     0.00005  -0.00000  -0.00014
    C36      Y    -0.00000   0.00001  -0.00001
    C36      Z    -0.00000   0.00001   0.00006
    H37      X    -0.00025  -0.00006  -0.00028
    H37      Y     0.00029   0.00006   0.00066
    H37      Z     0.00039   0.00008   0.00048
    H38      X     0.00038   0.00014  -0.00021
    H38      Y     0.00034   0.00012  -0.00020
    H38      Z     0.00043   0.00016  -0.00044
    H39      X     0.00073   0.00143   0.00582
    H39      Y    -0.00010  -0.00022   0.00163
    H39      Z     0.00003  -0.00010   0.00060
    H40      X    -0.00026   0.00004   0.00104
    H40      Y    -0.00024   0.00006   0.00010
    H40      Z    -0.00032   0.00007  -0.00031
    H41      X    -0.00049   0.00007  -0.00007
    H41      Y     0.00002  -0.00001   0.00048
    H41      Z     0.00003  -0.00001   0.00033
    C3       X     0.00085  -0.00000   0.00001
    C3       Y     0.00107   0.00003   0.00001
    C3       Z    -0.00229  -0.00010   0.00001
    C4       X    -0.00018  -0.00000  -0.00002
    C4       Y    -0.00008   0.00001   0.00001
    C4       Z    -0.00002   0.00000   0.00002
    C5       X    -0.00011  -0.00010  -0.00005
    C5       Y     0.00000  -0.00007  -0.00005
    C5       Z     0.00009   0.00006   0.00009
    C6       X     0.00003  -0.00011  -0.00001
    C6       Y     0.00004  -0.00294   0.00013
    C6       Z    -0.00001   0.00075   0.00005
    C7       X    -0.00008  -0.00011   0.00007
    C7       Y    -0.00069  -0.00061  -0.00002
    C7       Z     0.00007  -0.00047   0.00007
    C8       X    -0.00004  -0.00020   0.00001
    C8       Y    -0.00010  -0.00065   0.00010
    C8       Z    -0.00019  -0.00085  -0.00011
    C9       X    -0.00001  -0.00024  -0.00008
    C9       Y     0.00005  -0.00013  -0.00008
    C9       Z    -0.00008  -0.00159  -0.00024
    C10      X     0.00000   0.00029  -0.00017
    C10      Y     0.00008   0.00985  -0.00009
    C10      Z    -0.00000  -0.00323  -0.00009
    C11      X     0.00000   0.01027  -0.00042
    C11      Y    -0.00002   0.04622  -0.00029
    C11      Z    -0.00001   0.06739   0.00030
    C12      X    -0.00047  -0.00002  -0.00000
    C12      Y     0.00011   0.00023  -0.00002
    C12      Z    -0.00043   0.00007   0.00005
    C13      X    -0.00165  -0.00007   0.00003
    C13      Y     0.00051   0.00008   0.00001
    C13      Z    -0.00181  -0.00027  -0.00001
    C14      X    -0.00499  -0.00007  -0.00001
    C14      Y    -0.00095  -0.00005  -0.00001
    C14      Z     0.00014   0.00006   0.00001
    C15      X    -0.00545  -0.00001  -0.00001
    C15      Y    -0.00827   0.00000   0.00000
    C15      Z     0.01792  -0.00001  -0.00001
    C40      X     0.06063  -0.00000  -0.00001
    C40      Y    -0.01137  -0.00001   0.00000
    C40      Z     0.05180  -0.00001  -0.00001
    C41      X    -0.00112   0.00000   0.00002
    C41      Y    -0.00000  -0.00000   0.00001
    C41      Z     0.00095   0.00001   0.00001
    C42      X    -0.00135  -0.00000   0.00000
    C42      Y    -0.00038  -0.00001  -0.00001
    C42      Z     0.00105   0.00000  -0.00001
    C43      X     0.00003  -0.00000  -0.00001
    C43      Y     0.00002  -0.00001   0.00000
    C43      Z     0.00017  -0.00001  -0.00001
    C44      X    -0.00001   0.00000  -0.00002
    C44      Y     0.00000   0.00008  -0.00002
    C44      Z     0.00007  -0.00004   0.00004
    C45      X    -0.00002  -0.00043   0.00001
    C45      Y     0.00003  -0.00022  -0.00005
    C45      Z     0.00010  -0.00039   0.00033
    C22      X    -0.00258  -0.00004   0.00003
    C22      Y     0.00038   0.00002   0.00002
    C22      Z    -0.00047   0.00000  -0.00001
    H47      X     0.00086   0.00048   0.00012
    H47      Y     0.00753   0.00363   0.00040
    H47      Z    -0.00056   0.00012  -0.00000
    H48      X     0.00042   0.00192   0.00010
    H48      Y     0.00126   0.00604   0.00042
    H48      Z     0.00194   0.00860   0.00045
    H49      X     0.00009   0.00104   0.00029
    H49      Y    -0.00048  -0.00408  -0.00057
    H49      Z     0.00094   0.01038   0.00136
    H50      X    -0.00006  -0.00549  -0.00137
    H50      Y    -0.00095  -0.09554   0.00311
    H50      Z     0.00009   0.00922  -0.00025
    H27      X     0.00010  -0.12845   0.00030
    H27      Y     0.00029  -0.53045  -0.00004
    H27      Z     0.00036  -0.77599  -0.00002
    H28      X     0.01858   0.00159  -0.00034
    H28      Y    -0.00404  -0.00023   0.00002
    H28      Z     0.01640   0.00158  -0.00013
    H29      X     0.04637   0.00106   0.00008
    H29      Y     0.01259   0.00036   0.00003
    H29      Z    -0.01036  -0.00033  -0.00004
    H54      X     0.03681  -0.00001  -0.00003
    H54      Y     0.08363   0.00002  -0.00001
    H54      Z    -0.18897  -0.00000   0.00000
    H31      X    -0.69551  -0.00008  -0.00004
    H31      Y     0.13433   0.00003   0.00005
    H31      Z    -0.59865  -0.00017  -0.00014
    H32      X     0.01261   0.00005  -0.00012
    H32      Y     0.00236   0.00000  -0.00004
    H32      Z    -0.00815  -0.00002   0.00012
    H33      X     0.00214  -0.00002   0.00001
    H33      Y    -0.00187   0.00002  -0.00007
    H33      Z     0.00068  -0.00001   0.00005
    H34      X    -0.00056  -0.00000  -0.00004
    H34      Y    -0.00073  -0.00002   0.00001
    H34      Z    -0.00485  -0.00007  -0.00024
    H35      X     0.02641   0.00004  -0.00009
    H35      Y    -0.00077   0.00000   0.00001
    H35      Z    -0.01471  -0.00002   0.00008
    H36      X     0.00206   0.00006   0.00004
    H36      Y     0.00536   0.00007   0.00009
    H36      Z     0.00201   0.00003   0.00003
    H61      X    -0.00051  -0.00001   0.00006
    H61      Y    -0.00098   0.00003  -0.00005
    H61      Z     0.00073   0.00000   0.00007
    H62      X    -0.00047   0.00002  -0.00006
    H62      Y    -0.00050   0.00002   0.00008
    H62      Z    -0.00147   0.00010   0.00001
    H63      X    -0.00016  -0.00001   0.00013
    H63      Y     0.00017   0.00002  -0.00014
    H63      Z    -0.00017  -0.00001   0.00013
    H64      X     0.00055   0.00006  -0.00002
    H64      Y     0.00076   0.00010   0.00001
    H64      Z    -0.00003  -0.00001   0.00000
    H65      X     0.00049  -0.00004   0.00032
    H65      Y     0.00015  -0.00002  -0.00024
    H65      Z    -0.00143   0.00024   0.00005
    H42      X     0.00007  -0.00012  -0.00007
    H42      Y    -0.00001  -0.00016   0.00015
    H42      Z     0.00004   0.00009  -0.00028
    H43      X    -0.00029   0.00001   0.00005
    H43      Y    -0.00059  -0.00031   0.00017
    H43      Z    -0.00022  -0.00014   0.00007
    H44      X     0.00018  -0.00119   0.00079
    H44      Y     0.00027  -0.00210   0.00012
    H44      Z    -0.00110   0.01037  -0.00701
    H45      X    -0.00025   0.00085  -0.00017
    H45      Y    -0.00072   0.00374   0.00006
    H45      Z    -0.00034   0.00273   0.00049
    H46      X     0.00047   0.01855  -0.00023
    H46      Y     0.00013   0.00176  -0.00003
    H46      Z     0.00011   0.00221   0.00016
    H71      X     0.00924   0.00024   0.00001
    H71      Y    -0.01059  -0.00025  -0.00007
    H71      Z     0.00829   0.00017   0.00009
    H72      X     0.02159   0.00037  -0.00005
    H72      Y     0.00525   0.00012  -0.00001
    H72      Z    -0.00362  -0.00014  -0.00005
    H73      X     0.00099  -0.00002  -0.00003
    H73      Y     0.00293  -0.00011   0.00022
    H73      Z     0.00051  -0.00002   0.00023
  
  Number of imaginary frequencies:   0
   
  Writing vibrational animation data to red_elim_L_trans_L1_PL139.vib
  Writing IR vibrational spectrum data to red_elim_L_trans_L1_PL139_vib.spm
  rotational symmetry number:  1

  rotational temperatures (K):      0.005926      0.004764      0.004482
   
  The Quasi-Harmonic approximation will be applied to compute
  vibrational constributions to thermodynamic properties.
  Frequencies will be adjusted to a minimum value of  100.00 cm^-1.

  vibrational temperatures:
       mode:      1        2        3        4        5        6
  temp. (K):   143.88   143.88   143.88   143.88   143.88   143.88
   
       mode:      7        8        9       10       11       12
  temp. (K):   143.88   143.88   143.88   143.88   143.88   163.64
   
       mode:     13       14       15       16       17       18
  temp. (K):   177.46   185.21   193.45   205.54   212.38   221.84
   
       mode:     19       20       21       22       23       24
  temp. (K):   241.66   262.23   277.88   290.02   305.05   311.98
   
       mode:     25       26       27       28       29       30
  temp. (K):   317.57   333.66   360.83   371.77   374.89   379.59
   
       mode:     31       32       33       34       35       36
  temp. (K):   406.59   411.27   427.15   450.77   453.21   462.04
   
       mode:     37       38       39       40       41       42
  temp. (K):   475.30   497.96   525.60   528.36   543.85   572.50
   
       mode:     43       44       45       46       47       48
  temp. (K):   578.97   590.01   600.94   606.55   611.35   624.79
   
       mode:     49       50       51       52       53       54
  temp. (K):   635.12   639.72   640.63   711.32   730.83   755.32
   
       mode:     55       56       57       58       59       60
  temp. (K):   762.86   771.77   792.03   796.78   815.63   826.18
   
       mode:     61       62       63       64       65       66
  temp. (K):   844.38   866.19   892.09   902.50   908.57   917.32
   
       mode:     67       68       69       70       71       72
  temp. (K):   990.15  1023.78  1026.74  1042.74  1103.14  1107.05
   
       mode:     73       74       75       76       77       78
  temp. (K):  1116.02  1127.70  1147.90  1186.08  1195.56  1197.79
   
       mode:     79       80       81       82       83       84
  temp. (K):  1199.28  1201.06  1206.70  1215.97  1253.82  1267.29
   
       mode:     85       86       87       88       89       90
  temp. (K):  1296.70  1309.73  1357.24  1373.76  1379.00  1382.86
   
       mode:     91       92       93       94       95       96
  temp. (K):  1385.30  1392.68  1397.38  1411.92  1417.89  1426.45
   
       mode:     97       98       99      100      101      102
  temp. (K):  1428.72  1429.94  1436.53  1442.77  1464.15  1467.63
   
       mode:    103      104      105      106      107      108
  temp. (K):  1468.11  1477.76  1482.66  1499.58  1508.50  1515.48
   
       mode:    109      110      111      112      113      114
  temp. (K):  1522.20  1526.87  1535.15  1543.77  1551.10  1588.99
   
       mode:    115      116      117      118      119      120
  temp. (K):  1605.41  1613.41  1620.02  1673.71  1723.77  1729.47
   
       mode:    121      122      123      124      125      126
  temp. (K):  1731.54  1735.23  1739.42  1742.96  1746.36  1751.23
   
       mode:    127      128      129      130      131      132
  temp. (K):  1768.59  1771.88  1776.78  1795.54  1808.40  1840.33
   
       mode:    133      134      135      136      137      138
  temp. (K):  1845.23  1880.34  1911.30  1924.09  1925.85  1928.13
   
       mode:    139      140      141      142      143      144
  temp. (K):  1937.65  1974.22  1978.96  2029.52  2041.53  2051.55
   
       mode:    145      146      147      148      149      150
  temp. (K):  2053.18  2055.22  2059.68  2094.34  2108.75  2115.14
   
       mode:    151      152      153      154      155      156
  temp. (K):  2139.81  2151.09  2160.84  2163.44  2169.80  2175.86
   
       mode:    157      158      159      160      161      162
  temp. (K):  2181.70  2183.83  2188.66  2201.67  2203.49  2205.21
   
       mode:    163      164      165      166      167      168
  temp. (K):  2207.18  2214.89  2221.17  2225.47  2238.35  2242.65
   
       mode:    169      170      171      172      173      174
  temp. (K):  2300.46  2331.92  2357.74  2360.37  2371.96  2380.68
   
       mode:    175      176      177      178      179      180
  temp. (K):  2400.81  2402.31  4379.75  4382.38  4386.24  4387.88
   
       mode:    181      182      183      184      185      186
  temp. (K):  4392.75  4397.69  4479.45  4486.40  4492.13  4496.28
   
       mode:    187      188      189      190      191      192
  temp. (K):  4509.61  4511.35  4534.36  4556.76  4574.42  4578.41
   
       mode:    193      194      195      196      197      198
  temp. (K):  4581.04  4582.86  4587.78  4593.88  4595.34  4603.49
   
       mode:    199      200      201      202      203      204
  temp. (K):  4603.59  4606.76  4610.30  4613.11  4616.42  4617.39
   
       mode:    205      206      207      208      209      210
  temp. (K):  4618.29  4619.13  4622.51  4628.59  4631.50  4646.22
   
       mode:    211      212      213
  temp. (K):  4663.02  4703.18  4958.11
   
   
  Thermodynamic properties calculated assuming an ideal gas

  In the table below, the units for temperature
  are kelvins, the units for U, H, and G are
  kcal/mol and the units for Cv and S are cal/(mol K)

  The zero point energy (ZPE):    386.207 kcal/mol
  is not included in U, H, or G in the table below
  
 
  =============================================================================
  Thermodynamic properties for P = 1.00E+00 atm, calculated at   1 temperatures


  T =   298.15 K, P = 1.00E+00 atm
   
                  U         Cv          S          H          G        ln(Q)
              =========  =========  =========  =========  =========  =========
  trans.          0.889      2.981     45.015      1.481    -11.940   20.15227
  rot.            0.889      2.981     36.883      0.889    -10.108   17.06016
  vib.           20.120    135.434    120.403     20.120    -15.778   26.63083
  elec.           0.000      0.000      0.000      0.000      0.000    0.00000
  ----------------------------------------------------------------------------
  total          21.897    141.396    202.301     22.490    -37.826   63.84326
   
   Total internal energy, Utot(SCFE + ZPE + U):   -1863.317460 hartrees
   Total enthalpy, Htot (Utot + nRT), with n=1:   -1863.316516 hartrees
    Total Gibbs free energy, Gtot (Htot - T*S):   -1863.412635 hartrees
   
  end of program freq
   
 Time(freq)  user:       0.349  user+sys:       0.349  wallclock:       0.600
  
  start of program post
  
  Writing input files for PBF
  end of program post
   
 Time(post)  user:       0.171  user+sys:       0.171  wallclock:       0.113

 Total cpu seconds     user:   77404.992   user+sys:   77404.992
  
 Total elapsed time:    44485 seconds

Job red_elim_L_trans_L1_PL139 completed on bp1-compute052.data.bp.acrc.priv at Wed Apr 30 05:10:51 2025
