Job red_elim_Ar_trans_L1_PL139 started on bp1-compute082.data.bp.acrc.priv at Fri Mar 28 07:37:34 2025
jobid: bp1-compute082-0-67e651ba

  +--------------------------------------------------------------------+
  |  Jaguar version 12.5, release 138                                  |
  |                                                                    |
  |  Copyright Schrodinger, Inc.                                       |
  |  All Rights Reserved.                                              |
  |                                                                    |
  |  The following have contributed to Jaguar (listed alphabetically): |
  |  Ty Balduf, Mike Beachy, Chandler Bennett, Art Bochevarov,         |
  |  Dale Braden, Yixiang Cao, Alan Chien, Chris Cortis,               |
  |  Rich Friesner, Jim Furness, Bill Goddard, Hod Greeley,            |
  |  Tom Hughes, Leif Jacobson, Jean-Marc Langlois, Daniel Levine,     |
  |  Rob Murphy, Dean Philipp, Tom Pollard, Murco Ringnalda,           |
  |  Daniel Mainz, Pablo Videla, Mark Watson, Haoyu Yu.                |
  |                                                                    |
  |  Use of this program should be acknowledged in publications as:    |
  |                                                                    |
  |  Jaguar, version 12.5, Schrodinger, Inc., New York, NY, 2024.      |
  |                                                                    |
  |  A. D. Bochevarov, E. Harder, T. F. Hughes, J. R. Greenwood,       |
  |  D. A. Braden, D. M. Philipp, D. Rinaldo, M. D. Halls,             |
  |  J. Zhang, R. A. Friesner, "Jaguar: A High-Performance Quantum     |
  |  Chemistry Software Program with Strengths in Life and Materials   |
  |  Sciences", Int. J. Quantum Chem., 2013, 113(18), 2110-2142.       |
  +--------------------------------------------------------------------+
  
  start of program pre
  
  Job name: red_elim_Ar_trans_L1_PL139
  Executables used: /software/local/apps/schrodinger2024-3/jaguar-v12.5/bin/Linux-x86_64
  Temporary files : /tmp/ar21627/red_elim_Ar_trans_L1_PL139#bp1-compute082-0-67e651ba
  Basis file : using default basis file from /software/local/apps/schrodinger2024-3
  Maestro file (input):  red_elim_Ar_trans_L1_PL139.mae
  Maestro file (output): red_elim_Ar_trans_L1_PL139.01.mae
  
 Contents of input file: &gen and (if present) &atomic sections only
 ----------------Contents start----------------
&gen
dftname=b3pw91-d3
basis=6-31G*
numd=5
ip11=2
iaccg=3
isolv=2
igeopt=1
solvent=benzene
ifreq=1
&
&atomic
atom basis
Pd2 lacv3p*
&
 -----------------Contents end-----------------
 
  PS calculation requested. Using PS version of 6-31g*
  basis set:               non_standard                    
  net molecular charge:    0
  multiplicity:            1
  
  Using up to   4 threads per process
  
  This run will use ECP on 1 atom
  number of basis functions....          599
  
  input atom labels were not unique
  original atom labels:
 P1       Pd2      N2       C17      C18      C19      C20      C21     
 C22      F10      H24      H25      H26      H27      H15      C16     
 C23      C24      C25      C26      C27      H22      H23      H28     
 H29      H30      C3       C4       C5       C6       C7       C8      
 C9       C10      C11      C12      C13      C14      C15      C16     
 C17      C18      C19      C20      C21      C22      H23      H24     
 H25      H26      H27      H28      H29      H30      H31      H32     
 H33      H34      H35      H36      H37      H38      H39      H40     
 H41      H42      H43      H44      H45      H46      H47      H48     
 H49     
  new atom labels:
 P1       Pd2      N3       C4       C5       C6       C7       C8      
 C9       F10      H11      H12      H13      H14      H15      C16     
 C17      C18      C19      C20      C21      H22      H23      H24     
 H25      H26      C27      C28      C29      C30      C31      C32     
 C33      C34      C35      C36      C37      C38      C39      C40     
 C41      C42      C43      C44      C45      C46      H47      H48     
 H49      H50      H51      H52      H53      H54      H55      H56     
 H57      H58      H59      H60      H61      H62      H63      H64     
 H65      H66      H67      H68      H69      H70      H71      H72     
 H73     
 
  
 Input geometry:
                                   angstroms
  atom               x                 y                 z
  P1            0.0000000000      0.0000000000      0.0000000000 
  Pd2           0.0000000000      0.0000000000      2.3082054643 
  N3            0.1788512843      0.0000000000      4.2821546393 
  C4           -4.8153127483     -0.3274060269      2.4728587299 
  C5           -4.1771486059      0.9163971430      2.4268368548 
  C6           -2.7845035475      1.0180348174      2.3585086104 
  C7           -1.9897377996     -0.1325557428      2.3361678490 
  C8           -2.6185933713     -1.3825413935      2.3892643642 
  C9           -4.0102238691     -1.4731617659      2.4562393944 
  F10          -6.1438796496     -0.4265951501      2.5171363382 
  H11          -4.7762644751      1.8269144636      2.4507953686 
  H12          -2.3246655105      2.0036612178      2.3388949646 
  H13          -2.0256782389     -2.2945297691      2.3924677039 
  H14          -4.4785719676     -2.4567354791      2.5037733082 
  H15           0.4761748790     -0.9383747116      4.7731246798 
  C16          -2.8096742856      1.9640045085      6.6094358907 
  C17          -2.7617417041      0.5608644961      6.5675452784 
  C18          -1.7779904083     -0.0856389270      5.8014597990 
  C19          -0.8421716781      0.6709976622      5.0772649521 
  C20          -0.8900342122      2.0740916436      5.1191010253 
  C21          -1.8738555554      2.7206410976      5.8852410438 
  H22          -3.5825266865      2.4719090134      7.2112861547 
  H23          -3.4970257502     -0.0334759797      7.1365543911 
  H24          -1.7403519982     -1.1879299386      5.7685641186 
  H25          -0.1548567206      2.6683893749      4.5501744900 
  H26          -1.9114939531      3.8229321092      5.9181367401 
  C27           1.4037020000      0.0000000000     -0.5287930000 
  C28          -0.7175880000      1.2185950000     -0.5000930000 
  C29          -0.6270920000     -1.2611540000     -0.5159910000 
  C30           2.7260500000     -0.4853270000      1.6271060000 
  C31           3.2037415467      0.4890420836      2.5421914869 
  C32           3.3427076298      0.2842074305      3.9252858075 
  C33           3.0029181845     -0.9436439155      4.4993369091 
  C34           2.5252920939     -1.9426734330      3.6472603508 
  C35           2.3990175195     -1.7026668968      2.2690586205 
  C36           2.6019460000     -0.2304150000      0.2176440000 
  C37           3.7878870000     -0.1958030000     -0.5613940000 
  C38           3.8431800000      0.0372740000     -1.9422500000 
  C39           2.6594980000      0.2557690000     -2.6437450000 
  C40           1.4669940000      0.2303350000     -1.9171010000 
  C41           0.2640520000      2.4117330000     -0.4822660000 
  C42          -1.4101740000      1.1825170000     -1.8807340000 
  C43          -1.8189460000      1.5454690000      0.5361260000 
  C44          -2.1080070000     -1.3722510000     -0.0979990000 
  C45           0.1221730000     -2.4158010000      0.1891870000 
  C46          -0.5185810000     -1.5249020000     -2.0327640000 
  H47           3.5106140782      1.4986757485      2.2438585944 
  H48           3.7228140409      1.0933906243      4.5725414540 
  H49           3.1073365851     -1.1176845047      5.5835144817 
  H50           2.2473488768     -2.9241184415      4.0688263639 
  H51           2.0137140197     -2.5696189083      1.7348519269 
  H52           4.7885530000     -0.3513670000     -0.1424820000 
  H53           4.8080470000      0.0488480000     -2.4782120000 
  H54           2.6670950000      0.4405860000     -3.7314160000 
  H55           0.5556520000      0.4025780000     -2.4991290000 
  H56           1.0643220000      2.3023090000     -1.2470840000 
  H57          -0.2516670000      3.3752090000     -0.6985240000 
  H58           0.7608810000      2.5175410000      0.5094590000 
  H59          -0.7084710000      1.0355330000     -2.7274080000 
  H60          -2.1957070000      0.3992420000     -1.9347810000 
  H61          -1.9262770000      2.1470210000     -2.0906830000 
  H62          -1.3958000000      1.6592640000      1.5607770000 
  H63          -2.3500650000      2.4951940000      0.2968930000 
  H64          -2.5919700000      0.7468300000      0.5862940000 
  H65          -2.2342810000     -1.2048910000      0.9961800000 
  H66          -2.7473770000     -0.6357650000     -0.6300580000 
  H67          -2.5273370000     -2.3781680000     -0.3286700000 
  H68           0.0340770000     -2.3450000000      1.2976900000 
  H69          -0.2765190000     -3.4128720000     -0.1076560000 
  H70           1.2083020000     -2.4115640000     -0.0586600000 
  H71          -0.9941950000     -0.7270730000     -2.6402850000 
  H72           0.5384110000     -1.6346130000     -2.3615300000 
  H73          -1.0269740000     -2.4759130000     -2.3116700000 
   
  principal moments of inertia:
        amu*angstrom^2:              3173.36130              5099.38427              6769.15271
                g*cm^2:          5.26948976E-37          8.46772575E-37          1.12404411E-36
   
  rotational constants:
               cm^(-1):      0.00531223      0.00330582      0.00249036
                   GHz:      0.15925669      0.09910589      0.07465912
   
  Molecular weight:     591.17 amu
   
  Stoichiometry: PdC32PNH37F
  Molecular Point Group: C1      
  Point Group used: C1
  
 
Number of optimization coordinates:   247
Number of independent coordinates:    247
Number of non-redundant coordinates:  213
Number of frozen coordinates:           0
Number of harmonic constraints:         0
 
Number of geometric degrees of freedom:   213
Maximum geometric degrees of freedom:     213
 " " " " " excluding dummy atoms:         213
 
 
  bond lengths (angstroms):
 
 P1      -Pd2     :   2.308205      P1      -C27     :   1.500000
 P1      -C28     :   1.500000      P1      -C29     :   1.500000
 Pd2     -N3      :   1.982035      Pd2     -C7      :   1.994344
 N3      -H15     :   1.100000      N3      -C19     :   1.457713
 C4      -C5      :   1.398720      C4      -C9      :   1.400429
 C4      -F10     :   1.333000      C5      -C6      :   1.398020
 C5      -H11     :   1.090209      C6      -C7      :   1.398574
 C6      -H12     :   1.087794      C7      -C8      :   1.400265
 C8      -C9      :   1.396185      C8      -H13     :   1.087787
 C9      -H14     :   1.090425      C16     -C17     :   1.404583
 C16     -C21     :   1.404533      C16     -H22     :   1.103400
 C17     -C18     :   1.404500      C17     -H23     :   1.103474
 C18     -C19     :   1.404533      C18     -H24     :   1.103424
 C19     -C20     :   1.404533      C20     -C21     :   1.404600
 C20     -H25     :   1.103337      C21     -H26     :   1.103424
 C27     -C36     :   1.430401      C27     -C40     :   1.408708
 C28     -C41     :   1.545158      C28     -C42     :   1.545039
 C28     -C43     :   1.547122      C29     -C44     :   1.542780
 C29     -C45     :   1.546572      C29     -C46     :   1.543353
 C30     -C31     :   1.419495      C30     -C35     :   1.414556
 C30     -C36     :   1.437694      C31     -C32     :   1.405069
 C31     -H47     :   1.096601      C32     -C33     :   1.397358
 C32     -H48     :   1.103720      C33     -C34     :   1.397219
 C33     -H49     :   1.103011      C34     -C35     :   1.404631
 C34     -H50     :   1.103723      C35     -H51     :   1.088780
 C36     -C37     :   1.419350      C37     -C38     :   1.401480
 C37     -H52     :   1.095911      C38     -C39     :   1.393176
 C38     -H53     :   1.103792      C39     -C40     :   1.396683
 C39     -H54     :   1.103287      C40     -H55     :   1.094974
 C41     -H56     :   1.112363      C41     -H57     :   1.114011
 C41     -H58     :   1.114250      C42     -H59     :   1.109436
 C42     -H60     :   1.110632      C42     -H61     :   1.113871
 C43     -H62     :   1.114411      C43     -H63     :   1.114135
 C43     -H64     :   1.112613      C44     -H65     :   1.114084
 C44     -H66     :   1.110987      C44     -H67     :   1.113964
 C45     -H68     :   1.114250      C45     -H69     :   1.114101
 C45     -H70     :   1.114057      C46     -H71     :   1.109875
 C46     -H72     :   1.112365      C46     -H73     :   1.113855
 
  bond angles:
 
 C27     -P1      -Pd2     : 110.642051  C28     -P1      -Pd2     : 109.474992
 C28     -P1      -C27     : 109.277784  C29     -P1      -Pd2     : 110.120396
 C29     -P1      -C27     : 105.661559  C29     -P1      -C28     : 111.614203
 N3      -Pd2     -P1      : 174.822805  C7      -Pd2     -P1      :  90.803361
 C7      -Pd2     -N3      :  94.362366  H15     -N3      -Pd2     : 117.963296
 C19     -N3      -Pd2     : 118.686804  C19     -N3      -H15     : 109.788049
 C9      -C4      -C5      : 117.700487  F10     -C4      -C5      : 121.466051
 F10     -C4      -C9      : 120.829905  C6      -C5      -C4      : 121.382694
 H11     -C5      -C4      : 119.421122  H11     -C5      -C6      : 119.195116
 C7      -C6      -C5      : 120.467804  H12     -C6      -C5      : 119.199658
 H12     -C6      -C7      : 120.325406  C6      -C7      -Pd2     : 120.830445
 C8      -C7      -Pd2     : 120.525671  C8      -C7      -C6      : 118.592816
 C9      -C8      -C7      : 120.490217  H13     -C8      -C7      : 120.247412
 H13     -C8      -C9      : 119.257121  C8      -C9      -C4      : 121.364383
 H14     -C9      -C4      : 119.376002  H14     -C9      -C8      : 119.258140
 C21     -C16     -C17     : 120.002746  H22     -C16     -C17     : 120.000393
 H22     -C16     -C21     : 119.996860  C18     -C17     -C16     : 120.000393
 H23     -C17     -C16     : 119.995826  H23     -C17     -C18     : 120.003781
 C19     -C18     -C17     : 119.996860  H24     -C18     -C17     : 119.999284
 H24     -C18     -C19     : 120.003855  C18     -C19     -N3      : 119.996860
 C20     -C19     -N3      : 119.996860  C20     -C19     -C18     : 120.006279
 C21     -C20     -C19     : 119.996860  H25     -C20     -C19     : 120.001259
 H25     -C20     -C21     : 120.001881  C20     -C21     -C16     : 119.996860
 H26     -C21     -C16     : 120.003855  H26     -C21     -C20     : 119.999284
 C36     -C27     -P1      : 126.866735  C40     -C27     -P1      : 112.921406
 C40     -C27     -C36     : 120.197482  C41     -C28     -P1      : 108.635479
 C42     -C28     -P1      : 119.564083  C42     -C28     -C41     : 108.247562
 C43     -C28     -P1      : 106.792043  C43     -C28     -C41     : 106.342742
 C43     -C28     -C42     : 106.518855  C44     -C29     -P1      : 111.631893
 C45     -C29     -P1      : 105.564318  C45     -C29     -C44     : 106.722903
 C46     -C29     -P1      : 116.895060  C46     -C29     -C44     : 108.750722
 C46     -C29     -C45     : 106.646205  C35     -C30     -C31     : 112.083859
 C36     -C30     -C31     : 122.638665  C36     -C30     -C35     : 125.277476
 C32     -C31     -C30     : 124.596171  H47     -C31     -C30     : 123.420160
 H47     -C31     -C32     : 111.983632  C33     -C32     -C31     : 120.559660
 H48     -C32     -C31     : 120.294259  H48     -C32     -C33     : 119.146078
 C34     -C33     -C32     : 117.443483  H49     -C33     -C32     : 121.293605
 H49     -C33     -C34     : 121.262909  C35     -C34     -C33     : 120.458961
 H50     -C34     -C33     : 119.271939  H50     -C34     -C35     : 120.269097
 C34     -C35     -C30     : 124.857824  H51     -C35     -C30     : 122.983415
 H51     -C35     -C34     : 112.158723  C30     -C36     -C27     : 127.767778
 C37     -C36     -C27     : 114.179167  C37     -C36     -C30     : 118.053050
 C38     -C37     -C36     : 125.296897  H52     -C37     -C36     : 123.344249
 H52     -C37     -C38     : 111.358848  C39     -C38     -C37     : 119.253491
 H53     -C38     -C37     : 120.974078  H53     -C38     -C39     : 119.772406
 C40     -C39     -C38     : 117.425968  H54     -C39     -C38     : 121.118955
 H54     -C39     -C40     : 121.455055  C39     -C40     -C27     : 123.646561
 H55     -C40     -C27     : 120.808706  H55     -C40     -C39     : 115.544693
 H56     -C41     -C28     : 111.910845  H57     -C41     -C28     : 111.807544
 H57     -C41     -H56     : 106.538408  H58     -C41     -C28     : 111.522463
 H58     -C41     -H56     : 107.488352  H58     -C41     -H57     : 107.281718
 H59     -C42     -C28     : 113.673662  H60     -C42     -C28     : 112.148234
 H60     -C42     -H59     : 108.467982  H61     -C42     -C28     : 110.849242
 H61     -C42     -H59     : 105.303521  H61     -C42     -H60     : 105.890065
 H62     -C43     -C28     : 111.536748  H63     -C43     -C28     : 112.063982
 H63     -C43     -H62     : 106.941488  H64     -C43     -C28     : 111.909518
 H64     -C43     -H62     : 107.196505  H64     -C43     -H63     : 106.879073
 H65     -C44     -C29     : 111.350636  H66     -C44     -C29     : 112.020047
 H66     -C44     -H65     : 107.790504  H67     -C44     -C29     : 111.731603
 H67     -C44     -H65     : 107.239005  H67     -C44     -H66     : 106.428016
 H68     -C45     -C29     : 111.584181  H69     -C45     -C29     : 111.919355
 H69     -C45     -H68     : 107.076047  H70     -C45     -C29     : 111.595099
 H70     -C45     -H68     : 107.347393  H70     -C45     -H69     : 107.038637
 H71     -C46     -C29     : 112.642254  H72     -C46     -C29     : 111.970515
 H72     -C46     -H71     : 108.440249  H73     -C46     -C29     : 111.094202
 H73     -C46     -H71     : 106.325725  H73     -C46     -H72     : 105.991230
 
  torsional angles:
 
 P1      -Pd2     -N3      -H15     : -74.978888
 P1      -Pd2     -N3      -C19     : 148.351031
 P1      -Pd2     -C7      -C6      : -90.586464
 P1      -Pd2     -C7      -C8      :  92.049113
 P1      -C27     -C36     -C30     :  -1.244791
 P1      -C27     -C36     -C37     : 178.729711
 P1      -C27     -C40     -C39     :-178.962339
 P1      -C27     -C40     -H55     :   0.961507
 P1      -C28     -C41     -H56     :  69.066294
 P1      -C28     -C41     -H57     :-171.500578
 P1      -C28     -C41     -H58     : -51.385074
 P1      -C28     -C42     -H59     : -63.625205
 P1      -C28     -C42     -H60     :  59.871656
 P1      -C28     -C42     -H61     : 177.992778
 P1      -C28     -C43     -H62     :  54.960151
 P1      -C28     -C43     -H63     : 174.826861
 P1      -C28     -C43     -H64     : -65.126497
 P1      -C29     -C44     -H65     : -50.476119
 P1      -C29     -C44     -H66     :  70.318293
 P1      -C29     -C44     -H67     :-170.366999
 P1      -C29     -C45     -H68     :  59.004770
 P1      -C29     -C45     -H69     : 178.976975
 P1      -C29     -C45     -H70     : -61.091110
 P1      -C29     -C46     -H71     : -60.037413
 P1      -C29     -C46     -H72     :  62.500013
 P1      -C29     -C46     -H73     :-179.204233
 Pd2     -P1      -C27     -C36     :  11.615731
 Pd2     -P1      -C27     -C40     :-169.774349
 Pd2     -P1      -C28     -C41     :  82.405157
 Pd2     -P1      -C28     -C42     :-152.760667
 Pd2     -P1      -C28     -C43     : -31.921688
 Pd2     -P1      -C29     -C44     :  62.890670
 Pd2     -P1      -C29     -C45     : -52.690285
 Pd2     -P1      -C29     -C46     :-171.030664
 Pd2     -N3      -C19     -C18     : 106.312675
 Pd2     -N3      -C19     -C20     : -73.687327
 Pd2     -C7      -C6      -C5      :-177.677437
 Pd2     -C7      -C6      -H12     :   1.343357
 Pd2     -C7      -C8      -C9      : 177.739254
 Pd2     -C7      -C8      -H13     :  -1.421133
 N3      -Pd2     -P1      -C27     :   0.000000
 N3      -Pd2     -P1      -C28     :-120.492344
 N3      -Pd2     -P1      -C29     : 116.438249
 N3      -Pd2     -C7      -C6      :  89.758208
 N3      -Pd2     -C7      -C8      : -87.606214
 N3      -C19     -C18     -C17     : 179.999998
 N3      -C19     -C18     -H24     :  -0.000001
 N3      -C19     -C20     -C21     :-179.999998
 N3      -C19     -C20     -H25     :   0.000002
 C4      -C5      -C6      -C7      :  -0.085567
 C4      -C5      -C6      -H12     :-179.117303
 C4      -C9      -C8      -C7      :  -0.023898
 C4      -C9      -C8      -H13     : 179.144744
 C5      -C4      -C9      -C8      :  -0.318521
 C5      -C4      -C9      -H14     : 179.236263
 C5      -C6      -C7      -C8      :  -0.263028
 C6      -C5      -C4      -C9      :   0.372937
 C6      -C5      -C4      -F10     :-178.946312
 C6      -C7      -C8      -C9      :   0.316693
 C6      -C7      -C8      -H13     :-178.843694
 C7      -Pd2     -P1      -C27     :-176.188604
 C7      -Pd2     -P1      -C28     :  63.319052
 C7      -Pd2     -P1      -C29     : -59.750355
 C7      -Pd2     -N3      -H15     : 101.199002
 C7      -Pd2     -N3      -C19     : -35.471079
 C7      -C6      -C5      -H11     : 179.536272
 C7      -C8      -C9      -H14     :-179.579196
 C8      -C7      -C6      -H12     : 178.757766
 C8      -C9      -C4      -F10     : 179.005281
 C9      -C4      -C5      -H11     :-179.248064
 F10     -C4      -C5      -H11     :   1.432687
 F10     -C4      -C9      -H14     :  -1.439936
 H11     -C5      -C6      -H12     :   0.504536
 H13     -C8      -C9      -H14     :  -0.410554
 H15     -N3      -C19     -C18     : -33.587775
 H15     -N3      -C19     -C20     : 146.412224
 C16     -C17     -C18     -C19     :   0.000001
 C16     -C17     -C18     -H24     :-179.999999
 C16     -C21     -C20     -C19     :   0.000000
 C16     -C21     -C20     -H25     : 180.000000
 C17     -C16     -C21     -C20     :   0.000001
 C17     -C16     -C21     -H26     :-179.999999
 C17     -C18     -C19     -C20     :   0.000000
 C18     -C17     -C16     -C21     :  -0.000001
 C18     -C17     -C16     -H22     : 179.999999
 C18     -C19     -C20     -C21     :   0.000000
 C18     -C19     -C20     -H25     : 180.000000
 C19     -C18     -C17     -H23     : 179.999999
 C19     -C20     -C21     -H26     : 179.999999
 C20     -C19     -C18     -H24     : 180.000000
 C20     -C21     -C16     -H22     :-179.999999
 C21     -C16     -C17     -H23     :-179.999999
 H22     -C16     -C17     -H23     :   0.000001
 H22     -C16     -C21     -H26     :   0.000001
 H23     -C17     -C18     -H24     :  -0.000002
 H25     -C20     -C21     -H26     :  -0.000001
 C27     -P1      -C28     -C41     : -38.914883
 C27     -P1      -C28     -C42     :  85.919293
 C27     -P1      -C28     -C43     :-153.241727
 C27     -P1      -C29     -C44     :-177.595796
 C27     -P1      -C29     -C45     :  66.823249
 C27     -P1      -C29     -C46     : -51.517131
 C27     -C36     -C30     -C31     :-105.457153
 C27     -C36     -C30     -C35     :  74.547585
 C27     -C36     -C37     -C38     :  -0.059613
 C27     -C36     -C37     -H52     : 179.909160
 C27     -C40     -C39     -C38     :   0.107798
 C27     -C40     -C39     -H54     :-179.945215
 C28     -P1      -C27     -C36     : 132.225580
 C28     -P1      -C27     -C40     : -49.164500
 C28     -P1      -C29     -C44     : -58.917219
 C28     -P1      -C29     -C45     :-174.498174
 C28     -P1      -C29     -C46     :  67.161446
 C29     -P1      -C27     -C36     :-107.553020
 C29     -P1      -C27     -C40     :  71.056900
 C29     -P1      -C28     -C41     :-155.415056
 C29     -P1      -C28     -C42     : -30.580880
 C29     -P1      -C28     -C43     :  90.258099
 C30     -C31     -C32     -C33     :  -0.011981
 C30     -C31     -C32     -H48     : 179.970654
 C30     -C35     -C34     -C33     :   0.040255
 C30     -C35     -C34     -H50     :-179.980554
 C30     -C36     -C27     -C40     :-179.763430
 C30     -C36     -C37     -C38     : 179.917547
 C30     -C36     -C37     -H52     :  -0.113679
 C31     -C30     -C35     -C34     :  -0.074732
 C31     -C30     -C35     -H51     : 179.848321
 C31     -C30     -C36     -C37     :  74.569205
 C31     -C32     -C33     -C34     :  -0.029064
 C31     -C32     -C33     -H49     : 179.990200
 C32     -C31     -C30     -C35     :   0.060605
 C32     -C31     -C30     -C36     :-179.935221
 C32     -C33     -C34     -C35     :   0.015975
 C32     -C33     -C34     -H50     :-179.963423
 C33     -C32     -C31     -H47     :-179.943483
 C33     -C34     -C35     -H51     :-179.890053
 C34     -C33     -C32     -H48     : 179.988104
 C34     -C35     -C30     -C36     : 179.920963
 C35     -C30     -C31     -H47     : 179.984505
 C35     -C30     -C36     -C37     :-105.426058
 C35     -C34     -C33     -H49     : 179.996718
 C36     -C27     -C40     -C39     :  -0.249043
 C36     -C27     -C40     -H55     : 179.674803
 C36     -C30     -C31     -H47     :  -0.011321
 C36     -C30     -C35     -H51     :  -0.155984
 C36     -C37     -C38     -C39     :  -0.073105
 C36     -C37     -C38     -H53     : 179.984555
 C37     -C36     -C27     -C40     :   0.211072
 C37     -C38     -C39     -C40     :   0.051014
 C37     -C38     -C39     -H54     :-179.896162
 C38     -C39     -C40     -H55     :-179.819709
 C39     -C38     -C37     -H52     : 179.954905
 C40     -C39     -C38     -H53     : 179.994058
 C41     -C28     -C42     -H59     :  61.394213
 C41     -C28     -C42     -H60     :-175.108926
 C41     -C28     -C42     -H61     : -56.987804
 C41     -C28     -C43     -H62     : -60.909139
 C41     -C28     -C43     -H63     :  58.957571
 C41     -C28     -C43     -H64     : 179.004213
 C42     -C28     -C41     -H56     : -62.191818
 C42     -C28     -C41     -H57     :  57.241310
 C42     -C28     -C41     -H58     : 177.356814
 C42     -C28     -C43     -H62     :-176.206687
 C42     -C28     -C43     -H63     : -56.339978
 C42     -C28     -C43     -H64     :  63.706664
 C43     -C28     -C41     -H56     :-176.313205
 C43     -C28     -C41     -H57     : -56.880076
 C43     -C28     -C41     -H58     :  63.235427
 C43     -C28     -C42     -H59     : 175.399296
 C43     -C28     -C42     -H60     : -61.103843
 C43     -C28     -C42     -H61     :  57.017279
 C44     -C29     -C45     -H68     : -59.893717
 C44     -C29     -C45     -H69     :  60.078488
 C44     -C29     -C45     -H70     :-179.989597
 C44     -C29     -C46     -H71     :  67.458488
 C44     -C29     -C46     -H72     :-170.004085
 C44     -C29     -C46     -H73     : -51.708331
 C45     -C29     -C44     -H65     :  64.392944
 C45     -C29     -C44     -H66     :-174.812645
 C45     -C29     -C44     -H67     : -55.497936
 C45     -C29     -C46     -H71     :-177.791448
 C45     -C29     -C46     -H72     : -55.254022
 C45     -C29     -C46     -H73     :  63.041732
 C46     -C29     -C44     -H65     : 179.093085
 C46     -C29     -C44     -H66     : -60.112503
 C46     -C29     -C44     -H67     :  59.202205
 C46     -C29     -C45     -H68     :-176.007825
 C46     -C29     -C45     -H69     : -56.035620
 C46     -C29     -C45     -H70     :  63.896294
 H47     -C31     -C32     -H48     :   0.039152
 H48     -C32     -C33     -H49     :   0.007368
 H49     -C33     -C34     -H50     :   0.017320
 H50     -C34     -C35     -H51     :   0.089139
 H52     -C37     -C38     -H53     :   0.012565
 H53     -C38     -C39     -H54     :   0.046882
 H54     -C39     -C40     -H55     :   0.127278
 
  nuclear repulsion energy.......          4899.267424097 hartrees
  
  Detected an organometallic with only one TM atom. 
  
  Oxidation state on metal       2 is     2
  Formal multiplet on metal      2 is     1
  Formal charge on ligand        3 is    -1
  Formal multiplet on ligand     3 is     1
  Formal charge on ligand        4 is    -1
  Formal multiplet on ligand     4 is     1
  
 
  Will use High-Quality Initial guess for organometallics
       including d-d repulsion (iguess=30)
 
 Non-default options chosen:
   SCF calculation type: DFT(b3pw91-d3)              
   DFT=Becke_3_Parameter/HF+Slater+Becke88+PW91+PW-GGAIIC (B3PW91-D3)
   Geometry will be optimized in redundant internal coordinates
   Solvation energy will be computed using PBF
     -solute cavity energy will not be included
     -surface area terms will not be included
   Vibrational frequencies and related properties will be computed
      from analytic second derivatives
   IR intensities will be computed
   Thermochemical properties will be computed
   Maximum number of geometry steps: 100
   Scaling standard convergence criteria by a factor of   5.00
   Solvent: benzene                                                         
   Internal dielectric constant:    1.000
   Continuum dielectric constant:   2.283
   Solvent probe molecule radius:   2.600
  
 Non-default print settings:
     11=  2
  
 Temporary integer options set:
     21= -1  73=  2
  
  atom       vdw   vdw2    cov     mass  grid  daf  charge   basis
  P1        2.147  2.074  1.060   30.974    Y    Y      Y    ps_6-31g*
  Pd2       1.450  1.450  1.280  105.903    Y    Y      Y    lacv3p*
  N3        1.831  1.600  0.750   14.003    Y    Y      Y    ps_6-31g*
  C4        1.949  1.900  0.770   12.000    Y    Y      Y    ps_6-31g*
  C5        1.949  1.900  0.770   12.000    Y    Y      Y    ps_6-31g*
  C6        1.949  1.900  0.770   12.000    Y    Y      Y    ps_6-31g*
  C7        1.949  1.900  0.770   12.000    Y    Y      Y    ps_6-31g*
  C8        1.949  1.900  0.770   12.000    Y    Y      Y    ps_6-31g*
  C9        1.949  1.900  0.770   12.000    Y    Y      Y    ps_6-31g*
  F10       1.736  1.682  0.720   18.998    Y    Y      Y    ps_6-31g*
  H11       1.597  1.150  0.320    1.008    Y    Y      Y    ps_6-31g*
  H12       1.597  1.150  0.320    1.008    Y    Y      Y    ps_6-31g*
  H13       1.597  1.150  0.320    1.008    Y    Y      Y    ps_6-31g*
  H14       1.597  1.150  0.320    1.008    Y    Y      Y    ps_6-31g*
  H15       1.597  1.150  0.320    1.008    Y    Y      Y    ps_6-31g*
  C16       1.949  1.900  0.770   12.000    Y    Y      Y    ps_6-31g*
  C17       1.949  1.900  0.770   12.000    Y    Y      Y    ps_6-31g*
  C18       1.949  1.900  0.770   12.000    Y    Y      Y    ps_6-31g*
  C19       1.949  1.900  0.770   12.000    Y    Y      Y    ps_6-31g*
  C20       1.949  1.900  0.770   12.000    Y    Y      Y    ps_6-31g*
  C21       1.949  1.900  0.770   12.000    Y    Y      Y    ps_6-31g*
  H22       1.597  1.150  0.320    1.008    Y    Y      Y    ps_6-31g*
  H23       1.597  1.150  0.320    1.008    Y    Y      Y    ps_6-31g*
  H24       1.597  1.150  0.320    1.008    Y    Y      Y    ps_6-31g*
  H25       1.597  1.150  0.320    1.008    Y    Y      Y    ps_6-31g*
  H26       1.597  1.150  0.320    1.008    Y    Y      Y    ps_6-31g*
  C27       1.949  1.900  0.770   12.000    Y    Y      Y    ps_6-31g*
  C28       1.949  1.900  0.770   12.000    Y    Y      Y    ps_6-31g*
  C29       1.949  1.900  0.770   12.000    Y    Y      Y    ps_6-31g*
  C30       1.949  1.900  0.770   12.000    Y    Y      Y    ps_6-31g*
  C31       1.949  1.900  0.770   12.000    Y    Y      Y    ps_6-31g*
  C32       1.949  1.900  0.770   12.000    Y    Y      Y    ps_6-31g*
  C33       1.949  1.900  0.770   12.000    Y    Y      Y    ps_6-31g*
  C34       1.949  1.900  0.770   12.000    Y    Y      Y    ps_6-31g*
  C35       1.949  1.900  0.770   12.000    Y    Y      Y    ps_6-31g*
  C36       1.949  1.900  0.770   12.000    Y    Y      Y    ps_6-31g*
  C37       1.949  1.900  0.770   12.000    Y    Y      Y    ps_6-31g*
  C38       1.949  1.900  0.770   12.000    Y    Y      Y    ps_6-31g*
  C39       1.949  1.900  0.770   12.000    Y    Y      Y    ps_6-31g*
  C40       1.949  1.900  0.770   12.000    Y    Y      Y    ps_6-31g*
  C41       1.949  1.900  0.770   12.000    Y    Y      Y    ps_6-31g*
  C42       1.949  1.900  0.770   12.000    Y    Y      Y    ps_6-31g*
  C43       1.949  1.900  0.770   12.000    Y    Y      Y    ps_6-31g*
  C44       1.949  1.900  0.770   12.000    Y    Y      Y    ps_6-31g*
  C45       1.949  1.900  0.770   12.000    Y    Y      Y    ps_6-31g*
  C46       1.949  1.900  0.770   12.000    Y    Y      Y    ps_6-31g*
  H47       1.597  1.150  0.320    1.008    Y    Y      Y    ps_6-31g*
  H48       1.597  1.150  0.320    1.008    Y    Y      Y    ps_6-31g*
  H49       1.597  1.150  0.320    1.008    Y    Y      Y    ps_6-31g*
  H50       1.597  1.150  0.320    1.008    Y    Y      Y    ps_6-31g*
  H51       1.597  1.150  0.320    1.008    Y    Y      Y    ps_6-31g*
  H52       1.597  1.150  0.320    1.008    Y    Y      Y    ps_6-31g*
  H53       1.597  1.150  0.320    1.008    Y    Y      Y    ps_6-31g*
  H54       1.597  1.150  0.320    1.008    Y    Y      Y    ps_6-31g*
  H55       1.597  1.150  0.320    1.008    Y    Y      Y    ps_6-31g*
  H56       1.597  1.150  0.320    1.008    Y    Y      Y    ps_6-31g*
  H57       1.597  1.150  0.320    1.008    Y    Y      Y    ps_6-31g*
  H58       1.597  1.150  0.320    1.008    Y    Y      Y    ps_6-31g*
  H59       1.597  1.150  0.320    1.008    Y    Y      Y    ps_6-31g*
  H60       1.597  1.150  0.320    1.008    Y    Y      Y    ps_6-31g*
  H61       1.597  1.150  0.320    1.008    Y    Y      Y    ps_6-31g*
  H62       1.597  1.150  0.320    1.008    Y    Y      Y    ps_6-31g*
  H63       1.597  1.150  0.320    1.008    Y    Y      Y    ps_6-31g*
  H64       1.597  1.150  0.320    1.008    Y    Y      Y    ps_6-31g*
  H65       1.597  1.150  0.320    1.008    Y    Y      Y    ps_6-31g*
  H66       1.597  1.150  0.320    1.008    Y    Y      Y    ps_6-31g*
  H67       1.597  1.150  0.320    1.008    Y    Y      Y    ps_6-31g*
  H68       1.597  1.150  0.320    1.008    Y    Y      Y    ps_6-31g*
  H69       1.597  1.150  0.320    1.008    Y    Y      Y    ps_6-31g*
  H70       1.597  1.150  0.320    1.008    Y    Y      Y    ps_6-31g*
  H71       1.597  1.150  0.320    1.008    Y    Y      Y    ps_6-31g*
  H72       1.597  1.150  0.320    1.008    Y    Y      Y    ps_6-31g*
  H73       1.597  1.150  0.320    1.008    Y    Y      Y    ps_6-31g*
 
  atom      formal  2spin      esp    mulk    frag
  P1           0       0        Y    0.000       0
  Pd2          2       0        Y    0.000       0
  N3          -1       0        Y    0.000       0
  C4          -1       0        Y    0.000       0
  
  end of program pre
   
 Time(pre)  user:       0.966  user+sys:       0.966  wallclock:       0.990
  
  start of program onee
  
  smallest eigenvalue of S:    3.696E-04
  number of canonical orbitals.....          595
  end of program onee
   
 Time(onee)  user:       3.971  user+sys:       3.971  wallclock:       2.928
  
  start of program hfig
  
  initial wavefunction generated automatically from atomic wavefunctions
  Only one state below 0.010000
  Skip d-d repulsion considerations 
 
  Irreducible     Total no   No of occupied orbitals 
  representation  orbitals   Shell_1  Shell_2    ...
  No Symm          595        139
  ------------------------
  Orbital occupation/shell    1.000
 
  end of program hfig
   
 Time(hfig)  user:       1.007  user+sys:       1.007  wallclock:       1.123
  
  start of program probe
  
  end of program probe
   
 Time(probe)  user:       0.515  user+sys:       0.515  wallclock:       0.444
  
  start of program grid
  
   grid     grid set  grid #  grid sym
  ------    --------  ------  --------
  coarse        0        0        1
  medium        2        1        1
  fine          0        0        1
  ultrafine     4        2        1
  charge       -1        3        1
  gradient      4        2        1
  density       0        0        1
  DFT-fine    -11        4        1
  DFT-med.    -10        5        1
  DFT-grad    -12        6        1
  DFT-der2     -8        7        1
  DFT-cphf     -9        8        1
  LMP2-enrg     4        2        1
  LMP2-grad     2        1        1
  DFT-cphf2   -15        9        1
  PBF-dens      0        0        1
  plotting      0        0        1
  Rel-grad    -17        0        1
  
  number of gridpoints: 
     atom           P1         Pd2          N3          C4          C5          C6          C7
  grid # 1         527         349         106          77          93          91          95
  grid # 2         370         295         392         327         325         302         363
  grid # 3           6         199          18          31          19          11           7
  grid # 4        8714        8714        8714        8714        8714        8714        8714
  grid # 5        1192        1192        1192        1192        1192        1192        1192
  grid # 6        9132        9132        5922        5922        5922        5922        5922
  grid # 7       23034       32968       13958       13950       13950       13950       13950
  grid # 8         722        1150         756         748         748         748         748
  grid # 9         366        2198         406         394         394         394         394
   
  number of gridpoints: 
     atom           C8          C9         F10         H11         H12         H13         H14
  grid # 1          88          92         584         116          98         106         115
  grid # 2         289         325         564         463         409         442         464
  grid # 3           7          19         365         366         124         190         381
  grid # 4        8714        8714        8714        8714        8714        8714        8714
  grid # 5        1192        1192        1192        1192        1192        1192        1192
  grid # 6        5922        5922        5922        5922        5922        5922        5922
  grid # 7       13950       13950       23190       15206       15206       15206       15206
  grid # 8         748         748         770         786         786         786         786
  grid # 9         394         394         420         420         420         420         420
   
  number of gridpoints: 
     atom          H15         C16         C17         C18         C19         C20         C21
  grid # 1         108          96          96          96         100          96          96
  grid # 2         433         325         324         322         353         322         323
  grid # 3         139          42          41          36          30          32          39
  grid # 4        8714        8714        8714        8714        8714        8714        8714
  grid # 5        1192        1192        1192        1192        1192        1192        1192
  grid # 6        5922        5922        5922        5922        5922        5922        5922
  grid # 7       15206       13950       13950       13950       13950       13950       13950
  grid # 8         786         748         748         748         748         748         748
  grid # 9         420         394         394         394         394         394         394
   
  number of gridpoints: 
     atom          H22         H23         H24         H25         H26         C27         C28
  grid # 1         118         117         114         115         117          91          87
  grid # 2         466         466         455         457         466         354         337
  grid # 3         412         405         291         288         408           6           6
  grid # 4        8714        8714        8714        8714        8714        8714        8714
  grid # 5        1192        1192        1192        1192        1192        1192        1192
  grid # 6        5922        5922        5922        5922        5922        5922        5922
  grid # 7       15206       15206       15206       15206       15206       13950       13950
  grid # 8         786         786         786         786         786         748         748
  grid # 9         420         420         420         420         420         394         394
   
  number of gridpoints: 
     atom          C29         C30         C31         C32         C33         C34         C35
  grid # 1          87          96          92          95          95          95          93
  grid # 2         344         349         326         323         321         323         324
  grid # 3           6          10          18          29          29          29          21
  grid # 4        8714        8714        8714        8714        8714        8714        8714
  grid # 5        1192        1192        1192        1192        1192        1192        1192
  grid # 6        5922        5922        5922        5922        5922        5922        5922
  grid # 7       13950       13950       13950       13950       13950       13950       13950
  grid # 8         748         748         748         748         748         748         748
  grid # 9         394         394         394         394         394         394         394
   
  number of gridpoints: 
     atom          C36         C37         C38         C39         C40         C41         C42
  grid # 1          97          93          97          95          89          78          81
  grid # 2         349         326         323         318         315         248         240
  grid # 3          11          28          39          18           6           6           6
  grid # 4        8714        8714        8714        8714        8714        8714        8714
  grid # 5        1192        1192        1192        1192        1192        1192        1192
  grid # 6        5922        5922        5922        5922        5922        5922        5922
  grid # 7       13950       13950       13950       13950       13950       13950       13950
  grid # 8         748         748         748         748         748         748         748
  grid # 9         394         394         394         394         394         394         394
   
  number of gridpoints: 
     atom          C43         C44         C45         C46         H47         H48         H49
  grid # 1          79          80          81          80         115         117         116
  grid # 2         246         249         241         242         458         464         463
  grid # 3           6           6           6           6         315         386         381
  grid # 4        8714        8714        8714        8714        8714        8714        8714
  grid # 5        1192        1192        1192        1192        1192        1192        1192
  grid # 6        5922        5922        5922        5922        5922        5922        5922
  grid # 7       13950       13950       13950       13950       15206       15206       15206
  grid # 8         748         748         748         748         786         786         786
  grid # 9         394         394         394         394         420         420         420
   
  number of gridpoints: 
     atom          H50         H51         H52         H53         H54         H55         H56
  grid # 1         116         104         116         118         118          90         102
  grid # 2         459         432         460         465         467         387         429
  grid # 3         359         177         363         420         404          48         187
  grid # 4        8714        8714        8714        8714        8714        8714        8714
  grid # 5        1192        1192        1192        1192        1192        1192        1192
  grid # 6        5922        5922        5922        5922        5922        5922        5922
  grid # 7       15206       15206       15206       15206       15206       15206       15206
  grid # 8         786         786         786         786         786         786         786
  grid # 9         420         420         420         420         420         420         420
   
  number of gridpoints: 
     atom          H57         H58         H59         H60         H61         H62         H63
  grid # 1         107         104          98          98         107          87         107
  grid # 2         445         441         401         415         443         376         436
  grid # 3         282         185         150         135         274          34         205
  grid # 4        8714        8714        8714        8714        8714        8714        8714
  grid # 5        1192        1192        1192        1192        1192        1192        1192
  grid # 6        5922        5922        5922        5922        5922        5922        5922
  grid # 7       15206       15206       15206       15206       15206       15206       15206
  grid # 8         786         786         786         786         786         786         786
  grid # 9         420         420         420         420         420         420         420
   
  number of gridpoints: 
     atom          H64         H65         H66         H67         H68         H69         H70
  grid # 1          93          86          95         107          98         108         100
  grid # 2         392         379         408         441         419         447         422
  grid # 3          49          14         133         232          64         268         125
  grid # 4        8714        8714        8714        8714        8714        8714        8714
  grid # 5        1192        1192        1192        1192        1192        1192        1192
  grid # 6        5922        5922        5922        5922        5922        5922        5922
  grid # 7       15206       15206       15206       15206       15206       15206       15206
  grid # 8         786         786         786         786         786         786         786
  grid # 9         420         420         420         420         420         420         420
   
  number of gridpoints: 
     atom          H71         H72         H73       total
  grid # 1          96         100         109        8399
  grid # 2         403         424         447       27763
  grid # 3         124         177         275        9964
  grid # 4        8714        8714        8714      636122
  grid # 5        1192        1192        1192       87016
  grid # 6        5922        5922        5922      438726
  grid # 7       15206       15206       15206     1102172
  grid # 8         786         786         786       56416
  grid # 9         420         420         420       31538
   
  end of program grid
   
 Time(grid)  user:     262.225  user+sys:     262.225  wallclock:     133.233
  
  start of program rwr
  
  end of program rwr
   
 Time(rwr)  user:      15.298  user+sys:      15.298  wallclock:      18.673
  
  start of program scf
  
 number of electrons..........        278
 number of alpha electrons....        139
 number of beta electrons.....        139
 number of orbitals, total....        595
 number of doubly-occ'd orbs..        139
 number of open shell orbs....          0
 number of occupied orbitals..        139
 number of virtual orbitals...        456
 number of hamiltonians.......          1
 number of shells.............          1
 SCF type: DFT=Becke_3_Parameter/HF+Slater+Becke88+PW91+PW-GGAIIC (B3PW91-D3)
 Energy computed using pseudospectral method.
 Convergence Criterion:
    Energy (econv):       1.00E-05
    RMS density (dconv):  5.00E-06
  
       i  u  d  i  g                   
       t  p  i  c  r                                 RMS    maximum
       e  d  i  u  i                       energy  density   DIIS  
       r  t  s  t  d       total energy    change  change    error 
  
etot    1  N  N  5  M   -1858.72606522026           2.4E-03  1.5E-01
etot    2  Y  Y  6  M   -1861.95991564507  3.2E+00  4.0E-03  9.5E-02
etot    3  Y  Y  6  M   -1862.76573191728  8.1E-01  1.8E-03  5.6E-02
etot    4  N  Y  2  U   -1863.16858052870  4.0E-01  1.5E-03  2.1E-02
etot    5  Y  Y  6  M   -1863.29416058825  1.3E-01  8.2E-04  1.2E-02
etot    6  N  Y  2  U   -1863.30470760479  1.1E-02  6.8E-04  6.4E-03
etot    7  Y  Y  6  M   -1863.31521185469  1.1E-02  1.1E-04  3.7E-03
etot    8  N  Y  2  U   -1863.31920013934  4.0E-03  4.1E-05  1.3E-03
etot    9  N  Y  2  U   -1863.31951078754  3.1E-04  1.4E-05  3.4E-04
etot   10  N  Y  2  U   -1863.31953335857  2.3E-05  6.9E-06  1.8E-04
etot   11  N  Y  2  U   -1863.31954076916  7.4E-06  2.3E-06  3.4E-05
etot   12  N  N  2  U   -1863.31954140023  6.3E-07  0.0E+00  0.0E+00
 
  Computing the dispersion energy correction and its gradients...
  
  
 Energy components, in hartrees:
   (A)  Nuclear repulsion............    4899.26742409747
   (E)  Total one-electron terms.....  -12349.81332984349
   (F)    Electron-nuclear...........  -14125.86424438280
   (H)    Kinetic....................    1776.05091453931
   (I)  Total two-electron terms.....    5587.22636434579
   (J)    Coulomb....................    5828.25037414320
   (K)    Exchange+Correlation.......    -241.02400979740
   (L)  Electronic energy............   -6762.58696549770  (E+I)
   (N0) D3 correction................      -0.13999989026
   (N)  Total energy.................   -1863.45954129049  (A+L+N0)
   (O)  Gas phase energy.............   -1863.45954129049
  
 SCFE: SCF energy: DFT(b3pw91-d3)     -1863.45954129049 hartrees   iterations:  12
  
 
 HOMO energy:    -0.15828
 LUMO energy:    -0.05338
 
  Orbital energies (hartrees): 
   -77.00174   -24.67587   -14.26856   -10.23510   -10.21589   -10.20655
   -10.19766   -10.19654   -10.19446   -10.19320   -10.18877   -10.18586
   -10.18160   -10.18106   -10.18000   -10.17874   -10.17284   -10.17153
   -10.17077   -10.17029   -10.16972   -10.16921   -10.16684   -10.16123
   -10.16029   -10.15935   -10.15139   -10.15107   -10.15036   -10.14664
   -10.14529   -10.14004   -10.13977   -10.13787   -10.13675    -6.53791
    -4.69404    -4.69368    -4.68991    -3.32527    -2.05616    -2.05602
    -2.02552    -1.21209    -0.93209    -0.88127    -0.86230    -0.85396
    -0.83771    -0.83428    -0.80248    -0.78839    -0.78127    -0.76377
    -0.75110    -0.74699    -0.74496    -0.72503    -0.71168    -0.70095
    -0.69299    -0.68834    -0.68708    -0.67642    -0.64613    -0.62846
    -0.61857    -0.60784    -0.59800    -0.59065    -0.58612    -0.57246
    -0.56049    -0.55102    -0.53766    -0.52383    -0.51336    -0.50081
    -0.49810    -0.49567    -0.48230    -0.47738    -0.47480    -0.46985
    -0.46281    -0.46164    -0.45757    -0.45024    -0.44942    -0.44673
    -0.44202    -0.44091    -0.43422    -0.42084    -0.41839    -0.41740
    -0.41365    -0.40940    -0.40484    -0.40014    -0.39638    -0.39146
    -0.38865    -0.38696    -0.38511    -0.38142    -0.38051    -0.37438
    -0.37201    -0.36935    -0.36611    -0.36399    -0.35253    -0.35158
    -0.34801    -0.33993    -0.33654    -0.32943    -0.32560    -0.32178
    -0.31943    -0.31356    -0.30949    -0.30082    -0.29343    -0.28672
    -0.27547    -0.26931    -0.26228    -0.25651    -0.25295    -0.24831
    -0.23596    -0.22067    -0.21581    -0.21140    -0.20140    -0.18249
    -0.15828    -0.05338    -0.03488    -0.02815    -0.01496    -0.01217
     0.00698     0.01403     0.02827     0.03768     0.04292
 
  end of program scf
   
 Time(scf)  user:     425.356  user+sys:     425.356  wallclock:     225.672
  
  start of program der1a
  
  end of program der1a
   
 Time(der1a)  user:      12.250  user+sys:      12.250  wallclock:       6.631
  
  start of program rwr
  
  end of program rwr
   
 Time(rwr)  user:      16.843  user+sys:      16.843  wallclock:      22.216
  
  start of program der1b
  
   
  forces (hartrees/bohr) : total     
   
 atom  label           x              y              z
 ---- --------   -------------  -------------  -------------
    1 P1          1.498093E-03   6.051279E-03   3.047737E-01
    2 Pd2         7.655422E-03  -1.114051E-02   4.120275E-03
    3 N3         -8.349515E-03  -9.892092E-03   5.405726E-02
    4 C4          3.741166E-02  -2.947741E-03  -5.481131E-03
    5 C5         -1.150506E-02   7.416598E-03   7.632778E-03
    6 C6         -5.082003E-02  -2.377628E-02   7.828604E-02
    7 C7          2.525696E-03  -8.968774E-03   6.546701E-02
    8 C8         -1.300165E-02   1.246496E-02   5.873076E-02
    9 C9         -1.844043E-02  -9.410836E-03   6.858152E-03
   10 F10        -5.930511E-03   3.713990E-04   4.923008E-04
   11 H11         3.471589E-05  -2.152715E-03   3.875562E-04
   12 H12        -3.161532E-02  -5.389256E-03   3.435585E-02
   13 H13        -1.908428E-03   4.468824E-04   3.130914E-03
   14 H14        -6.679200E-04   2.360591E-03  -8.215631E-04
   15 H15        -2.400000E-02   4.131606E-02  -2.709299E-02
   16 C16        -3.636611E-03   2.778904E-03   2.444853E-03
   17 C17         3.280571E-03  -1.420262E-03  -1.394188E-03
   18 C18        -9.875919E-03   2.544916E-03   1.186004E-02
   19 C19         3.183666E-02  -2.793337E-02  -1.843507E-02
   20 C20        -4.689008E-03   9.466950E-03   9.909754E-05
   21 C21         1.414903E-04  -3.225727E-03  -2.469172E-03
   22 H22         7.175730E-03  -4.772141E-03  -5.630608E-03
   23 H23         6.572819E-03   5.450844E-03  -5.540118E-03
   24 H24         1.547602E-04   1.083274E-02  -1.820230E-03
   25 H25        -5.225617E-03  -8.346835E-03   4.760397E-03
   26 H26         6.959326E-04  -1.008681E-02  -1.924789E-04
   27 C27         2.726826E-01  -2.807959E-03  -9.521577E-02
   28 C28        -1.461788E-01   2.616802E-01  -1.022003E-01
   29 C29        -1.289776E-01  -2.672334E-01  -9.710936E-02
   30 C30        -9.111178E-03   9.751227E-06   6.407007E-02
   31 C31         1.222703E-02   1.842230E-02   9.327842E-03
   32 C32         2.184646E-03  -4.228139E-03  -1.447026E-03
   33 C33         1.400206E-03  -7.967207E-04  -5.416844E-04
   34 C34         8.022297E-03   2.217012E-03   3.305450E-03
   35 C35        -7.086134E-03  -2.123421E-02   5.991447E-03
   36 C36         1.649856E-02   8.665409E-03  -6.742551E-02
   37 C37         1.755882E-02   5.097501E-05  -3.329465E-03
   38 C38        -4.121213E-03   5.244877E-04  -9.495011E-04
   39 C39        -1.077481E-03   7.077076E-04   1.391938E-03
   40 C40         3.241784E-02   2.845135E-03  -2.481495E-02
   41 C41         6.331749E-03   2.671123E-02  -2.976275E-03
   42 C42        -2.165263E-02   2.099244E-02  -1.699294E-02
   43 C43         1.390984E-02   3.135564E-02  -5.577008E-02
   44 C44        -1.188197E-02  -1.448694E-02  -3.568606E-02
   45 C45         2.093106E-03  -2.860505E-02   3.084825E-03
   46 C46        -3.426019E-03  -2.400101E-02  -2.481589E-02
   47 H47        -5.040446E-03  -7.109201E-03  -1.110717E-02
   48 H48        -4.680968E-03  -6.348863E-03  -9.546401E-03
   49 H49        -1.408900E-03   2.098290E-03  -1.075379E-02
   50 H50         1.848700E-03   8.708760E-03  -7.657949E-03
   51 H51         5.943822E-03   7.853537E-03  -5.801250E-03
   52 H52        -9.909276E-03  -1.284578E-03   1.160265E-02
   53 H53        -8.111331E-03  -7.330274E-04   8.431955E-03
   54 H54        -1.774794E-03  -1.500462E-03   1.079560E-02
   55 H55         2.196600E-02  -7.677289E-04   1.240918E-02
   56 H56        -9.510096E-03   5.217818E-03   1.008573E-02
   57 H57         3.742240E-04  -1.110343E-02   3.972969E-03
   58 H58        -4.845085E-03  -2.588111E-03  -8.955343E-03
   59 H59        -1.690539E-02   9.806705E-03   6.772633E-03
   60 H60         8.499838E-03   1.481909E-02  -6.045630E-04
   61 H61         5.945827E-03  -6.634255E-03   6.311133E-03
   62 H62         3.243685E-02   5.548749E-03  -6.247270E-02
   63 H63         4.799831E-03  -5.173890E-03  -4.652207E-03
   64 H64         2.011722E-02   2.573882E-02  -2.290753E-02
   65 H65         8.055248E-03  -5.608220E-03  -6.126825E-02
   66 H66         4.552708E-03  -1.344782E-02   5.206196E-03
   67 H67         6.825177E-03   7.720688E-03   4.846227E-04
   68 H68        -1.741136E-03   9.358695E-04  -1.326942E-02
   69 H69         1.265662E-03   1.055451E-02  -7.887576E-04
   70 H70        -1.448680E-02  -1.633602E-03  -1.729382E-04
   71 H71         8.432221E-03  -2.302971E-02   6.298323E-03
   72 H72        -1.376999E-02  -4.184352E-03   2.937454E-03
   73 H73         2.856770E-03   7.956725E-03   7.655032E-03
 -------------   -------------  -------------  -------------
     total        2.867093E-03  -1.360034E-03  -5.186211E-04
   
  end of program der1b
   
 Time(der1b)  user:     129.697  user+sys:     129.697  wallclock:      68.474
  
  start of program geopt
  
 ----------------------------------------------------------------------------
  Geometry optimization step  1
  Total energy:     -1863.45954129049 hartrees
 ----------------------------------------------------------------------------
  
  
  Level shifts adjusted to satisfy step-size constraints
   Step size:    0.3000324
   Cos(theta):   0.8357410
   Final level shift:  -2.3911215E+00
  
  gradient maximum:        1.0379E+00 .  (  2.2500E-03 )
  gradient rms:            1.0024E-01 .  (  1.5000E-03 )
  displacement maximum:    1.4168E-01 .  (  9.0000E-03 )
  displacement rms:        1.9089E-02 .  (  6.0000E-03 )
  
  predicted energy change:  -3.0513E-01
  step size:     0.30001
  trust radius:  0.30000
  
  molecular structure not yet converged...
  
  center of mass moved by:
     x:    -2.6856E-02     y:    -8.5299E-03     z:     1.7749E-02
  
  new geometry: 
                                   angstroms
  atom               x                 y                 z
  P1           -0.0135877606      0.0045611541     -0.1061846504 
  Pd2          -0.0729229298      0.0208634265      2.2199611555 
  N3            0.2230635856     -0.0104330221      4.1817802806 
  C4           -4.8490908300     -0.4437518179      2.7556398870 
  C5           -4.2734504961      0.8277570453      2.6913555926 
  C6           -2.8966970025      0.9957307187      2.5150092148 
  C7           -2.0591279413     -0.1223707299      2.4042211817 
  C8           -2.6303561752     -1.3967635585      2.4805621946 
  C9           -4.0067077528     -1.5535969004      2.6526792457 
  F10          -6.1653083029     -0.6040075077      2.9030215201 
  H11          -4.9098590541      1.7078134460      2.7824213716 
  H12          -2.4986510447      2.0039597491      2.5000139963 
  H13          -2.0037546650     -2.2834298218      2.4187629836 
  H14          -4.4331688345     -2.5549898253      2.7125132321 
  H15           0.5421590049     -0.9500364893      4.6316252822 
  C16          -2.6174773412      1.8782888952      6.7301962082 
  C17          -2.5605434196      0.4785815257      6.6604894040 
  C18          -1.6256276918     -0.1442117112      5.8215817735 
  C19          -0.7453516985      0.6314513230      5.0499712389 
  C20          -0.8025448021      2.0320644069      5.1199917225 
  C21          -1.7383631345      2.6541348591      5.9596847531 
  H22          -3.3520067916      2.3674628484      7.3891923591 
  H23          -3.2505202119     -0.1313806500      7.2647937178 
  H24          -1.5806843031     -1.2431812863      5.7653691417 
  H25          -0.1113360333      2.6400146987      4.5154400845 
  H26          -1.7820757451      3.7533992212      6.0137403888 
  C27           1.4784948673      0.0079523802     -0.5757858560 
  C28          -0.6919584424      1.3055562821     -0.6786895730 
  C29          -0.6918442782     -1.3123001850     -0.6356369728 
  C30           2.6730350254     -0.4322451214      1.6798122050 
  C31           3.0964246711      0.5750824707      2.5846545928 
  C32           3.1915667356      0.4036374419      3.9734607902 
  C33           2.8680841979     -0.8204946609      4.5619748426 
  C34           2.4394664487     -1.8478277242      3.7185985816 
  C35           2.3509978736     -1.6446144103      2.3330783657 
  C36           2.6289787352     -0.2029037017      0.2531714105 
  C37           3.8747191326     -0.1774996695     -0.4206835424 
  C38           4.0394905440      0.0326013930     -1.7925578186 
  C39           2.9144687374      0.2349993264     -2.5851480309 
  C40           1.6678838459      0.2164934519     -1.9587239665 
  C41           0.3275025790      2.4690624247     -0.6706291813 
  C42          -1.3743229792      1.3401481446     -2.0674584795 
  C43          -1.7953329637      1.7699827783      0.2868240163 
  C44          -2.1928420020     -1.4149749385     -0.2901498301 
  C45          -0.0249091822     -2.4955131295      0.1050078549 
  C46          -0.5561718060     -1.6794651327     -2.1309858025 
  H47           3.3868748987      1.5807654562      2.2611239262 
  H48           3.5288992177      1.2355412717      4.6116272350 
  H49           2.9389051461     -0.9678080803      5.6506423553 
  H50           2.1749610894     -2.8266459895      4.1491533698 
  H51           2.0078240607     -2.5262979907      1.7964021715 
  H52           4.8296822130     -0.3232750840      0.0950027311 
  H53           5.0433569597      0.0389396251     -2.2461552009 
  H54           3.0039150467      0.4023264022     -3.6698354773 
  H55           0.8162533778      0.3786737678     -2.6202180923 
  H56           1.1377528061      2.3188765692     -1.4136574630 
  H57          -0.1565138221      3.4389238878     -0.9187004163 
  H58           0.8070603759      2.5827855619      0.3264284035 
  H59          -0.6838805260      1.1626762694     -2.9133128678 
  H60          -2.2097727848      0.6171104916     -2.1426001843 
  H61          -1.8208356655      2.3403016656     -2.2593481197 
  H62          -1.3874259930      1.9057496854      1.3066497702 
  H63          -2.2411058892      2.7393529293     -0.0300003081 
  H64          -2.6252907261      1.0410820547      0.3495855625 
  H65          -2.3785185156     -1.2279276978      0.7943402384 
  H66          -2.8050838804     -0.6931575703     -0.8666740349 
  H67          -2.5977860961     -2.4239790919     -0.5239221640 
  H68          -0.1486500755     -2.4074680241      1.2063050710 
  H69          -0.4629254974     -3.4713590315     -0.1997346783 
  H70           1.0647797573     -2.5477599391     -0.1067811896 
  H71          -0.9795345808     -0.9104285575     -2.8030386832 
  H72           0.5003145273     -1.8553154028     -2.4219549391 
  H73          -1.0975158723     -2.6240097096     -2.3570267448 
   
 
  bond lengths (angstroms):
 
 P1      -Pd2     :   2.326960      P1      -C27     :   1.564240
 P1      -C28     :   1.574972      P1      -C29     :   1.573047
 Pd2     -N3      :   1.984269      Pd2     -C7      :   1.999870
 N3      -H15     :   1.089512      N3      -C19     :   1.450379
 C4      -C5      :   1.397222      C4      -C9      :   1.397128
 C4      -F10     :   1.334103      C5      -C6      :   1.398129
 C5      -H11     :   1.089866      C6      -C7      :   1.401409
 C6      -H12     :   1.084062      C7      -C8      :   1.398645
 C8      -C9      :   1.395910      C8      -H13     :   1.087486
 C9      -H14     :   1.090063      C16     -C17     :   1.402598
 C16     -C21     :   1.403021      C16     -H22     :   1.101408
 C17     -C18     :   1.402036      C17     -H23     :   1.101501
 C18     -C19     :   1.404251      C18     -H24     :   1.101324
 C19     -C20     :   1.403528      C20     -C21     :   1.402787
 C20     -H25     :   1.101297      C21     -H26     :   1.101460
 C27     -C36     :   1.433612      C27     -C40     :   1.411338
 C28     -C41     :   1.546969      C28     -C42     :   1.547739
 C28     -C43     :   1.537967      C29     -C44     :   1.543664
 C29     -C45     :   1.547046      C29     -C46     :   1.545731
 C30     -C31     :   1.418699      C30     -C35     :   1.414321
 C30     -C36     :   1.445629      C31     -C32     :   1.402579
 C31     -H47     :   1.095642      C32     -C33     :   1.396241
 C32     -H48     :   1.101414      C33     -C34     :   1.396571
 C33     -H49     :   1.100870      C34     -C35     :   1.403135
 C34     -H50     :   1.101556      C35     -H51     :   1.087730
 C36     -C37     :   1.416543      C37     -C38     :   1.397616
 C37     -H52     :   1.095051      C38     -C39     :   1.390985
 C38     -H53     :   1.101607      C39     -C40     :   1.395250
 C39     -H54     :   1.101157      C40     -H55     :   1.090482
 C41     -H56     :   1.109573      C41     -H57     :   1.111954
 C41     -H58     :   1.112220      C42     -H59     :   1.106199
 C42     -H60     :   1.107432      C42     -H61     :   1.111981
 C43     -H62     :   1.106736      C43     -H63     :   1.113000
 C43     -H64     :   1.106375      C44     -H65     :   1.116056
 C44     -H66     :   1.108260      C44     -H67     :   1.112079
 C45     -H68     :   1.111719      C45     -H69     :   1.112206
 C45     -H70     :   1.111308      C46     -H71     :   1.105581
 C46     -H72     :   1.109842      C46     -H73     :   1.111896
 
  bond angles:
 
 C27     -P1      -Pd2     : 108.930016  C28     -P1      -Pd2     : 110.279771
 C28     -P1      -C27     : 107.453550  C29     -P1      -Pd2     : 109.349540
 C29     -P1      -C27     : 108.183106  C29     -P1      -C28     : 112.547742
 N3      -Pd2     -P1      : 169.874959  C7      -Pd2     -P1      :  96.714774
 C7      -Pd2     -N3      :  93.205887  H15     -N3      -Pd2     : 117.742922
 C19     -N3      -Pd2     : 119.028534  C19     -N3      -H15     : 109.273168
 C9      -C4      -C5      : 118.106264  F10     -C4      -C5      : 121.390161
 F10     -C4      -C9      : 120.502409  C6      -C5      -C4      : 121.387666
 H11     -C5      -C4      : 119.368142  H11     -C5      -C6      : 119.244084
 C7      -C6      -C5      : 120.174953  H12     -C6      -C5      : 118.362514
 H12     -C6      -C7      : 121.432023  C6      -C7      -Pd2     : 122.937205
 C8      -C7      -Pd2     : 118.418815  C8      -C7      -C6      : 118.590969
 C9      -C8      -C7      : 120.783415  H13     -C8      -C7      : 120.296559
 H13     -C8      -C9      : 118.915672  C8      -C9      -C4      : 120.952552
 H14     -C9      -C4      : 119.329270  H14     -C9      -C8      : 119.717605
 C21     -C16     -C17     : 119.941488  H22     -C16     -C17     : 120.001708
 H22     -C16     -C21     : 120.056803  C18     -C17     -C16     : 120.006319
 H23     -C17     -C16     : 119.994837  H23     -C17     -C18     : 119.998843
 C19     -C18     -C17     : 120.094496  H24     -C18     -C17     : 120.066803
 H24     -C18     -C19     : 119.838665  C18     -C19     -N3      : 120.199773
 C20     -C19     -N3      : 119.915069  C20     -C19     -C18     : 119.885146
 C21     -C20     -C19     : 119.972197  H25     -C20     -C19     : 119.862654
 H25     -C20     -C21     : 120.165134  C20     -C21     -C16     : 120.100352
 H26     -C21     -C16     : 120.004075  H26     -C21     -C20     : 119.895570
 C36     -C27     -P1      : 126.269096  C40     -C27     -P1      : 114.991930
 C40     -C27     -C36     : 118.727061  C41     -C28     -P1      : 109.605582
 C42     -C28     -P1      : 122.311541  C42     -C28     -C41     : 106.165131
 C43     -C28     -P1      : 109.284008  C43     -C28     -C41     : 104.027905
 C43     -C28     -C42     : 103.901834  C44     -C29     -P1      : 113.553697
 C45     -C29     -P1      : 107.052442  C45     -C29     -C44     : 105.139345
 C46     -C29     -P1      : 119.118137  C46     -C29     -C44     : 106.622335
 C46     -C29     -C45     : 104.101054  C35     -C30     -C31     : 112.458111
 C36     -C30     -C31     : 121.726923  C36     -C30     -C35     : 125.794483
 C32     -C31     -C30     : 124.401356  H47     -C31     -C30     : 122.855165
 H47     -C31     -C32     : 112.743467  C33     -C32     -C31     : 120.584743
 H48     -C32     -C31     : 120.143482  H48     -C32     -C33     : 119.270933
 C34     -C33     -C32     : 117.483984  H49     -C33     -C32     : 121.281496
 H49     -C33     -C34     : 121.232023  C35     -C34     -C33     : 120.605438
 H50     -C34     -C33     : 119.426404  H50     -C34     -C35     : 119.967251
 C34     -C35     -C30     : 124.463887  H51     -C35     -C30     : 122.600182
 H51     -C35     -C34     : 112.935568  C30     -C36     -C27     : 128.201232
 C37     -C36     -C27     : 115.343186  C37     -C36     -C30     : 116.455316
 C38     -C37     -C36     : 124.981867  H52     -C37     -C36     : 122.718480
 H52     -C37     -C38     : 112.299623  C39     -C38     -C37     : 119.066959
 H53     -C38     -C37     : 120.828822  H53     -C38     -C39     : 120.104219
 C40     -C39     -C38     : 117.701325  H54     -C39     -C38     : 121.177808
 H54     -C39     -C40     : 121.120781  C39     -C40     -C27     : 124.179481
 H55     -C40     -C27     : 120.768941  H55     -C40     -C39     : 115.051563
 H56     -C41     -C28     : 112.082269  H57     -C41     -C28     : 111.591823
 H57     -C41     -H56     : 106.649879  H58     -C41     -C28     : 111.451837
 H58     -C41     -H56     : 107.415418  H58     -C41     -H57     : 107.367208
 H59     -C42     -C28     : 114.038348  H60     -C42     -C28     : 112.264976
 H60     -C42     -H59     : 108.314715  H61     -C42     -C28     : 110.608265
 H61     -C42     -H59     : 105.246727  H61     -C42     -H60     : 105.819003
 H62     -C43     -C28     : 110.555306  H63     -C43     -C28     : 111.816784
 H63     -C43     -H62     : 107.642582  H64     -C43     -C28     : 112.014957
 H64     -C43     -H62     : 107.760052  H64     -C43     -H63     : 106.827893
 H65     -C44     -C29     : 111.598633  H66     -C44     -C29     : 112.173839
 H66     -C44     -H65     : 107.723795  H67     -C44     -C29     : 111.553477
 H67     -C44     -H65     : 107.202462  H67     -C44     -H66     : 106.285646
 H68     -C45     -C29     : 111.450907  H69     -C45     -C29     : 111.721527
 H69     -C45     -H68     : 107.282422  H70     -C45     -C29     : 111.557505
 H70     -C45     -H68     : 107.556952  H70     -C45     -H69     : 107.019541
 H71     -C46     -C29     : 112.906033  H72     -C46     -C29     : 112.012905
 H72     -C46     -H71     : 108.383169  H73     -C46     -C29     : 110.837401
 H73     -C46     -H71     : 106.313211  H73     -C46     -H72     : 105.995594
 
  torsional angles:
 
 P1      -Pd2     -N3      -H15     : -67.706161
 P1      -Pd2     -N3      -C19     : 156.369970
 P1      -Pd2     -C7      -C6      : -92.494760
 P1      -Pd2     -C7      -C8      :  90.193300
 P1      -C27     -C36     -C30     :  -1.424875
 P1      -C27     -C36     -C37     : 178.771190
 P1      -C27     -C40     -C39     :-178.964423
 P1      -C27     -C40     -H55     :   1.082352
 P1      -C28     -C41     -H56     :  69.264710
 P1      -C28     -C41     -H57     :-171.190830
 P1      -C28     -C41     -H58     : -51.162654
 P1      -C28     -C42     -H59     : -63.769533
 P1      -C28     -C42     -H60     :  59.900547
 P1      -C28     -C42     -H61     : 177.847648
 P1      -C28     -C43     -H62     :  54.889081
 P1      -C28     -C43     -H63     : 174.807665
 P1      -C28     -C43     -H64     : -65.310350
 P1      -C29     -C44     -H65     : -50.449436
 P1      -C29     -C44     -H66     :  70.542682
 P1      -C29     -C44     -H67     :-170.341898
 P1      -C29     -C45     -H68     :  58.948660
 P1      -C29     -C45     -H69     : 178.956751
 P1      -C29     -C45     -H70     : -61.297218
 P1      -C29     -C46     -H71     : -60.029647
 P1      -C29     -C46     -H72     :  62.661991
 P1      -C29     -C46     -H73     :-179.179663
 Pd2     -P1      -C27     -C36     :  11.070784
 Pd2     -P1      -C27     -C40     :-170.209129
 Pd2     -P1      -C28     -C41     :  82.850552
 Pd2     -P1      -C28     -C42     :-152.052249
 Pd2     -P1      -C28     -C43     : -30.554761
 Pd2     -P1      -C29     -C44     :  63.903259
 Pd2     -P1      -C29     -C45     : -51.673376
 Pd2     -P1      -C29     -C46     :-169.225414
 Pd2     -N3      -C19     -C18     : 106.480379
 Pd2     -N3      -C19     -C20     : -73.559672
 Pd2     -C7      -C6      -C5      :-177.614505
 Pd2     -C7      -C6      -H12     :   0.343285
 Pd2     -C7      -C8      -C9      : 177.937730
 Pd2     -C7      -C8      -H13     :  -1.294962
 N3      -Pd2     -P1      -C27     :  -7.678090
 N3      -Pd2     -P1      -C28     :-125.373036
 N3      -Pd2     -P1      -C29     : 110.361629
 N3      -Pd2     -C7      -C6      :  89.532825
 N3      -Pd2     -C7      -C8      : -87.779115
 N3      -C19     -C18     -C17     : 179.974959
 N3      -C19     -C18     -H24     :  -0.094372
 N3      -C19     -C20     -C21     :-179.975286
 N3      -C19     -C20     -H25     :  -0.020446
 C4      -C5      -C6      -C7      :  -0.285787
 C4      -C5      -C6      -H12     :-178.305567
 C4      -C9      -C8      -C7      :  -0.119157
 C4      -C9      -C8      -H13     : 179.123973
 C5      -C4      -C9      -C8      :  -0.465166
 C5      -C4      -C9      -H14     : 179.258346
 C5      -C6      -C7      -C8      :  -0.306957
 C6      -C5      -C4      -C9      :   0.667523
 C6      -C5      -C4      -F10     :-178.941494
 C6      -C7      -C8      -C9      :   0.506953
 C6      -C7      -C8      -H13     :-178.725739
 C7      -Pd2     -P1      -C27     :-176.085948
 C7      -Pd2     -P1      -C28     :  66.219106
 C7      -Pd2     -P1      -C29     : -58.046229
 C7      -Pd2     -N3      -H15     : 100.764013
 C7      -Pd2     -N3      -C19     : -35.159856
 C7      -C6      -C5      -H11     : 179.593732
 C7      -C8      -C9      -H14     :-179.841605
 C8      -C7      -C6      -H12     : 177.650832
 C8      -C9      -C4      -F10     : 179.147466
 C9      -C4      -C5      -H11     :-179.211850
 F10     -C4      -C5      -H11     :   1.179133
 F10     -C4      -C9      -H14     :  -1.129022
 H11     -C5      -C6      -H12     :   1.573952
 H13     -C8      -C9      -H14     :  -0.598475
 H15     -N3      -C19     -C18     : -32.811818
 H15     -N3      -C19     -C20     : 147.148131
 C16     -C17     -C18     -C19     :  -0.012513
 C16     -C17     -C18     -H24     :-179.943023
 C16     -C21     -C20     -C19     :   0.012973
 C16     -C21     -C20     -H25     :-179.941729
 C17     -C16     -C21     -C20     :  -0.010467
 C17     -C16     -C21     -H26     :-179.991008
 C17     -C18     -C19     -C20     :   0.014998
 C18     -C17     -C16     -C21     :   0.010226
 C18     -C17     -C16     -H22     : 179.995446
 C18     -C19     -C20     -C21     :  -0.015211
 C18     -C19     -C20     -H25     : 179.939630
 C19     -C18     -C17     -H23     : 179.978813
 C19     -C20     -C21     -H26     : 179.993536
 C20     -C19     -C18     -H24     : 179.945668
 C20     -C21     -C16     -H22     :-179.995679
 C21     -C16     -C17     -H23     :-179.981101
 H22     -C16     -C17     -H23     :   0.004120
 H22     -C16     -C21     -H26     :   0.023780
 H23     -C17     -C18     -H24     :   0.048303
 H25     -C20     -C21     -H26     :   0.038834
 C27     -P1      -C28     -C41     : -35.751285
 C27     -P1      -C28     -C42     :  89.345915
 C27     -P1      -C28     -C43     :-149.156597
 C27     -P1      -C29     -C44     :-177.590827
 C27     -P1      -C29     -C45     :  66.832538
 C27     -P1      -C29     -C46     : -50.719500
 C27     -C36     -C30     -C31     :-105.501805
 C27     -C36     -C30     -C35     :  76.271335
 C27     -C36     -C37     -C38     :  -0.017986
 C27     -C36     -C37     -H52     : 179.913455
 C27     -C40     -C39     -C38     :   0.099079
 C27     -C40     -C39     -H54     : 179.993643
 C28     -P1      -C27     -C36     : 130.538707
 C28     -P1      -C27     -C40     : -50.741207
 C28     -P1      -C29     -C44     : -59.023041
 C28     -P1      -C29     -C45     :-174.599676
 C28     -P1      -C29     -C46     :  67.848286
 C29     -P1      -C27     -C36     :-107.701745
 C29     -P1      -C27     -C40     :  71.018342
 C29     -P1      -C28     -C41     :-154.745945
 C29     -P1      -C28     -C42     : -29.648746
 C29     -P1      -C28     -C43     :  91.848742
 C30     -C31     -C32     -C33     :   0.364749
 C30     -C31     -C32     -H48     :-179.971464
 C30     -C35     -C34     -C33     :   0.009676
 C30     -C35     -C34     -H50     :-179.641901
 C30     -C36     -C27     -C40     : 179.898027
 C30     -C36     -C37     -C38     :-179.845888
 C30     -C36     -C37     -H52     :   0.085553
 C31     -C30     -C35     -C34     :  -0.239120
 C31     -C30     -C35     -H51     : 179.995640
 C31     -C30     -C36     -C37     :  74.300274
 C31     -C32     -C33     -C34     :  -0.586581
 C31     -C32     -C33     -H49     : 179.981388
 C32     -C31     -C30     -C35     :   0.053417
 C32     -C31     -C30     -C36     :-178.390383
 C32     -C33     -C34     -C35     :   0.411271
 C32     -C33     -C34     -H50     :-179.935281
 C33     -C32     -C31     -H47     :-179.596776
 C33     -C34     -C35     -H51     : 179.794925
 C34     -C33     -C32     -H48     : 179.746724
 C34     -C35     -C30     -C36     : 178.128983
 C35     -C30     -C31     -H47     :-179.988824
 C35     -C30     -C36     -C37     :-103.926586
 C35     -C34     -C33     -H49     : 179.843600
 C36     -C27     -C40     -C39     :  -0.141172
 C36     -C27     -C40     -H55     : 179.905603
 C36     -C30     -C31     -H47     :   1.567377
 C36     -C30     -C35     -H51     :  -1.636256
 C36     -C37     -C38     -C39     :  -0.022442
 C36     -C37     -C38     -H53     : 179.983366
 C37     -C36     -C27     -C40     :   0.094091
 C37     -C38     -C39     -C40     :  -0.015475
 C37     -C38     -C39     -H54     :-179.909975
 C38     -C39     -C40     -H55     :-179.945285
 C39     -C38     -C37     -H52     :-179.960098
 C40     -C39     -C38     -H53     : 179.978760
 C41     -C28     -C42     -H59     :  62.863767
 C41     -C28     -C42     -H60     :-173.466154
 C41     -C28     -C42     -H61     : -55.519053
 C41     -C28     -C43     -H62     : -62.100750
 C41     -C28     -C43     -H63     :  57.817833
 C41     -C28     -C43     -H64     : 177.699819
 C42     -C28     -C41     -H56     : -64.684864
 C42     -C28     -C41     -H57     :  54.859597
 C42     -C28     -C41     -H58     : 174.887773
 C42     -C28     -C43     -H62     :-173.045204
 C42     -C28     -C43     -H63     : -53.126620
 C42     -C28     -C43     -H64     :  66.755366
 C43     -C28     -C41     -H56     :-173.969447
 C43     -C28     -C41     -H57     : -54.424987
 C43     -C28     -C41     -H58     :  65.603189
 C43     -C28     -C42     -H59     : 172.237728
 C43     -C28     -C42     -H60     : -64.092192
 C43     -C28     -C42     -H61     :  53.854909
 C44     -C29     -C45     -H68     : -62.115744
 C44     -C29     -C45     -H69     :  57.892348
 C44     -C29     -C45     -H70     : 177.638379
 C44     -C29     -C46     -H71     :  70.035171
 C44     -C29     -C46     -H72     :-167.273191
 C44     -C29     -C46     -H73     : -49.114845
 C45     -C29     -C44     -H65     :  66.252173
 C45     -C29     -C44     -H66     :-172.755709
 C45     -C29     -C44     -H67     : -53.640288
 C45     -C29     -C46     -H71     :-179.108947
 C45     -C29     -C46     -H72     : -56.417310
 C45     -C29     -C46     -H73     :  61.741037
 C46     -C29     -C44     -H65     : 176.383387
 C46     -C29     -C44     -H66     : -62.624495
 C46     -C29     -C44     -H67     :  56.490925
 C46     -C29     -C45     -H68     :-174.048541
 C46     -C29     -C45     -H69     : -54.040450
 C46     -C29     -C45     -H70     :  65.705581
 H47     -C31     -C32     -H48     :   0.067011
 H48     -C32     -C33     -H49     :   0.314692
 H49     -C33     -C34     -H50     :  -0.502952
 H50     -C34     -C35     -H51     :   0.143348
 H52     -C37     -C38     -H53     :   0.045710
 H53     -C38     -C39     -H54     :   0.084260
[...]
    H64      Z    -0.00038   0.00020   0.00003   0.00017   0.00004   0.00129
    H65      X     0.00013  -0.00012  -0.00252   0.00454  -0.00014  -0.00227
    H65      Y    -0.00004   0.00005   0.00148  -0.00270   0.00004   0.00120
    H65      Z    -0.00046   0.00040   0.00698  -0.01263   0.00040   0.00674
    H66      X     0.00005   0.00013   0.00098  -0.00202   0.00008   0.00062
    H66      Y    -0.00009  -0.00023  -0.00206   0.00414  -0.00020  -0.00129
    H66      Z     0.00011   0.00016   0.00171  -0.00346   0.00014   0.00092
    H67      X    -0.00002   0.00001   0.00005   0.00011   0.00021   0.00018
    H67      Y    -0.00005   0.00002   0.00007   0.00035   0.00039   0.00044
    H67      Z    -0.00001  -0.00000  -0.00029   0.00070   0.00014  -0.00007
    H68      X    -0.00005  -0.00116  -0.00301   0.00743   0.00009  -0.00233
    H68      Y    -0.00001  -0.00012  -0.00022   0.00050  -0.00001  -0.00012
    H68      Z     0.00006   0.00222   0.01281  -0.02659  -0.00025   0.00844
    H69      X     0.00009   0.00107   0.00030  -0.00199   0.00015   0.00056
    H69      Y     0.00019   0.00244   0.00018  -0.00370   0.00032   0.00105
    H69      Z     0.00011   0.00146  -0.00031  -0.00153   0.00014   0.00037
    H70      X     0.00061   0.00891  -0.00995   0.00232  -0.00013  -0.00177
    H70      Y    -0.00003  -0.00035   0.00021   0.00016  -0.00008  -0.00001
    H70      Z    -0.00001  -0.00025   0.00024  -0.00021   0.00000   0.00006
    H71      X     0.00006   0.00018  -0.00003  -0.00033  -0.00012  -0.00003
    H71      Y    -0.00019  -0.00052   0.00008   0.00090   0.00044   0.00009
    H71      Z     0.00013   0.00037  -0.00006  -0.00066  -0.00026  -0.00007
    H72      X     0.00012   0.00086  -0.00079   0.00038   0.00392  -0.00051
    H72      Y    -0.00002  -0.00011   0.00008  -0.00008  -0.00078   0.00008
    H72      Z    -0.00002  -0.00016   0.00016  -0.00008  -0.00052   0.00008
    H73      X     0.00006   0.00008  -0.00006   0.00023   0.00110  -0.00008
    H73      Y     0.00011   0.00014  -0.00016   0.00044   0.00165  -0.00014
    H73      Z     0.00005   0.00004  -0.00007   0.00025   0.00065  -0.00007
  
  vibration #          211       212       213
                 --------- --------- ---------
  frequencies      3222.33   3255.80   3511.89
  intensities         8.75      8.72      1.33
  reduc. mass         0.37      0.88      0.94
  force const         2.27      5.49      6.83
    P1       X     0.00001   0.00001   0.00004
    P1       Y    -0.00000  -0.00002  -0.00001
    P1       Z     0.00000   0.00012   0.00001
    Pd2      X     0.00002  -0.00001  -0.00005
    Pd2      Y     0.00000  -0.00000  -0.00000
    Pd2      Z     0.00000  -0.00000  -0.00004
    N3       X    -0.00001   0.00000  -0.02421
    N3       Y     0.00002   0.00002  -0.06084
    N3       Z     0.00010   0.00003   0.02132
    C4       X     0.00002   0.00001   0.00002
    C4       Y    -0.00000   0.00000  -0.00000
    C4       Z    -0.00001  -0.00000  -0.00000
    C5       X     0.00003   0.00002   0.00003
    C5       Y    -0.00004  -0.00002  -0.00001
    C5       Z    -0.00001  -0.00001   0.00001
    C6       X     0.00003  -0.00001  -0.00005
    C6       Y     0.00010  -0.00000  -0.00020
    C6       Z     0.00002  -0.00000  -0.00008
    C7       X     0.00004   0.00003  -0.00015
    C7       Y     0.00000   0.00000   0.00013
    C7       Z    -0.00003  -0.00000  -0.00007
    C8       X    -0.00013  -0.00002   0.00001
    C8       Y     0.00013   0.00002   0.00013
    C8       Z     0.00006   0.00001   0.00003
    C9       X     0.00007   0.00001  -0.00000
    C9       Y     0.00017   0.00003   0.00001
    C9       Z     0.00002   0.00000   0.00002
    F10      X    -0.00001  -0.00001  -0.00002
    F10      Y     0.00000  -0.00000  -0.00000
    F10      Z     0.00000  -0.00000  -0.00000
    H11      X    -0.00040  -0.00019  -0.00027
    H11      Y     0.00048   0.00022   0.00020
    H11      Z     0.00021   0.00010   0.00015
    H12      X    -0.00052   0.00002   0.00058
    H12      Y    -0.00120   0.00001   0.00176
    H12      Z    -0.00027   0.00002   0.00013
    H13      X     0.00119   0.00017   0.00065
    H13      Y    -0.00152  -0.00021  -0.00097
    H13      Z    -0.00061  -0.00007  -0.00050
    H14      X    -0.00081  -0.00015  -0.00017
    H14      Y    -0.00192  -0.00034  -0.00024
    H14      Z    -0.00015  -0.00002  -0.00005
    H15      X    -0.00033  -0.00003   0.36558
    H15      Y     0.00010  -0.00010   0.83395
    H15      Z    -0.00008   0.00005  -0.31156
    C16      X    -0.00002   0.00001  -0.00002
    C16      Y     0.00013  -0.00001   0.00018
    C16      Z     0.00004  -0.00001   0.00003
    C17      X     0.00003   0.00002   0.00015
    C17      Y    -0.00004   0.00000  -0.00018
    C17      Z    -0.00004  -0.00003  -0.00007
    C18      X    -0.00002  -0.00000  -0.00003
    C18      Y     0.00002   0.00002   0.00071
    C18      Z     0.00007   0.00001   0.00024
    C19      X     0.00003   0.00002  -0.00241
    C19      Y    -0.00010  -0.00003  -0.00032
    C19      Z    -0.00008  -0.00002   0.00220
    C20      X    -0.00042  -0.00000   0.00030
    C20      Y    -0.00013   0.00001   0.00063
    C20      Z     0.00080  -0.00000  -0.00053
    C21      X    -0.00002  -0.00001   0.00003
    C21      Y    -0.00012  -0.00004  -0.00009
    C21      Z     0.00005   0.00001   0.00014
    H22      X     0.00041  -0.00008   0.00002
    H22      Y    -0.00102   0.00020  -0.00053
    H22      Z    -0.00075   0.00015  -0.00068
    H23      X    -0.00020  -0.00019  -0.00009
    H23      Y    -0.00005  -0.00006  -0.00007
    H23      Z     0.00028   0.00030   0.00004
    H24      X    -0.00001  -0.00002   0.00057
    H24      Y     0.00010  -0.00010  -0.00061
    H24      Z    -0.00009   0.00002  -0.00295
    H25      X     0.00520   0.00001  -0.00145
    H25      Y     0.00176  -0.00003   0.00048
    H25      Z    -0.00930   0.00002   0.00155
    H26      X     0.00027   0.00010   0.00014
    H26      Y     0.00130   0.00041  -0.00077
    H26      Z    -0.00035  -0.00013  -0.00035
    C27      X     0.00004   0.00113   0.00000
    C27      Y     0.00001   0.00044   0.00001
    C27      Z    -0.00007  -0.00248  -0.00003
    C28      X    -0.00000  -0.00019  -0.00001
    C28      Y    -0.00001  -0.00001   0.00000
    C28      Z     0.00001   0.00005   0.00003
    C29      X    -0.00001  -0.00007  -0.00002
    C29      Y     0.00001  -0.00002  -0.00000
    C29      Z     0.00001   0.00007   0.00001
    C30      X     0.00022   0.00006  -0.00002
    C30      Y     0.00034   0.00000   0.00003
    C30      Z     0.00116  -0.00003  -0.00001
    C31      X    -0.00032  -0.00001   0.00011
    C31      Y    -0.02121  -0.00014   0.00005
    C31      Z     0.01109   0.00007  -0.00001
    C32      X    -0.00710  -0.00001   0.00001
    C32      Y    -0.05027  -0.00007   0.00001
    C32      Z    -0.03913  -0.00006  -0.00010
    C33      X    -0.00569  -0.00000  -0.00006
    C33      Y     0.00866   0.00001  -0.00003
    C33      Z    -0.04473  -0.00006   0.00007
    C34      X     0.00023  -0.00000  -0.00001
    C34      Y     0.02221   0.00007  -0.00003
    C34      Z    -0.00705  -0.00002  -0.00005
    C35      X     0.00128   0.00000   0.00001
    C35      Y     0.00974   0.00007  -0.00000
    C35      Z     0.00913   0.00007   0.00008
    C36      X    -0.00007  -0.00054  -0.00000
    C36      Y    -0.00004   0.00005  -0.00000
    C36      Z     0.00001  -0.00048   0.00000
    C37      X    -0.00048  -0.00092   0.00000
    C37      Y     0.00007   0.00012   0.00000
    C37      Z    -0.00066  -0.00125  -0.00000
    C38      X    -0.00080  -0.00262  -0.00000
    C38      Y    -0.00007  -0.00009   0.00000
    C38      Z     0.00023  -0.00031   0.00000
    C39      X    -0.00002  -0.00587  -0.00000
    C39      Y    -0.00004  -0.00223  -0.00000
    C39      Z     0.00026   0.01288  -0.00000
    C40      X    -0.00017   0.05658   0.00001
    C40      Y     0.00002  -0.00596  -0.00000
    C40      Z    -0.00018   0.05858   0.00001
    C41      X     0.00004  -0.00014   0.00000
    C41      Y    -0.00001  -0.00001   0.00000
    C41      Z    -0.00007   0.00021   0.00001
    C42      X     0.00005  -0.00436   0.00000
    C42      Y    -0.00001  -0.00010  -0.00001
    C42      Z    -0.00001   0.00210  -0.00001
    C43      X    -0.00000   0.00009  -0.00001
    C43      Y    -0.00001   0.00006  -0.00000
    C43      Z    -0.00003   0.00021  -0.00001
    C44      X     0.00001   0.00001   0.00000
    C44      Y    -0.00000  -0.00002  -0.00001
    C44      Z     0.00001   0.00007  -0.00002
    C45      X    -0.00004  -0.00005   0.00000
    C45      Y    -0.00000   0.00005   0.00000
    C45      Z    -0.00003   0.00013   0.00000
    C46      X     0.00004  -0.00214   0.00001
    C46      Y     0.00001   0.00055   0.00000
    C46      Z     0.00001  -0.00012  -0.00000
    H47      X     0.00752   0.00006  -0.00009
    H47      Y     0.23522   0.00130  -0.00013
    H47      Z    -0.09729  -0.00055   0.00005
    H48      X     0.07627   0.00011   0.00008
    H48      Y     0.55272   0.00079   0.00040
    H48      Z     0.44032   0.00069   0.00034
    H49      X     0.06256   0.00008  -0.00017
    H49      Y    -0.07984  -0.00011   0.00004
    H49      Z     0.48895   0.00066  -0.00045
    H50      X    -0.00072  -0.00000  -0.00005
    H50      Y    -0.23283  -0.00080   0.00041
    H50      Z     0.08783   0.00035  -0.00009
    H51      X    -0.01283  -0.00004  -0.00002
    H51      Y    -0.11155  -0.00064  -0.00018
    H51      Z    -0.09207  -0.00058  -0.00017
    H52      X     0.00589   0.01055  -0.00004
    H52      Y    -0.00067  -0.00102   0.00001
    H52      Z     0.00633   0.01118  -0.00001
    H53      X     0.00904   0.02259   0.00004
    H53      Y     0.00083   0.00189   0.00000
    H53      Z    -0.00230  -0.00417  -0.00002
    H54      X     0.00067   0.03831   0.00003
    H54      Y     0.00044   0.02167   0.00001
    H54      Z    -0.00280  -0.13331  -0.00006
    H55      X     0.00193  -0.65380  -0.00007
    H55      Y    -0.00018   0.06849   0.00001
    H55      Z     0.00185  -0.67272  -0.00008
    H56      X    -0.00051   0.00209   0.00002
    H56      Y    -0.00001   0.00004  -0.00002
    H56      Z     0.00032  -0.00049   0.00000
    H57      X    -0.00007  -0.00018  -0.00004
    H57      Y     0.00016   0.00025   0.00002
    H57      Z    -0.00001   0.00003  -0.00003
    H58      X     0.00014  -0.00009  -0.00002
    H58      Y    -0.00006   0.00007  -0.00002
    H58      Z     0.00059  -0.00174  -0.00013
    H59      X    -0.00037   0.05092  -0.00001
    H59      Y     0.00004  -0.00984   0.00000
    H59      Z     0.00026  -0.03233   0.00001
    H60      X    -0.00009   0.00910   0.00001
    H60      Y    -0.00011   0.00956   0.00001
    H60      Z    -0.00004   0.00467   0.00000
    H61      X    -0.00009   0.00147   0.00002
    H61      Y     0.00023  -0.00500  -0.00003
    H61      Z    -0.00005   0.00100   0.00005
    H62      X     0.00004  -0.00044   0.00003
    H62      Y    -0.00002  -0.00021  -0.00006
    H62      Z     0.00032  -0.00270   0.00014
    H63      X    -0.00009  -0.00016   0.00000
    H63      Y     0.00015   0.00024   0.00002
    H63      Z    -0.00005  -0.00003  -0.00003
    H64      X     0.00009  -0.00027   0.00007
    H64      Y     0.00008  -0.00042   0.00007
    H64      Z     0.00003  -0.00007   0.00003
    H65      X     0.00002   0.00049  -0.00006
    H65      Y     0.00001  -0.00014   0.00002
    H65      Z    -0.00003  -0.00108   0.00022
    H66      X    -0.00006  -0.00018   0.00001
    H66      Y     0.00011   0.00025  -0.00001
    H66      Z    -0.00008  -0.00017  -0.00002
    H67      X    -0.00006  -0.00031   0.00000
    H67      Y    -0.00011  -0.00031   0.00002
    H67      Z    -0.00004  -0.00009   0.00000
    H68      X    -0.00018   0.00044  -0.00003
    H68      Y    -0.00001   0.00001  -0.00003
    H68      Z     0.00045  -0.00126  -0.00011
    H69      X    -0.00000  -0.00033  -0.00002
    H69      Y     0.00007  -0.00058  -0.00002
    H69      Z     0.00005  -0.00028   0.00001
    H70      X     0.00091   0.00070  -0.00001
    H70      Y    -0.00001   0.00004   0.00002
    H70      Z     0.00013   0.00011  -0.00000
    H71      X     0.00001   0.00219   0.00001
    H71      Y     0.00003  -0.00077  -0.00002
    H71      Z    -0.00002   0.00173   0.00001
    H72      X    -0.00035   0.02489  -0.00002
    H72      Y     0.00009  -0.00365   0.00002
    H72      Z     0.00005  -0.00291   0.00001
    H73      X    -0.00014   0.00417  -0.00002
    H73      Y    -0.00022   0.00517  -0.00001
    H73      Z    -0.00009   0.00174   0.00000
  
  Number of imaginary frequencies:   0
   
  Writing vibrational animation data to red_elim_Ar_trans_L1_PL139.vib
  Writing IR vibrational spectrum data to red_elim_Ar_trans_L1_PL139_vib.spm
  rotational symmetry number:  1

  rotational temperatures (K):      0.006679      0.004523      0.003471
   
  The Quasi-Harmonic approximation will be applied to compute
  vibrational constributions to thermodynamic properties.
  Frequencies will be adjusted to a minimum value of  100.00 cm^-1.

  vibrational temperatures:
       mode:      1        2        3        4        5        6
  temp. (K):   143.88   143.88   143.88   143.88   143.88   143.88
   
       mode:      7        8        9       10       11       12
  temp. (K):   143.88   143.88   143.88   143.88   143.88   152.44
   
       mode:     13       14       15       16       17       18
  temp. (K):   166.42   172.06   185.12   206.13   213.43   219.98
   
       mode:     19       20       21       22       23       24
  temp. (K):   230.26   239.97   271.71   278.41   311.74   320.89
   
       mode:     25       26       27       28       29       30
  temp. (K):   350.12   352.70   358.93   363.93   373.26   381.84
   
       mode:     31       32       33       34       35       36
  temp. (K):   393.02   413.64   448.22   459.69   461.12   480.18
   
       mode:     37       38       39       40       41       42
  temp. (K):   482.57   489.50   504.28   511.11   530.43   554.38
   
       mode:     43       44       45       46       47       48
  temp. (K):   586.17   587.01   590.06   594.48   598.51   613.39
   
       mode:     49       50       51       52       53       54
  temp. (K):   617.75   622.04   698.55   714.43   737.81   745.71
   
       mode:     55       56       57       58       59       60
  temp. (K):   762.24   777.37   794.16   808.12   829.41   853.06
   
       mode:     61       62       63       64       65       66
  temp. (K):   860.73   896.62   898.67   900.60   913.35   916.72
   
       mode:     67       68       69       70       71       72
  temp. (K):  1001.10  1019.70  1022.96  1026.68  1084.56  1098.10
   
       mode:     73       74       75       76       77       78
  temp. (K):  1107.27  1113.10  1119.84  1145.51  1188.46  1197.40
   
       mode:     79       80       81       82       83       84
  temp. (K):  1199.53  1201.60  1203.54  1212.46  1228.40  1239.48
   
       mode:     85       86       87       88       89       90
  temp. (K):  1274.18  1309.17  1355.11  1355.91  1377.62  1379.38
   
       mode:     91       92       93       94       95       96
  temp. (K):  1384.91  1391.03  1397.97  1405.08  1413.68  1419.73
   
       mode:     97       98       99      100      101      102
  temp. (K):  1421.66  1422.45  1428.08  1443.81  1451.31  1462.62
   
       mode:    103      104      105      106      107      108
  temp. (K):  1469.52  1475.63  1478.51  1503.17  1517.07  1520.95
   
       mode:    109      110      111      112      113      114
  temp. (K):  1523.21  1524.06  1533.92  1541.81  1550.37  1601.96
   
       mode:    115      116      117      118      119      120
  temp. (K):  1603.41  1611.00  1625.02  1681.85  1720.68  1728.04
   
       mode:    121      122      123      124      125      126
  temp. (K):  1737.63  1741.85  1748.24  1751.27  1754.81  1758.03
   
       mode:    127      128      129      130      131      132
  temp. (K):  1775.08  1787.34  1791.37  1800.89  1807.18  1839.49
   
       mode:    133      134      135      136      137      138
  temp. (K):  1849.45  1881.63  1904.90  1928.48  1930.06  1931.30
   
       mode:    139      140      141      142      143      144
  temp. (K):  1957.78  1983.81  1994.04  2017.79  2043.37  2051.54
   
       mode:    145      146      147      148      149      150
  temp. (K):  2054.51  2055.32  2057.40  2094.00  2105.43  2122.15
   
       mode:    151      152      153      154      155      156
  temp. (K):  2138.59  2159.97  2165.48  2168.31  2172.88  2176.28
   
       mode:    157      158      159      160      161      162
  temp. (K):  2178.32  2183.65  2189.93  2197.41  2202.67  2203.29
   
       mode:    163      164      165      166      167      168
  temp. (K):  2211.29  2214.95  2216.61  2219.09  2225.96  2238.32
   
       mode:    169      170      171      172      173      174
  temp. (K):  2343.42  2344.24  2347.68  2362.42  2377.48  2380.09
   
       mode:    175      176      177      178      179      180
  temp. (K):  2386.31  2394.02  4370.31  4377.80  4379.96  4383.79
   
       mode:    181      182      183      184      185      186
  temp. (K):  4386.74  4393.28  4471.14  4479.07  4484.53  4489.75
   
       mode:    187      188      189      190      191      192
  temp. (K):  4494.60  4516.94  4523.78  4539.18  4545.84  4546.97
   
       mode:    193      194      195      196      197      198
  temp. (K):  4550.65  4558.61  4561.04  4573.73  4587.08  4587.50
   
       mode:    199      200      201      202      203      204
  temp. (K):  4588.61  4595.39  4595.86  4597.19  4599.85  4603.50
   
       mode:    205      206      207      208      209      210
  temp. (K):  4608.23  4609.54  4620.85  4621.04  4623.01  4623.28
   
       mode:    211      212      213
  temp. (K):  4636.21  4684.36  5052.82
   
   
  Thermodynamic properties calculated assuming an ideal gas

  In the table below, the units for temperature
  are kelvins, the units for U, H, and G are
  kcal/mol and the units for Cv and S are cal/(mol K)

  The zero point energy (ZPE):    385.724 kcal/mol
  is not included in U, H, or G in the table below
  
 
  =============================================================================
  Thermodynamic properties for P = 1.00E+00 atm, calculated at   1 temperatures


  T =   298.15 K, P = 1.00E+00 atm
   
                  U         Cv          S          H          G        ln(Q)
              =========  =========  =========  =========  =========  =========
  trans.          0.889      2.981     45.015      1.481    -11.940   20.15227
  rot.            0.889      2.981     37.070      0.889    -10.164   17.15416
  vib.           20.173    135.592    121.041     20.173    -15.915   26.86174
  elec.           0.000      0.000      0.000      0.000      0.000    0.00000
  ----------------------------------------------------------------------------
  total          21.951    141.553    203.126     22.543    -38.019   64.16818
   
   Total internal energy, Utot(SCFE + ZPE + U):   -1863.331811 hartrees
   Total enthalpy, Htot (Utot + nRT), with n=1:   -1863.330866 hartrees
    Total Gibbs free energy, Gtot (Htot - T*S):   -1863.427378 hartrees
   
  end of program freq
   
 Time(freq)  user:       0.310  user+sys:       0.310  wallclock:       0.318
  
  start of program post
  
  Writing input files for PBF
  end of program post
   
 Time(post)  user:       0.174  user+sys:       0.174  wallclock:       0.111

 Total cpu seconds     user:   65035.408   user+sys:   65035.408
  
 Total elapsed time:    37262 seconds

Job red_elim_Ar_trans_L1_PL139 completed on bp1-compute082.data.bp.acrc.priv at Fri Mar 28 17:58:36 2025
