Job enc_comp_L1_PL146 started on bp1-compute089 at Fri Apr 18 23:36:26 2025
jobid: bp1-compute089-0-6802d3e5

  +--------------------------------------------------------------------+
  |  Jaguar version 12.5, release 138                                  |
  |                                                                    |
  |  Copyright Schrodinger, Inc.                                       |
  |  All Rights Reserved.                                              |
  |                                                                    |
  |  The following have contributed to Jaguar (listed alphabetically): |
  |  Ty Balduf, Mike Beachy, Chandler Bennett, Art Bochevarov,         |
  |  Dale Braden, Yixiang Cao, Alan Chien, Chris Cortis,               |
  |  Rich Friesner, Jim Furness, Bill Goddard, Hod Greeley,            |
  |  Tom Hughes, Leif Jacobson, Jean-Marc Langlois, Daniel Levine,     |
  |  Rob Murphy, Dean Philipp, Tom Pollard, Murco Ringnalda,           |
  |  Daniel Mainz, Pablo Videla, Mark Watson, Haoyu Yu.                |
  |                                                                    |
  |  Use of this program should be acknowledged in publications as:    |
  |                                                                    |
  |  Jaguar, version 12.5, Schrodinger, Inc., New York, NY, 2024.      |
  |                                                                    |
  |  A. D. Bochevarov, E. Harder, T. F. Hughes, J. R. Greenwood,       |
  |  D. A. Braden, D. M. Philipp, D. Rinaldo, M. D. Halls,             |
  |  J. Zhang, R. A. Friesner, "Jaguar: A High-Performance Quantum     |
  |  Chemistry Software Program with Strengths in Life and Materials   |
  |  Sciences", Int. J. Quantum Chem., 2013, 113(18), 2110-2142.       |
  +--------------------------------------------------------------------+
  
  start of program pre
  
  Job name: enc_comp_L1_PL146
  Executables used: /software/local/apps/schrodinger2024-3/jaguar-v12.5/bin/Linux-x86_64
  Temporary files : /tmp/ar21627/enc_comp_L1_PL146#bp1-compute089-0-6802d3e5
  Basis file : using default basis file from /software/local/apps/schrodinger2024-3
  Maestro file (input):  enc_comp_L1_PL146.mae
  Maestro file (output): enc_comp_L1_PL146.01.mae
  
 Contents of input file: &gen and (if present) &atomic sections only
 ----------------Contents start----------------
&gen
dftname=b3pw91-d3
basis=6-31G*
numd=5
ip11=2
iaccg=3
isolv=2
igeopt=1
solvent=benzene
ifreq=1
&
&atomic
atom basis
Pd2 lacv3p*
Br3 lacv3p*
&
 -----------------Contents end-----------------
 
  PS calculation requested. Using PS version of 6-31g*
  basis set:               non_standard                    
  net molecular charge:    0
  multiplicity:            1
  
  Using up to   4 threads per process
  
  This run will use ECP on            2  atoms
  number of basis functions....          724
 freezing dummy-atom X       
  
Warning: dummy atom X        has only 0 geometric constraints
  
Each dummy atom must have at least 3 geometric constraints, 
so that it's frozen with respect to the non-dummy atoms.
  
  
 Input geometry:
                                   angstroms
  atom               x                 y                 z
  P1            0.0000000000      0.0000000000      0.0000000000 
  Pd2           0.0000000000      0.0000000000      2.3304135331 
  Br3          -3.5685657962     -1.4563047259      5.4292064860 
  C4            0.9311947064     -1.0778245575      4.0153359349 
  C5            0.2493687339      0.0954140190      4.4490366009 
  C6           -1.1082235247     -0.0389761203      4.8592552538 
  C7           -1.6894242277     -1.2956872435      4.8924840041 
  C8           -0.9953926476     -2.4588893794      4.5247241645 
  C9            0.3144271816     -2.3492870863      4.0848657340 
  F10           2.2904829920     -1.0496644213      3.9128173605 
  H11           0.8071820315      1.0019344564      4.6805948296 
  H12          -1.6539457226      0.8391383298      5.1904970608 
  H13          -1.4836053017     -3.4282376081      4.5613194024 
  H14           0.8903288647     -3.2260999601      3.8042291155 
  C3            1.7314260000      0.0000000000     -0.7803510000 
  C16          -0.8389310000     -1.6125100000     -0.4671430000 
  C17          -0.9848230000      1.4026410000     -0.7940230000 
  C18           1.8547750000      0.7516540000     -2.1227420000 
  C19           3.3180330000      0.9088290000     -2.5641460000 
  C20           3.9857420000     -0.4642000000     -2.7094370000 
  C21           3.8697970000     -1.2539880000     -1.4001690000 
  C10           2.4046590000     -1.3782340000     -0.9523140000 
  C11          -0.5056190000     -2.7173740000      0.5550030000 
  C12          -1.0578700000     -4.0832580000      0.1240010000 
  C13          -2.5787210000     -4.0214240000     -0.0639300000 
  C14          -2.9499870000     -2.9127210000     -1.0567430000 
  C15          -2.3764560000     -1.5612970000     -0.6035480000 
  C28          -1.2326260000      1.0727740000     -2.1445640000 
  C29          -2.0074230000      1.8467040000     -3.0133740000 
  C30          -2.5762550000      3.0149250000     -2.5108640000 
  C31          -2.3457000000      3.3486970000     -1.1711310000 
  C32          -1.5716150000      2.5946540000     -0.2583740000 
  C33          -1.4845710000      3.1859880000      1.0425790000 
  C22          -2.6627950000      3.7192940000      1.6634130000 
  C23          -2.5820030000      4.2912230000      2.9466350000 
  C24          -1.3970670000      4.3770750000      3.6798710000 
  C25          -0.2533110000      3.8746240000      3.0556160000 
  C26          -0.2640180000      3.2967370000      1.7715360000 
  C27           1.0915300000      2.9645870000      1.1740160000 
  C40           1.4067790000      3.9332530000      0.0191460000 
  C41          -4.0953790000      3.6342790000      1.1260110000 
  C42          -5.0412910000      2.8632550000      2.0771900000 
  C43          -1.3503270000      4.9862100000      5.0661820000 
  C44           2.3090590000      2.9352650000      2.1233600000 
  C45          -4.7015910000      5.0251990000      0.8488140000 
  C34          -2.1695860000      4.1389580000      6.0528510000 
  C35          -1.8228880000      6.4491930000      5.0548960000 
  H36           2.3867450000      0.5770350000     -0.0919280000 
  H37           1.3141700000      0.1937620000     -2.9206610000 
  H38           1.4022340000      1.7673630000     -2.0399630000 
  H39           3.8741960000      1.5227350000     -1.8158020000 
  H40           3.3667480000      1.4574500000     -3.5356390000 
  H41           3.4933720000     -1.0343290000     -3.5330210000 
  H42           5.0594910000     -0.3409120000     -2.9901210000 
  H43           4.4602150000     -0.7409420000     -0.6036040000 
  H44           4.3155280000     -2.2694410000     -1.5316230000 
  H45           2.3928530000     -1.9481030000      0.0023690000 
  H46           1.8435120000     -1.9816870000     -1.7025810000 
  H47          -0.4389790000     -1.9178500000     -1.4612040000 
  H48           0.5926800000     -2.8081600000      0.7031910000 
  H49          -0.9307450000     -2.4449230000      1.5495160000 
  H50          -0.8025950000     -4.8567340000      0.8878940000 
  H51          -0.5737560000     -4.3948660000     -0.8321230000 
  H52          -2.9612600000     -5.0058110000     -0.4263340000 
  H53          -3.0671780000     -3.8197310000      0.9193380000 
  H54          -4.0610290000     -2.8453320000     -1.1480450000 
  H55          -2.5540330000     -3.1666150000     -2.0689060000 
  H56          -2.8409550000     -1.2901760000      0.3698920000 
  H57          -2.6950660000     -0.7836810000     -1.3332440000 
  H58          -0.8269830000      0.1490770000     -2.5831970000 
  H59          -2.1683160000      1.5442320000     -4.0620710000 
  H60          -3.1860710000      3.6639080000     -3.1622960000 
  H61          -2.7801850000      4.3120260000     -0.8732000000 
  H62          -3.4874380000      4.6840980000      3.4296210000 
  H63           0.6805840000      3.9784600000      3.6228140000 
  H64           1.0266120000      1.9505350000      0.7669170000 
  H65           1.4696610000      4.9814100000      0.3911670000 
  H66           0.6324150000      3.9097330000     -0.7800130000 
  H67           2.3781330000      3.6836580000     -0.4668080000 
  H68          -4.1528910000      3.0118410000      0.2055240000 
  H69          -5.2093640000      3.3805210000      3.0477490000 
  H70          -6.0481870000      2.7278610000      1.6177120000 
  H71          -4.6503260000      1.8462990000      2.3045150000 
  H72          -0.2935640000      4.9861450000      5.4288540000 
  H73           2.5900930000      3.9534910000      2.4772170000 
  H74           3.2074330000      2.5275330000      1.6042550000 
  H75           2.1268810000      2.2866310000      3.0101390000 
  H76          -4.8671170000      5.6013710000      1.7870070000 
  H77          -5.6894310000      4.9361080000      0.3408470000 
  H78          -4.0502780000      5.6527470000      0.2007590000 
  H79          -3.2507000000      4.1225990000      5.7860570000 
  H80          -2.0872280000      4.5383680000      7.0899930000 
  H81          -1.8069790000      3.0848960000      6.0668100000 
  H82          -2.8940520000      6.5403640000      4.7650410000 
  H83          -1.2220950000      7.0541700000      4.3371010000 
  H84          -1.7122910000      6.9130400000      6.0621790000 
  X             0.5902817202     -0.4912052692      4.2321862679 
   
  principal moments of inertia:
        amu*angstrom^2:              7381.34197              8596.56496             10820.00194
                g*cm^2:          1.22570052E-36          1.42749302E-36          1.79670337E-36
   
  rotational constants:
               cm^(-1):      0.00228382      0.00196097      0.00155801
                   GHz:      0.06846709      0.05878848      0.04670785
   
  Z-matrix: (angstroms and degrees) 
 P1             0.0000000000             0.0000000000             0.0000000000 
 Pd2            0.0000000000             0.0000000000             2.3304135331 
 Br3           -3.5685657962            -1.4563047259             5.4292064860 
 C4             0.9311947064            -1.0778245575             4.0153359349 
 C5             0.2493687339             0.0954140190             4.4490366009 
 C6            -1.1082235247            -0.0389761203             4.8592552538 
 C7            -1.6894242277            -1.2956872435             4.8924840041 
 C8            -0.9953926476            -2.4588893794             4.5247241645 
 C9             0.3144271816            -2.3492870863             4.0848657340 
 F10            2.2904829920            -1.0496644213             3.9128173605 
 H11            0.8071820315             1.0019344564             4.6805948296 
 H12           -1.6539457226             0.8391383298             5.1904970608 
 H13           -1.4836053017            -3.4282376081             4.5613194024 
 H14            0.8903288647            -3.2260999601             3.8042291155 
 C3             1.7314260000             0.0000000000            -0.7803510000 
 C16           -0.8389310000            -1.6125100000            -0.4671430000 
 C17           -0.9848230000             1.4026410000            -0.7940230000 
 C18            1.8547750000             0.7516540000            -2.1227420000 
 C19            3.3180330000             0.9088290000            -2.5641460000 
 C20            3.9857420000            -0.4642000000            -2.7094370000 
 C21            3.8697970000            -1.2539880000            -1.4001690000 
 C10            2.4046590000            -1.3782340000            -0.9523140000 
 C11           -0.5056190000            -2.7173740000             0.5550030000 
 C12           -1.0578700000            -4.0832580000             0.1240010000 
 C13           -2.5787210000            -4.0214240000            -0.0639300000 
 C14           -2.9499870000            -2.9127210000            -1.0567430000 
 C15           -2.3764560000            -1.5612970000            -0.6035480000 
 C28           -1.2326260000             1.0727740000            -2.1445640000 
 C29           -2.0074230000             1.8467040000            -3.0133740000 
 C30           -2.5762550000             3.0149250000            -2.5108640000 
 C31           -2.3457000000             3.3486970000            -1.1711310000 
 C32           -1.5716150000             2.5946540000            -0.2583740000 
 C33           -1.4845710000             3.1859880000             1.0425790000 
 C22           -2.6627950000             3.7192940000             1.6634130000 
 C23           -2.5820030000             4.2912230000             2.9466350000 
 C24           -1.3970670000             4.3770750000             3.6798710000 
 C25           -0.2533110000             3.8746240000             3.0556160000 
 C26           -0.2640180000             3.2967370000             1.7715360000 
 C27            1.0915300000             2.9645870000             1.1740160000 
 C40            1.4067790000             3.9332530000             0.0191460000 
 C41           -4.0953790000             3.6342790000             1.1260110000 
 C42           -5.0412910000             2.8632550000             2.0771900000 
 C43           -1.3503270000             4.9862100000             5.0661820000 
 C44            2.3090590000             2.9352650000             2.1233600000 
 C45           -4.7015910000             5.0251990000             0.8488140000 
 C34           -2.1695860000             4.1389580000             6.0528510000 
 C35           -1.8228880000             6.4491930000             5.0548960000 
 H36            2.3867450000             0.5770350000            -0.0919280000 
 H37            1.3141700000             0.1937620000            -2.9206610000 
 H38            1.4022340000             1.7673630000            -2.0399630000 
 H39            3.8741960000             1.5227350000            -1.8158020000 
 H40            3.3667480000             1.4574500000            -3.5356390000 
 H41            3.4933720000            -1.0343290000            -3.5330210000 
 H42            5.0594910000            -0.3409120000            -2.9901210000 
 H43            4.4602150000            -0.7409420000            -0.6036040000 
 H44            4.3155280000            -2.2694410000            -1.5316230000 
 H45            2.3928530000            -1.9481030000             0.0023690000 
 H46            1.8435120000            -1.9816870000            -1.7025810000 
 H47           -0.4389790000            -1.9178500000            -1.4612040000 
 H48            0.5926800000            -2.8081600000             0.7031910000 
 H49           -0.9307450000            -2.4449230000             1.5495160000 
 H50           -0.8025950000            -4.8567340000             0.8878940000 
 H51           -0.5737560000            -4.3948660000            -0.8321230000 
 H52           -2.9612600000            -5.0058110000            -0.4263340000 
 H53           -3.0671780000            -3.8197310000             0.9193380000 
 H54           -4.0610290000            -2.8453320000            -1.1480450000 
 H55           -2.5540330000            -3.1666150000            -2.0689060000 
 H56           -2.8409550000            -1.2901760000             0.3698920000 
 H57           -2.6950660000            -0.7836810000            -1.3332440000 
 H58           -0.8269830000             0.1490770000            -2.5831970000 
 H59           -2.1683160000             1.5442320000            -4.0620710000 
 H60           -3.1860710000             3.6639080000            -3.1622960000 
 H61           -2.7801850000             4.3120260000            -0.8732000000 
 H62           -3.4874380000             4.6840980000             3.4296210000 
 H63            0.6805840000             3.9784600000             3.6228140000 
 H64            1.0266120000             1.9505350000             0.7669170000 
 H65            1.4696610000             4.9814100000             0.3911670000 
 H66            0.6324150000             3.9097330000            -0.7800130000 
 H67            2.3781330000             3.6836580000            -0.4668080000 
 H68           -4.1528910000             3.0118410000             0.2055240000 
 H69           -5.2093640000             3.3805210000             3.0477490000 
 H70           -6.0481870000             2.7278610000             1.6177120000 
 H71           -4.6503260000             1.8462990000             2.3045150000 
 H72           -0.2935640000             4.9861450000             5.4288540000 
 H73            2.5900930000             3.9534910000             2.4772170000 
 H74            3.2074330000             2.5275330000             1.6042550000 
 H75            2.1268810000             2.2866310000             3.0101390000 
 H76           -4.8671170000             5.6013710000             1.7870070000 
 H77           -5.6894310000             4.9361080000             0.3408470000 
 H78           -4.0502780000             5.6527470000             0.2007590000 
 H79           -3.2507000000             4.1225990000             5.7860570000 
 H80           -2.0872280000             4.5383680000             7.0899930000 
 H81           -1.8069790000             3.0848960000             6.0668100000 
 H82           -2.8940520000             6.5403640000             4.7650410000 
 H83           -1.2220950000             7.0541700000             4.3371010000 
 H84           -1.7122910000             6.9130400000             6.0621790000 
 X              0.5902817202#           -0.4912052692#            4.2321862679#
  
  Molecular weight:     756.21 amu
   
  Stoichiometry: PdC39PH53BrF
  Molecular Point Group: C1      
  Point Group used: C1
  
 
Number of optimization coordinates:   329
Number of independent coordinates:    326
Number of non-redundant coordinates:  285
Number of frozen coordinates:           3
Number of harmonic constraints:         0
 
Number of geometric degrees of freedom:   282
Maximum geometric degrees of freedom:     285
 " " " " " excluding dummy atoms:         282
 
 
  bond lengths (angstroms):
 
 P1      -Pd2     :   2.330414      P1      -C3      :   1.899153
 P1      -C16     :   1.876757      P1      -C17     :   1.888849
 Pd2     -C4      :   2.206308      Pd2     -C5      :   2.135381
 Pd2     -X       :   2.050964      Br3     -C7      :   1.960878
 C4      -C5      :   1.424595      C4      -C9      :   1.414869
 C4      -F10     :   1.363440      C4      -X       :   0.712298
 C5      -C6      :   1.424569      C5      -H11     :   1.089291
 C5      -X       :   0.712298      C6      -C7      :   1.384999
 C6      -H12     :   1.085642      C7      -C8      :   1.403555
 C8      -C9      :   1.386043      C8      -H13     :   1.085968
 C9      -H14     :   1.085919      C3      -C18     :   1.543442
 C3      -C10     :   1.543484      C3      -H36     :   1.111908
 C16     -C11     :   1.541624      C16     -C15     :   1.544413
 C16     -H47     :   1.114159      C17     -C28     :   1.412154
 C17     -C32     :   1.432529      C18     -C19     :   1.536446
 C18     -H37     :   1.113630      C18     -H38     :   1.115038
 C19     -C20     :   1.533673      C19     -H39     :   1.116341
 C19     -H40     :   1.116762      C20     -C21     :   1.533425
 C20     -H41     :   1.116139      C20     -H42     :   1.116656
 C21     -C10     :   1.537088      C21     -H43     :   1.116389
 C21     -H44     :   1.116737      C10     -H45     :   1.111895
 C10     -H46     :   1.114425      C11     -C12     :   1.535051
 C11     -H48     :   1.111963      C11     -H49     :   1.115355
 C12     -C13     :   1.533665      C12     -H50     :   1.116675
 C12     -H51     :   1.116082      C13     -C14     :   1.533864
 C13     -H52     :   1.116553      C13     -H53     :   1.116282
 C14     -C15     :   1.536447      C14     -H54     :   1.116822
 C14     -H55     :   1.116116      C15     -H56     :   1.112138
 C15     -H57     :   1.112949      C28     -C29     :   1.397894
 C28     -H58     :   1.100073      C29     -C30     :   1.393135
 C29     -H59     :   1.103241      C30     -C31     :   1.399801
 C30     -H60     :   1.103367      C31     -C32     :   1.414537
 C31     -H61     :   1.097972      C32     -C33     :   1.431688
 C33     -C22     :   1.434595      C33     -C26     :   1.425971
 C22     -C23     :   1.407227      C22     -C41     :   1.532425
 C23     -C24     :   1.396094      C23     -H62     :   1.098835
 C24     -C25     :   1.396542      C24     -C43     :   1.514955
 C25     -C26     :   1.408165      C25     -H63     :   1.097568
 C26     -C27     :   1.518178      C27     -C40     :   1.539942
 C27     -C44     :   1.544180      C27     -H64     :   1.094644
 C40     -H65     :   1.113996      C40     -H66     :   1.113035
 C40     -H67     :   1.114440      C41     -C42     :   1.547246
 C41     -C45     :   1.542397      C41     -H68     :   1.112669
 C42     -H69     :   1.112563      C42     -H70     :   1.115030
 C42     -H71     :   1.112982      C43     -C34     :   1.537055
 C43     -C35     :   1.537453      C43     -H72     :   1.117264
 C44     -H73     :   1.113992      C44     -H74     :   1.114805
 C44     -H75     :   1.113684      C45     -H76     :   1.113364
 C45     -H77     :   1.114359      C45     -H78     :   1.112655
 C34     -H79     :   1.113667      C34     -H80     :   1.114439
 C34     -H81     :   1.114776      C35     -H82     :   1.113427
 C35     -H83     :   1.114531      C35     -H84     :   1.114453
 
  bond angles:
 
 C3      -P1      -Pd2     : 114.261015  C16     -P1      -Pd2     : 104.413004
 C16     -P1      -C3      : 107.773617  C17     -P1      -Pd2     : 114.858201
 C17     -P1      -C3      : 107.614511  C17     -P1      -C16     : 107.477575
 C4      -Pd2     -P1      : 139.790083  C5      -Pd2     -P1      : 172.817172
 C5      -Pd2     -C4      :  38.265372  X       -Pd2     -P1      : 158.011318
 X       -Pd2     -C4      :  18.807975  X       -Pd2     -C5      :  19.457397
 C5      -C4      -Pd2     :  68.171301  C9      -C4      -Pd2     : 107.010697
 C9      -C4      -C5      : 121.097117  F10     -C4      -Pd2     : 110.687033
 F10     -C4      -C5      : 118.883777  F10     -C4      -C9      : 117.183816
 X       -C4      -Pd2     :  68.171301  X       -C4      -C5      :   0.000000
 X       -C4      -C9      : 121.097117  X       -C4      -F10     : 118.883777
 C4      -C5      -Pd2     :  73.563328  C6      -C5      -Pd2     :  99.799198
 C6      -C5      -C4      : 117.780247  H11     -C5      -Pd2     : 107.932450
 H11     -C5      -C4      : 120.331435  H11     -C5      -C6      : 120.351769
 X       -C5      -Pd2     :  73.563328  X       -C5      -C4      :   0.000000
 X       -C5      -C6      : 117.780247  X       -C5      -H11     : 120.331435
 C7      -C6      -C5      : 119.499655  H12     -C6      -C5      : 119.379668
 H12     -C6      -C7      : 121.041683  C6      -C7      -Br3     : 118.884051
 C8      -C7      -Br3     : 118.535581  C8      -C7      -C6      : 122.561140
 C9      -C8      -C7      : 119.006271  H13     -C8      -C7      : 120.572301
 H13     -C8      -C9      : 120.405679  C8      -C9      -C4      : 119.907542
 H14     -C9      -C4      : 118.797547  H14     -C9      -C8      : 121.287651
 C18     -C3      -P1      : 115.482193  C10     -C3      -P1      : 116.323207
 C10     -C3      -C18     : 107.643956  H36     -C3      -P1      : 106.434200
 H36     -C3      -C18     : 103.807101  H36     -C3      -C10     : 105.980486
 C11     -C16     -P1      : 110.738068  C15     -C16     -P1      : 116.008863
 C15     -C16     -C11     : 107.311688  H47     -C16     -P1      : 107.282423
 H47     -C16     -C11     : 108.514083  H47     -C16     -C15     : 106.717762
 C28     -C17     -P1      : 108.666711  C32     -C17     -P1      : 132.399612
 C32     -C17     -C28     : 118.691726  C19     -C18     -C3      : 112.073554
 H37     -C18     -C3      : 109.901496  H37     -C18     -C19     : 107.922155
 H38     -C18     -C3      : 110.280278  H38     -C18     -C19     : 108.340464
 H38     -C18     -H37     : 108.210788  C20     -C19     -C18     : 110.503273
 H39     -C19     -C18     : 109.763661  H39     -C19     -C20     : 109.811721
 H40     -C19     -C18     : 109.981518  H40     -C19     -C20     : 109.779500
 H40     -C19     -H39     : 106.933685  C21     -C20     -C19     : 110.321973
 H41     -C20     -C19     : 109.581516  H41     -C20     -C21     : 109.486077
 H42     -C20     -C19     : 110.096731  H42     -C20     -C21     : 110.132310
 H42     -C20     -H41     : 107.163976  C10     -C21     -C20     : 111.252501
 H43     -C21     -C20     : 109.422610  H43     -C21     -C10     : 109.472841
 H44     -C21     -C20     : 109.733808  H44     -C21     -C10     : 109.953059
 H44     -C21     -H43     : 106.904606  C21     -C10     -C3      : 112.088856
 H45     -C10     -C3      : 110.938019  H45     -C10     -C21     : 107.560842
 H46     -C10     -C3      : 109.809666  H46     -C10     -C21     : 109.121575
 H46     -C10     -H45     : 107.167792  C12     -C11     -C16     : 111.947817
 H48     -C11     -C16     : 111.126341  H48     -C11     -C12     : 108.669593
 H49     -C11     -C16     : 109.494682  H49     -C11     -C12     : 109.304054
 H49     -C11     -H48     : 106.116356  C13     -C12     -C11     : 110.810925
 H50     -C12     -C11     : 109.999579  H50     -C12     -C13     : 109.782118
 H51     -C12     -C11     : 109.445619  H51     -C12     -C13     : 109.658877
 H51     -C12     -H50     : 107.066825  C14     -C13     -C12     : 110.394373
 H52     -C13     -C12     : 110.119025  H52     -C13     -C14     : 110.135780
 H53     -C13     -C12     : 109.467225  H53     -C13     -C14     : 109.488770
 H53     -C13     -H52     : 107.174175  C15     -C14     -C13     : 110.762982
 H54     -C14     -C13     : 109.713864  H54     -C14     -C15     : 110.022673
 H55     -C14     -C13     : 109.674910  H55     -C14     -C15     : 109.581676
 H55     -C14     -H54     : 107.008477  C14     -C15     -C16     : 111.623363
 H56     -C15     -C16     : 110.278116  H56     -C15     -C14     : 108.463277
 H57     -C15     -C16     : 111.473754  H57     -C15     -C14     : 108.319006
 H57     -C15     -H56     : 106.497701  C29     -C28     -C17     : 124.217200
 H58     -C28     -C17     : 120.848301  H58     -C28     -C29     : 114.925303
 C30     -C29     -C28     : 117.799910  H59     -C29     -C28     : 121.320683
 H59     -C29     -C30     : 120.879109  C31     -C30     -C29     : 118.549764
 H60     -C30     -C29     : 120.393212  H60     -C30     -C31     : 121.054346
 C32     -C31     -C30     : 125.493203  H61     -C31     -C30     : 113.811468
 H61     -C31     -C32     : 120.607624  C31     -C32     -C17     : 115.242330
 C33     -C32     -C17     : 131.189824  C33     -C32     -C31     : 113.543362
 C22     -C33     -C32     : 119.791946  C26     -C33     -C32     : 123.273644
 C26     -C33     -C22     : 116.928869  C23     -C22     -C33     : 119.904664
 C41     -C22     -C33     : 126.541026  C41     -C22     -C23     : 113.328583
 C24     -C23     -C22     : 123.548685  H62     -C23     -C22     : 119.921626
 H62     -C23     -C24     : 116.521233  C25     -C24     -C23     : 115.990880
 C43     -C24     -C23     : 122.108125  C43     -C24     -C25     : 121.899906
 C26     -C25     -C24     : 123.300690  H63     -C25     -C24     : 115.583359
 H63     -C25     -C26     : 121.100024  C25     -C26     -C33     : 120.300498
 C27     -C26     -C33     : 123.097554  C27     -C26     -C25     : 116.224601
 C40     -C27     -C26     : 109.896754  C44     -C27     -C26     : 117.787228
 C44     -C27     -C40     : 108.155152  H64     -C27     -C26     : 107.223138
 H64     -C27     -C40     : 108.418300  H64     -C27     -C44     : 104.940131
 H65     -C40     -C27     : 110.668567  H66     -C40     -C27     : 112.503659
 H66     -C40     -H65     : 107.393434  H67     -C40     -C27     : 111.380856
 H67     -C40     -H65     : 107.887459  H67     -C40     -H66     : 106.772892
 C42     -C41     -C22     : 112.555587  C45     -C41     -C22     : 112.359782
 C45     -C41     -C42     : 108.637683  H68     -C41     -C22     : 111.683017
 H68     -C41     -C42     : 101.432272  H68     -C41     -C45     : 109.601633
 H69     -C42     -C41     : 113.388366  H70     -C42     -C41     : 111.053937
 H70     -C42     -H69     : 106.231420  H71     -C42     -C41     : 111.477463
 H71     -C42     -H69     : 107.439950  H71     -C42     -H70     : 106.883515
 C34     -C43     -C24     : 110.446558  C35     -C43     -C24     : 111.494094
 C35     -C43     -C34     : 111.432369  H72     -C43     -C24     : 109.038366
 H72     -C43     -C34     : 107.201819  H72     -C43     -C35     : 107.047248
 H73     -C44     -C27     : 112.138112  H74     -C44     -C27     : 110.858412
 H74     -C44     -H73     : 106.195378  H75     -C44     -C27     : 111.815032
 H75     -C44     -H73     : 108.704750  H75     -C44     -H74     : 106.832867
 H76     -C45     -C41     : 111.942282  H77     -C45     -C41     : 110.991852
 H77     -C45     -H76     : 107.079595  H78     -C45     -C41     : 112.533607
 H78     -C45     -H76     : 106.615761  H78     -C45     -H77     : 107.367641
 H79     -C34     -C43     : 111.823074  H80     -C34     -C43     : 111.128127
 H80     -C34     -H79     : 107.454765  H81     -C34     -C43     : 110.846305
 H81     -C34     -H79     : 107.750706  H81     -C34     -H80     : 107.649001
 H82     -C35     -C43     : 112.056905  H83     -C35     -C43     : 110.827592
 H83     -C35     -H82     : 107.847659  H84     -C35     -C43     : 111.033461
 H84     -C35     -H82     : 107.258556  H84     -C35     -H83     : 107.618818
 C4      -X       -Pd2     :  93.020725  C5      -X       -Pd2     :  86.979275
 C5      -X       -C4      : 180.000000
 
  torsional angles:
 
 P1      -Pd2     -C4      -C5      : 169.055599
 P1      -Pd2     -C4      -C9      : -73.602749
 P1      -Pd2     -C4      -F10     :  55.167448
 P1      -Pd2     -C4      -X       : 169.055599
 P1      -Pd2     -C5      -C4      : -78.600628
 P1      -Pd2     -C5      -C6      : 165.156178
 P1      -Pd2     -C5      -H11     :  38.653112
 P1      -Pd2     -C5      -X       : -78.600628
 P1      -Pd2     -X       -C4      : -19.108306
 P1      -Pd2     -X       -C5      : 160.891694
 P1      -C3      -C18     -C19     : 170.312141
 P1      -C3      -C18     -H37     : -69.690300
 P1      -C3      -C18     -H38     :  49.525700
 P1      -C3      -C10     -C21     :-171.775272
 P1      -C3      -C10     -H45     : -51.515570
 P1      -C3      -C10     -H46     :  66.762044
 P1      -C16     -C11     -C12     :-174.123033
 P1      -C16     -C11     -H48     : -52.407923
 P1      -C16     -C11     -H49     :  64.494853
 P1      -C16     -C15     -C14     : 177.116189
 P1      -C16     -C15     -H56     : -62.243884
 P1      -C16     -C15     -H57     :  55.833774
 P1      -C17     -C28     -C29     : 175.890179
 P1      -C17     -C28     -H58     :  -2.949598
 P1      -C17     -C32     -C31     :-174.503172
 P1      -C17     -C32     -C33     :   7.440696
 Pd2     -P1      -C3      -C18     :-147.351771
 Pd2     -P1      -C3      -C10     :  85.030040
 Pd2     -P1      -C3      -H36     : -32.756134
 Pd2     -P1      -C16     -C11     : -33.971857
 Pd2     -P1      -C16     -C15     :  88.628897
 Pd2     -P1      -C16     -H47     :-152.226625
 Pd2     -P1      -C17     -C28     :-162.946211
 Pd2     -P1      -C17     -C32     :  11.158518
 Pd2     -C4      -C5      -C6      :  92.587904
 Pd2     -C4      -C5      -H11     :-101.496949
 C4      -C5      -X            : collinear
 Pd2     -C4      -C9      -C8      : -71.447828
 Pd2     -C4      -C9      -H14     : 109.519591
 C4      -X       -C5           : collinear
 Pd2     -C5      -C4      -C9      : -97.263592
 Pd2     -C5      -C4      -F10     : 102.336045
 C5      -C4      -X            : collinear
 Pd2     -C5      -C6      -C7      :  79.957824
 Pd2     -C5      -C6      -H12     :-103.239758
 C5      -X       -C4           : collinear
 X       -C4      -C5           : collinear
 Pd2     -X       -C4      -C9      : -97.263592
 Pd2     -X       -C4      -F10     : 102.336045
 X       -C5      -C4           : collinear
 Pd2     -X       -C5      -C6      :  92.587904
 Pd2     -X       -C5      -H11     :-101.496949
 Br3     -C7      -C6      -C5      :-178.920910
 Br3     -C7      -C6      -H12     :   4.331201
 Br3     -C7      -C8      -C9      : 177.060737
 Br3     -C7      -C8      -H13     :  -1.501514
 C4      -Pd2     -P1      -C3      : -49.174376
 C4      -Pd2     -P1      -C16     :  68.311964
 C4      -Pd2     -P1      -C17     :-174.247856
 C4      -Pd2     -C5      -C6      :-116.243194
 C4      -Pd2     -C5      -H11     : 117.253740
 C4      -Pd2     -C5      -X       :   0.000000
 C4      -Pd2     -X       -C5      : 180.000000
 C4      -C5      -Pd2     -X       :   0.000000
 C4      -C5      -C6      -C7      :   3.464907
 C4      -C5      -C6      -H12     :-179.732674
 C4      -C9      -C8      -C7      :   0.134173
 C4      -C9      -C8      -H13     : 178.698884
 C4      -X       -Pd2     -C5      : 180.000000
 C4      -X       -C5           : collinear
 C4      -X       -C5           : collinear
 C5      -Pd2     -P1      -C3      :  20.937961
 C5      -Pd2     -P1      -C16     : 138.424301
 C5      -Pd2     -P1      -C17     :-104.135518
 C5      -Pd2     -C4      -C9      : 117.341652
 C5      -Pd2     -C4      -F10     :-113.888151
 C5      -Pd2     -C4      -X       :   0.000000
 C5      -C4      -Pd2     -X       :   0.000000
 C5      -C4      -C9      -C8      :   2.913388
 C5      -C4      -C9      -H14     :-176.119193
 C5      -C6      -C7      -C8      :  -0.540470
 C5      -X       -C4           : collinear
 C5      -X       -C4           : collinear
 C6      -C5      -Pd2     -X       :-116.243194
 C6      -C5      -C4      -C9      :  -4.675688
 C6      -C5      -C4      -F10     :-165.076052
 C5      -C4      -X            : collinear
 C6      -C7      -C8      -C9      :  -1.325091
 C6      -C7      -C8      -H13     :-179.887342
 C7      -C6      -C5      -H11     :-162.447253
 C7      -C6      -C5      -X       :   3.464907
 C7      -C8      -C9      -H14     : 179.142122
 C8      -C7      -C6      -H12     :-177.288359
 C8      -C9      -C4      -F10     : 163.633244
 C8      -C9      -C4      -X       :   2.913388
 C9      -C4      -Pd2     -X       : 117.341652
 C9      -C4      -C5      -H11     : 161.239459
 C4      -C5      -X            : collinear
 F10     -C4      -Pd2     -X       :-113.888151
 F10     -C4      -C5      -H11     :   0.839096
 C4      -C5      -X            : collinear
 F10     -C4      -C9      -H14     : -15.399337
 H11     -C5      -Pd2     -X       : 117.253740
 C5      -C4      -X            : collinear
 H11     -C5      -C6      -H12     :  14.355165
 H12     -C6      -C5      -X       :-179.732674
 H13     -C8      -C9      -H14     :  -2.293167
 H14     -C9      -C4      -X       :-176.119193
 C3      -P1      -Pd2     -X       : -39.765669
 C3      -P1      -C16     -C11     :  87.891372
 C3      -P1      -C16     -C15     :-149.507873
 C3      -P1      -C16     -H47     : -30.363395
 C3      -P1      -C17     -C28     :  68.575132
 C3      -P1      -C17     -C32     :-117.320139
 C3      -C18     -C19     -C20     :  58.739691
 C3      -C18     -C19     -H39     : -62.516410
 C3      -C18     -C19     -H40     :-179.901248
 C3      -C10     -C21     -C20     : -57.176607
 C3      -C10     -C21     -H43     :  63.885387
 C3      -C10     -C21     -H44     :-178.954189
 C16     -P1      -Pd2     -X       :  77.720671
 C16     -P1      -C3      -C18     :  97.105682
 C16     -P1      -C3      -C10     : -30.512507
 C16     -P1      -C3      -H36     :-148.298681
 C16     -P1      -C17     -C28     : -47.257531
 C16     -P1      -C17     -C32     : 126.847198
 C16     -C11     -C12     -C13     : -58.164312
 C16     -C11     -C12     -H50     :-179.740867
 C16     -C11     -C12     -H51     :  62.890635
 C16     -C15     -C14     -C13     :  58.611595
 C16     -C15     -C14     -H54     :-179.913842
 C16     -C15     -C14     -H55     : -62.521935
 C17     -P1      -Pd2     -X       :-164.839148
 C17     -P1      -C3      -C18     : -18.531854
 C17     -P1      -C3      -C10     :-146.150043
 C17     -P1      -C3      -H36     :  96.063783
 C17     -P1      -C16     -C11     :-156.381057
 C17     -P1      -C16     -C15     : -33.780303
 C17     -P1      -C16     -H47     :  85.364175
 C17     -C28     -C29     -C30     :  -0.326790
 C17     -C28     -C29     -H59     : 179.870300
 C17     -C32     -C31     -C30     :   0.486073
 C17     -C32     -C31     -H61     :-175.891602
 C17     -C32     -C33     -C22     :-137.352873
 C17     -C32     -C33     -C26     :  43.530427
 C18     -C3      -C10     -C21     :  56.844316
 C18     -C3      -C10     -H45     : 177.104018
 C18     -C3      -C10     -H46     : -64.618369
 C18     -C19     -C20     -C21     : -55.963191
 C18     -C19     -C20     -H41     :  64.653691
 C18     -C19     -C20     -H42     :-177.721356
 C19     -C18     -C3      -C10     : -57.847589
 C19     -C18     -C3      -H36     :  54.217656
 C19     -C20     -C21     -C10     :  55.413848
 C19     -C20     -C21     -H43     : -65.677574
 C19     -C20     -C21     -H44     : 177.318838
 C20     -C19     -C18     -H37     : -62.405908
 C20     -C19     -C18     -H38     :-179.357826
 C20     -C21     -C10     -H45     :-179.381508
 C20     -C21     -C10     -H46     :  64.680474
 C21     -C20     -C19     -H39     :  65.264405
 C21     -C20     -C19     -H40     :-177.441842
 C21     -C10     -C3      -H36     : -53.740132
 C10     -C3      -C18     -H37     :  62.149969
 C10     -C3      -C18     -H38     :-178.634030
 C10     -C21     -C20     -H41     : -65.260185
 C10     -C21     -C20     -H42     : 177.150954
 C11     -C16     -C15     -C14     : -58.497245
 C11     -C16     -C15     -H56     :  62.142682
 C11     -C16     -C15     -H57     :-179.779661
 C11     -C12     -C13     -C14     :  55.349695
 C11     -C12     -C13     -H52     : 177.174843
 C11     -C12     -C13     -H53     : -65.242998
 C12     -C11     -C16     -C15     :  58.348698
 C12     -C11     -C16     -H47     : -56.620220
 C12     -C13     -C14     -C15     : -55.661573
 C12     -C13     -C14     -H54     :-177.317776
 C12     -C13     -C14     -H55     :  65.416849
 C13     -C12     -C11     -H48     : 178.720059
 C13     -C12     -C11     -H49     :  63.327616
 C13     -C14     -C15     -H56     : -63.083311
 C13     -C14     -C15     -H57     :-178.291834
 C14     -C13     -C12     -H50     : 177.053943
 C14     -C13     -C12     -H51     : -65.579163
 C14     -C15     -C16     -H47     :  57.664056
 C15     -C16     -C11     -H48     :-179.936192
 C15     -C16     -C11     -H49     : -63.033416
 C15     -C14     -C13     -H52     :-177.476826
 C15     -C14     -C13     -H53     :  64.918228
 C28     -C17     -C32     -C31     :  -0.871968
 C28     -C17     -C32     -C33     :-178.928100
 C28     -C29     -C30     -C31     :  -0.115384
 C28     -C29     -C30     -H60     : 179.295595
 C29     -C28     -C17     -C32     :   0.850394
 C29     -C30     -C31     -C32     :   0.015970
 C29     -C30     -C31     -H61     : 176.608522
 C30     -C29     -C28     -H58     : 178.574828
 C30     -C31     -C32     -C33     : 178.890526
 C31     -C30     -C29     -H59     : 179.688440
 C31     -C32     -C33     -C22     :  44.565019
 C31     -C32     -C33     -C26     :-134.551681
 C32     -C17     -C28     -H58     :-177.989384
 C32     -C31     -C30     -H60     :-179.390956
 C32     -C33     -C22     -C23     : 179.481969
 C32     -C33     -C22     -C41     :   5.321845
 C32     -C33     -C26     -C25     :-179.160890
 C32     -C33     -C26     -C27     :   8.161320
 C33     -C32     -C31     -H61     :   2.512850
 C33     -C22     -C23     -C24     :  -0.039720
 C33     -C22     -C23     -H62     :-178.944142
 C33     -C22     -C41     -C42     : 118.541309
 C33     -C22     -C41     -C45     :-118.431226
 C33     -C22     -C41     -H68     :   5.205769
 C33     -C26     -C25     -C24     :  -0.703109
 C33     -C26     -C25     -H63     :-179.186516
 C33     -C26     -C27     -C40     :  64.015094
 C33     -C26     -C27     -C44     :-171.562749
 C33     -C26     -C27     -H64     : -53.629150
 C22     -C33     -C26     -C25     :   1.698894
 C22     -C33     -C26     -C27     :-170.978896
 C22     -C23     -C24     -C25     :   1.063186
 C22     -C23     -C24     -C43     :-179.309854
 C22     -C41     -C42     -H69     :  66.147975
 C22     -C41     -C42     -H70     :-174.326432
 C22     -C41     -C42     -H71     : -55.256123
 C22     -C41     -C45     -H76     : -67.563930
 C22     -C41     -C45     -H77     : 172.850607
 C22     -C41     -C45     -H78     :  52.496295
 C23     -C22     -C33     -C26     :  -1.346332
 C23     -C22     -C41     -C42     : -55.946705
 C23     -C22     -C41     -C45     :  67.080760
 C23     -C22     -C41     -H68     :-169.282245
 C23     -C24     -C25     -C26     :  -0.691187
 C23     -C24     -C25     -H63     : 177.869064
 C23     -C24     -C43     -C34     :  65.047922
 C23     -C24     -C43     -C35     : -59.419190
 C23     -C24     -C43     -H72     :-177.401025
 C24     -C23     -C22     -C41     : 174.852705
 C24     -C25     -C26     -C27     : 172.461322
 C24     -C43     -C34     -H79     : -63.734219
 C24     -C43     -C34     -H80     : 176.190600
 C24     -C43     -C34     -H81     :  56.524026
 C24     -C43     -C35     -H82     :  64.402819
 C24     -C43     -C35     -H83     : -56.124379
 C24     -C43     -C35     -H84     :-175.678488
 C25     -C24     -C23     -H62     :-179.998031
 C25     -C24     -C43     -C34     :-115.347039
 C25     -C24     -C43     -C35     : 120.185849
 C25     -C24     -C43     -H72     :   2.204013
 C25     -C26     -C27     -C40     :-108.939006
 C25     -C26     -C27     -C44     :  15.483150
 C25     -C26     -C27     -H64     : 133.416749
 C26     -C33     -C22     -C41     :-175.506457
 C26     -C25     -C24     -C43     : 179.681006
 C26     -C27     -C40     -H65     :  62.443561
 C26     -C27     -C40     -H66     : -57.696446
 C26     -C27     -C40     -H67     :-177.540986
 C26     -C27     -C44     -H73     : -70.360721
 C26     -C27     -C44     -H74     : 171.133573
 C26     -C27     -C44     -H75     :  52.035152
 C27     -C26     -C25     -H63     :  -6.022085
 C40     -C27     -C44     -H73     :  54.923868
 C40     -C27     -C44     -H74     : -63.581837
 C40     -C27     -C44     -H75     : 177.319741
 C41     -C22     -C23     -H62     :  -4.051717
 C42     -C41     -C45     -H76     :  57.637632
 C42     -C41     -C45     -H77     : -61.947831
 C42     -C41     -C45     -H78     : 177.697857
 C43     -C24     -C23     -H62     :  -0.371070
 C43     -C24     -C25     -H63     :  -1.758744
 C44     -C27     -C40     -H65     : -67.381240
 C44     -C27     -C40     -H66     : 172.478754
 C44     -C27     -C40     -H67     :  52.634213
 C45     -C41     -C42     -H69     : -58.938616
 C45     -C41     -C42     -H70     :  60.586977
 C45     -C41     -C42     -H71     : 179.657286
 C34     -C43     -C35     -H82     : -59.508997
 C34     -C43     -C35     -H83     : 179.963805
 C34     -C43     -C35     -H84     :  60.409695
 C35     -C43     -C34     -H79     :  60.768224
 C35     -C43     -C34     -H80     : -59.306957
 C35     -C43     -C34     -H81     :-178.973532
 H36     -C3      -C18     -H37     : 174.215214
 H36     -C3      -C18     -H38     : -66.568786
 H36     -C3      -C10     -H45     :  66.519570
 H36     -C3      -C10     -H46     :-175.202817
 H37     -C18     -C19     -H39     : 176.337991
 H37     -C18     -C19     -H40     :  58.953153
 H38     -C18     -C19     -H39     :  59.386074
 H38     -C18     -C19     -H40     : -57.998765
 H39     -C19     -C20     -H41     :-174.118713
 H39     -C19     -C20     -H42     : -56.493760
 H40     -C19     -C20     -H41     : -56.824960
 H40     -C19     -C20     -H42     :  60.799993
 H41     -C20     -C21     -H43     : 173.648392
 H41     -C20     -C21     -H44     :  56.644805
 H42     -C20     -C21     -H43     :  56.059532
 H42     -C20     -C21     -H44     : -60.944056
 H43     -C21     -C10     -H45     : -58.319514
 H43     -C21     -C10     -H46     :-174.257532
 H44     -C21     -C10     -H45     :  58.840909
 H44     -C21     -C10     -H46     : -57.097108
 H47     -C16     -C11     -H48     :  65.094890
 H47     -C16     -C11     -H49     :-178.002334
 H47     -C16     -C15     -H56     : 178.303983
 H47     -C16     -C15     -H57     : -63.618359
 H48     -C11     -C12     -H50     :  57.143503
 H48     -C11     -C12     -H51     : -60.224995
 H49     -C11     -C12     -H50     : -58.248939
 H49     -C11     -C12     -H51     :-175.617437
 H50     -C12     -C13     -H52     : -61.120909
 H50     -C12     -C13     -H53     :  56.461249
 H51     -C12     -C13     -H52     :  56.245985
 H51     -C12     -C13     -H53     : 173.828144
 H52     -C13     -C14     -H54     :  60.866972
 H52     -C13     -C14     -H55     : -56.398403
 H53     -C13     -C14     -H54     : -56.737974
 H53     -C13     -C14     -H55     :-174.003349
 H54     -C14     -C15     -H56     :  58.391252
 H54     -C14     -C15     -H57     : -56.817271
 H55     -C14     -C15     -H56     : 175.783159
 H55     -C14     -C15     -H57     :  60.574636
 H58     -C28     -C29     -H59     :  -1.228082
 H59     -C29     -C30     -H60     :  -0.900581
 H60     -C30     -C31     -H61     :  -2.798404
 H64     -C27     -C40     -H65     : 179.342506
 H64     -C27     -C40     -H66     :  59.202500
 H64     -C27     -C40     -H67     : -60.642041
 H64     -C27     -C44     -H73     : 170.495332
 H64     -C27     -C44     -H74     :  51.989627
 H64     -C27     -C44     -H75     : -67.108794
 H68     -C41     -C42     -H69     :-174.369046
 H68     -C41     -C42     -H70     : -54.843453
 H68     -C41     -C42     -H71     :  64.226856
 H68     -C41     -C45     -H76     : 167.645815
 H68     -C41     -C45     -H77     :  48.060352
 H68     -C41     -C45     -H78     : -72.293960
 H72     -C43     -C34     -H79     : 177.589756
 H72     -C43     -C34     -H80     :  57.514575
 H72     -C43     -C34     -H81     : -62.152000
 H72     -C43     -C35     -H82     :-176.424530
 H72     -C43     -C35     -H83     :  63.048272
 H72     -C43     -C35     -H84     : -56.505837
 
  nuclear repulsion energy.......          6251.130855678 hartrees
  
  Detected an organometallic with only one TM atom. 
  
  
 
  Will use High-Quality Initial guess for organometallics
       including d-d repulsion (iguess=30)
 
 Non-default options chosen:
   SCF calculation type: DFT(b3pw91-d3)              
   DFT=Becke_3_Parameter/HF+Slater+Becke88+PW91+PW-GGAIIC (B3PW91-D3)
   Geometry will be optimized in redundant internal coordinates
      user-selected coordinates frozen
   Solvation energy will be computed using PBF
     -solute cavity energy will not be included
     -surface area terms will not be included
   Vibrational frequencies and related properties will be computed
      from analytic second derivatives
   IR intensities will be computed
   Thermochemical properties will be computed
   Maximum number of geometry steps: 100
   Scaling standard convergence criteria by a factor of   5.00
   Solvent: benzene                                                         
   Internal dielectric constant:    1.000
   Continuum dielectric constant:   2.283
   Solvent probe molecule radius:   2.600
  
 Non-default print settings:
     11=  2
  
 Temporary integer options set:
     21= -1  73=  2
  
  atom       vdw   vdw2    cov     mass  grid  daf  charge   basis
  P1        2.147  2.074  1.060   30.974    Y    Y      Y    ps_6-31g*
  Pd2       1.450  1.450  1.280  105.903    Y    Y      Y    lacv3p*
  Br3       2.095  2.095  1.140   78.918    Y    Y      Y    lav3p*
  C4        1.949  1.900  0.770   12.000    Y    Y      Y    ps_6-31g*
  C5        1.949  1.900  0.770   12.000    Y    Y      Y    ps_6-31g*
  C6        1.949  1.900  0.770   12.000    Y    Y      Y    ps_6-31g*
  C7        1.949  1.900  0.770   12.000    Y    Y      Y    ps_6-31g*
  C8        1.949  1.900  0.770   12.000    Y    Y      Y    ps_6-31g*
  C9        1.949  1.900  0.770   12.000    Y    Y      Y    ps_6-31g*
  F10       1.736  1.682  0.720   18.998    Y    Y      Y    ps_6-31g*
  H11       1.597  1.150  0.320    1.008    Y    Y      Y    ps_6-31g*
  H12       1.597  1.150  0.320    1.008    Y    Y      Y    ps_6-31g*
  H13       1.597  1.150  0.320    1.008    Y    Y      Y    ps_6-31g*
  H14       1.597  1.150  0.320    1.008    Y    Y      Y    ps_6-31g*
  C3        1.949  1.900  0.770   12.000    Y    Y      Y    ps_6-31g*
  C16       1.949  1.900  0.770   12.000    Y    Y      Y    ps_6-31g*
  C17       1.949  1.900  0.770   12.000    Y    Y      Y    ps_6-31g*
  C18       1.949  1.900  0.770   12.000    Y    Y      Y    ps_6-31g*
  C19       1.949  1.900  0.770   12.000    Y    Y      Y    ps_6-31g*
  C20       1.949  1.900  0.770   12.000    Y    Y      Y    ps_6-31g*
  C21       1.949  1.900  0.770   12.000    Y    Y      Y    ps_6-31g*
  C10       1.949  1.900  0.770   12.000    Y    Y      Y    ps_6-31g*
  C11       1.949  1.900  0.770   12.000    Y    Y      Y    ps_6-31g*
  C12       1.949  1.900  0.770   12.000    Y    Y      Y    ps_6-31g*
  C13       1.949  1.900  0.770   12.000    Y    Y      Y    ps_6-31g*
  C14       1.949  1.900  0.770   12.000    Y    Y      Y    ps_6-31g*
  C15       1.949  1.900  0.770   12.000    Y    Y      Y    ps_6-31g*
  C28       1.949  1.900  0.770   12.000    Y    Y      Y    ps_6-31g*
  C29       1.949  1.900  0.770   12.000    Y    Y      Y    ps_6-31g*
  C30       1.949  1.900  0.770   12.000    Y    Y      Y    ps_6-31g*
  C31       1.949  1.900  0.770   12.000    Y    Y      Y    ps_6-31g*
  C32       1.949  1.900  0.770   12.000    Y    Y      Y    ps_6-31g*
  C33       1.949  1.900  0.770   12.000    Y    Y      Y    ps_6-31g*
  C22       1.949  1.900  0.770   12.000    Y    Y      Y    ps_6-31g*
  C23       1.949  1.900  0.770   12.000    Y    Y      Y    ps_6-31g*
  C24       1.949  1.900  0.770   12.000    Y    Y      Y    ps_6-31g*
  C25       1.949  1.900  0.770   12.000    Y    Y      Y    ps_6-31g*
  C26       1.949  1.900  0.770   12.000    Y    Y      Y    ps_6-31g*
  C27       1.949  1.900  0.770   12.000    Y    Y      Y    ps_6-31g*
  C40       1.949  1.900  0.770   12.000    Y    Y      Y    ps_6-31g*
  C41       1.949  1.900  0.770   12.000    Y    Y      Y    ps_6-31g*
  C42       1.949  1.900  0.770   12.000    Y    Y      Y    ps_6-31g*
  C43       1.949  1.900  0.770   12.000    Y    Y      Y    ps_6-31g*
  C44       1.949  1.900  0.770   12.000    Y    Y      Y    ps_6-31g*
  C45       1.949  1.900  0.770   12.000    Y    Y      Y    ps_6-31g*
  C34       1.949  1.900  0.770   12.000    Y    Y      Y    ps_6-31g*
  C35       1.949  1.900  0.770   12.000    Y    Y      Y    ps_6-31g*
  H36       1.597  1.150  0.320    1.008    Y    Y      Y    ps_6-31g*
  H37       1.597  1.150  0.320    1.008    Y    Y      Y    ps_6-31g*
  H38       1.597  1.150  0.320    1.008    Y    Y      Y    ps_6-31g*
  H39       1.597  1.150  0.320    1.008    Y    Y      Y    ps_6-31g*
  H40       1.597  1.150  0.320    1.008    Y    Y      Y    ps_6-31g*
  H41       1.597  1.150  0.320    1.008    Y    Y      Y    ps_6-31g*
  H42       1.597  1.150  0.320    1.008    Y    Y      Y    ps_6-31g*
  H43       1.597  1.150  0.320    1.008    Y    Y      Y    ps_6-31g*
  H44       1.597  1.150  0.320    1.008    Y    Y      Y    ps_6-31g*
  H45       1.597  1.150  0.320    1.008    Y    Y      Y    ps_6-31g*
  H46       1.597  1.150  0.320    1.008    Y    Y      Y    ps_6-31g*
  H47       1.597  1.150  0.320    1.008    Y    Y      Y    ps_6-31g*
  H48       1.597  1.150  0.320    1.008    Y    Y      Y    ps_6-31g*
  H49       1.597  1.150  0.320    1.008    Y    Y      Y    ps_6-31g*
  H50       1.597  1.150  0.320    1.008    Y    Y      Y    ps_6-31g*
  H51       1.597  1.150  0.320    1.008    Y    Y      Y    ps_6-31g*
  H52       1.597  1.150  0.320    1.008    Y    Y      Y    ps_6-31g*
  H53       1.597  1.150  0.320    1.008    Y    Y      Y    ps_6-31g*
  H54       1.597  1.150  0.320    1.008    Y    Y      Y    ps_6-31g*
  H55       1.597  1.150  0.320    1.008    Y    Y      Y    ps_6-31g*
  H56       1.597  1.150  0.320    1.008    Y    Y      Y    ps_6-31g*
  H57       1.597  1.150  0.320    1.008    Y    Y      Y    ps_6-31g*
  H58       1.597  1.150  0.320    1.008    Y    Y      Y    ps_6-31g*
  H59       1.597  1.150  0.320    1.008    Y    Y      Y    ps_6-31g*
  H60       1.597  1.150  0.320    1.008    Y    Y      Y    ps_6-31g*
  H61       1.597  1.150  0.320    1.008    Y    Y      Y    ps_6-31g*
  H62       1.597  1.150  0.320    1.008    Y    Y      Y    ps_6-31g*
  H63       1.597  1.150  0.320    1.008    Y    Y      Y    ps_6-31g*
  H64       1.597  1.150  0.320    1.008    Y    Y      Y    ps_6-31g*
  H65       1.597  1.150  0.320    1.008    Y    Y      Y    ps_6-31g*
  H66       1.597  1.150  0.320    1.008    Y    Y      Y    ps_6-31g*
  H67       1.597  1.150  0.320    1.008    Y    Y      Y    ps_6-31g*
  H68       1.597  1.150  0.320    1.008    Y    Y      Y    ps_6-31g*
  H69       1.597  1.150  0.320    1.008    Y    Y      Y    ps_6-31g*
  H70       1.597  1.150  0.320    1.008    Y    Y      Y    ps_6-31g*
  H71       1.597  1.150  0.320    1.008    Y    Y      Y    ps_6-31g*
  H72       1.597  1.150  0.320    1.008    Y    Y      Y    ps_6-31g*
  H73       1.597  1.150  0.320    1.008    Y    Y      Y    ps_6-31g*
  H74       1.597  1.150  0.320    1.008    Y    Y      Y    ps_6-31g*
  H75       1.597  1.150  0.320    1.008    Y    Y      Y    ps_6-31g*
  H76       1.597  1.150  0.320    1.008    Y    Y      Y    ps_6-31g*
  H77       1.597  1.150  0.320    1.008    Y    Y      Y    ps_6-31g*
  H78       1.597  1.150  0.320    1.008    Y    Y      Y    ps_6-31g*
  H79       1.597  1.150  0.320    1.008    Y    Y      Y    ps_6-31g*
  H80       1.597  1.150  0.320    1.008    Y    Y      Y    ps_6-31g*
  H81       1.597  1.150  0.320    1.008    Y    Y      Y    ps_6-31g*
  H82       1.597  1.150  0.320    1.008    Y    Y      Y    ps_6-31g*
  H83       1.597  1.150  0.320    1.008    Y    Y      Y    ps_6-31g*
  H84       1.597  1.150  0.320    1.008    Y    Y      Y    ps_6-31g*
  X         0.529  0.529  0.529    0.000    N    N      N    
 
  atom      formal  2spin      esp    mulk    frag
  P1           0       0        Y    0.000       0
  Pd2          0       0        Y    0.000       0
  Br3          0       0        Y    0.000       0
  X                          0.000   0.000       0
  
  end of program pre
   
 Time(pre)  user:       1.182  user+sys:       1.182  wallclock:       1.369
  
  start of program onee
  
  smallest eigenvalue of S:    2.979E-04
  number of canonical orbitals.....          722
  end of program onee
   
 Time(onee)  user:      12.438  user+sys:      12.438  wallclock:      10.188
  
  start of program hfig
  
  initial wavefunction generated automatically from atomic wavefunctions
  Only one possible d-orb occupation 
  Skip d-d repulsion considerations 
 
  Irreducible     Total no   No of occupied orbitals 
  representation  orbitals   Shell_1  Shell_2    ...
  No Symm          722        168
  ------------------------
  Orbital occupation/shell    1.000
 
  end of program hfig
   
 Time(hfig)  user:       1.463  user+sys:       1.463  wallclock:       1.660
  
  start of program probe
  
  end of program probe
   
 Time(probe)  user:       0.787  user+sys:       0.787  wallclock:       0.710
  
  start of program grid
  
   grid     grid set  grid #  grid sym
  ------    --------  ------  --------
  coarse        0        0        1
  medium        2        1        1
  fine          0        0        1
  ultrafine     4        2        1
  charge       -1        3        1
  gradient      4        2        1
  density       0        0        1
  DFT-fine    -11        4        1
  DFT-med.    -10        5        1
  DFT-grad    -12        6        1
  DFT-der2     -8        7        1
  DFT-cphf     -9        8        1
  LMP2-enrg     4        2        1
  LMP2-grad     2        1        1
  DFT-cphf2   -15        9        1
  PBF-dens      0        0        1
  plotting      0        0        1
  Rel-grad    -17        0        1
  
  number of gridpoints: 
     atom           P1         Pd2         Br3          C4          C5          C6          C7
  grid # 1         609         370         512          80          92          95          93
  grid # 2         420         332         483         332         324         324         393
  grid # 3           7         281         437          21          21          27          40
  grid # 4        8714        8714        8714        8714        8714        8714        8714
  grid # 5        1192        1192        1192        1192        1192        1192        1192
  grid # 6        9132        9132        9132        5922        5922        5922        5922
  grid # 7       23034       32968       11582       13950       13950       13950       13950
  grid # 8         722        1150         694         748         748         748         748
  grid # 9         366        2198         358         394         394         394         394
   
  number of gridpoints: 
     atom           C8          C9         F10         H11         H12         H13         H14
  grid # 1          95          94         579         110         112         117         114
  grid # 2         322         324         563         447         448         463         458
  grid # 3          32          28         271         220         169         324         324
  grid # 4        8714        8714        8714        8714        8714        8714        8714
  grid # 5        1192        1192        1192        1192        1192        1192        1192
  grid # 6        5922        5922        5922        5922        5922        5922        5922
  grid # 7       13950       13950       23190       15206       15206       15206       15206
  grid # 8         748         748         770         786         786         786         786
  grid # 9         394         394         420         420         420         420         420
   
  number of gridpoints: 
     atom           C3         C16         C17         C18         C19         C20         C21
  grid # 1          79          80          91          92          92          92          92
  grid # 2         334         331         384         276         280         278         283
  grid # 3           6           6           9           6           6           6           6
  grid # 4        8714        8714        8714        8714        8714        8714        8714
  grid # 5        1192        1192        1192        1192        1192        1192        1192
  grid # 6        5922        5922        5922        5922        5922        5922        5922
  grid # 7       13950       13950       13950       13950       13950       13950       13950
  grid # 8         748         748         748         748         748         748         748
  grid # 9         394         394         394         394         394         394         394
   
  number of gridpoints: 
     atom          C10         C11         C12         C13         C14         C15         C28
  grid # 1          92          90          92          92          92          92          91
  grid # 2         276         278         283         278         283         277         319
  grid # 3           6           6           6           6           6           6           9
  grid # 4        8714        8714        8714        8714        8714        8714        8714
  grid # 5        1192        1192        1192        1192        1192        1192        1192
  grid # 6        5922        5922        5922        5922        5922        5922        5922
  grid # 7       13950       13950       13950       13950       13950       13950       13950
  grid # 8         748         748         748         748         748         748         748
  grid # 9         394         394         394         394         394         394         394
   
  number of gridpoints: 
     atom          C29         C30         C31         C32         C33         C22         C23
  grid # 1          95          95          93          98          97          98          93
  grid # 2         323         323         320         356         361         363         329
  grid # 3          24          28          11          12          13          17          29
  grid # 4        8714        8714        8714        8714        8714        8714        8714
  grid # 5        1192        1192        1192        1192        1192        1192        1192
  grid # 6        5922        5922        5922        5922        5922        5922        5922
  grid # 7       13950       13950       13950       13950       13950       13950       13950
  grid # 8         748         748         748         748         748         748         748
  grid # 9         394         394         394         394         394         394         394
   
  number of gridpoints: 
     atom          C24         C25         C26         C27         C40         C41         C42
  grid # 1         100          93          98          89          81          91          80
  grid # 2         360         326         362         303         244         310         245
  grid # 3          15          20          10           6           6           6           6
  grid # 4        8714        8714        8714        8714        8714        8714        8714
  grid # 5        1192        1192        1192        1192        1192        1192        1192
  grid # 6        5922        5922        5922        5922        5922        5922        5922
  grid # 7       13950       13950       13950       13950       13950       13950       13950
  grid # 8         748         748         748         748         748         748         748
  grid # 9         394         394         394         394         394         394         394
   
  number of gridpoints: 
     atom          C43         C44         C45         C34         C35         H36         H37
  grid # 1          90          82          80          83          81          98         106
  grid # 2         305         244         246         242         247         420         430
  grid # 3           6           6           6           6           6          59         141
  grid # 4        8714        8714        8714        8714        8714        8714        8714
  grid # 5        1192        1192        1192        1192        1192        1192        1192
  grid # 6        5922        5922        5922        5922        5922        5922        5922
  grid # 7       13950       13950       13950       13950       13950       15206       15206
  grid # 8         748         748         748         748         748         786         786
  grid # 9         394         394         394         394         394         420         420
   
  number of gridpoints: 
     atom          H38         H39         H40         H41         H42         H43         H44
  grid # 1         104         107         112         110         112         110         112
  grid # 2         430         444         459         454         458         450         457
  grid # 3         100         198         329         268         332         252         326
  grid # 4        8714        8714        8714        8714        8714        8714        8714
  grid # 5        1192        1192        1192        1192        1192        1192        1192
  grid # 6        5922        5922        5922        5922        5922        5922        5922
  grid # 7       15206       15206       15206       15206       15206       15206       15206
  grid # 8         786         786         786         786         786         786         786
  grid # 9         420         420         420         420         420         420         420
   
  number of gridpoints: 
     atom          H45         H46         H47         H48         H49         H50         H51
  grid # 1         102         106          99         102         103         111         110
  grid # 2         434         433         422         429         424         455         454
  grid # 3         147         142          74          97          59         293         255
  grid # 4        8714        8714        8714        8714        8714        8714        8714
  grid # 5        1192        1192        1192        1192        1192        1192        1192
  grid # 6        5922        5922        5922        5922        5922        5922        5922
  grid # 7       15206       15206       15206       15206       15206       15206       15206
  grid # 8         786         786         786         786         786         786         786
  grid # 9         420         420         420         420         420         420         420
   
  number of gridpoints: 
     atom          H52         H53         H54         H55         H56         H57         H58
  grid # 1         112         109         112         110         109         108         103
  grid # 2         458         454         458         452         440         436         425
  grid # 3         332         221         327         264         153         155         100
  grid # 4        8714        8714        8714        8714        8714        8714        8714
  grid # 5        1192        1192        1192        1192        1192        1192        1192
  grid # 6        5922        5922        5922        5922        5922        5922        5922
  grid # 7       15206       15206       15206       15206       15206       15206       15206
  grid # 8         786         786         786         786         786         786         786
  grid # 9         420         420         420         420         420         420         420
   
  number of gridpoints: 
     atom          H59         H60         H61         H62         H63         H64         H65
  grid # 1         118         118         107         105         103          90         110
  grid # 2         467         466         425         419         429         412         455
  grid # 3         406         409         138          66         127          10         309
  grid # 4        8714        8714        8714        8714        8714        8714        8714
  grid # 5        1192        1192        1192        1192        1192        1192        1192
  grid # 6        5922        5922        5922        5922        5922        5922        5922
  grid # 7       15206       15206       15206       15206       15206       15206       15206
  grid # 8         786         786         786         786         786         786         786
  grid # 9         420         420         420         420         420         420         420
   
  number of gridpoints: 
     atom          H66         H67         H68         H69         H70         H71         H72
  grid # 1         105         106         105         104         108         108         110
  grid # 2         438         438         431         442         452         453         442
  grid # 3         164         191         144         221         313         226         218
  grid # 4        8714        8714        8714        8714        8714        8714        8714
  grid # 5        1192        1192        1192        1192        1192        1192        1192
  grid # 6        5922        5922        5922        5922        5922        5922        5922
  grid # 7       15206       15206       15206       15206       15206       15206       15206
  grid # 8         786         786         786         786         786         786         786
  grid # 9         420         420         420         420         420         420         420
   
  number of gridpoints: 
     atom          H73         H74         H75         H76         H77         H78         H79
  grid # 1         107         107         104         105         110         107         107
  grid # 2         441         447         430         444         454         443         447
  grid # 3         258         233         124         240         313         264         231
  grid # 4        8714        8714        8714        8714        8714        8714        8714
  grid # 5        1192        1192        1192        1192        1192        1192        1192
  grid # 6        5922        5922        5922        5922        5922        5922        5922
  grid # 7       15206       15206       15206       15206       15206       15206       15206
  grid # 8         786         786         786         786         786         786         786
  grid # 9         420         420         420         420         420         420         420
   
  number of gridpoints: 
     atom          H80         H81         H82         H83         H84           X       total
  grid # 1         110         107         106         111         110           0       11303
  grid # 2         455         437         447         460         456           0       37308
  grid # 3         326         185         243         345         324           0       13177
  grid # 4        8714        8714        8714        8714        8714           0      836544
  grid # 5        1192        1192        1192        1192        1192           0      114432
  grid # 6        5922        5922        5922        5922        5922           0      578142
  grid # 7       15206       15206       15206       15206       15206           0     1440742
  grid # 8         786         786         786         786         786           0       74166
  grid # 9         420         420         420         420         420           0       40968
   
  end of program grid
   
 Time(grid)  user:     653.496  user+sys:     653.496  wallclock:     330.918
  
  start of program rwr
  
  end of program rwr
   
 Time(rwr)  user:      23.488  user+sys:      23.488  wallclock:      31.825
  
  start of program scf
  
 number of electrons..........        336
 number of alpha electrons....        168
 number of beta electrons.....        168
 number of orbitals, total....        722
 number of doubly-occ'd orbs..        168
 number of open shell orbs....          0
 number of occupied orbitals..        168
 number of virtual orbitals...        554
 number of hamiltonians.......          1
 number of shells.............          1
 SCF type: DFT=Becke_3_Parameter/HF+Slater+Becke88+PW91+PW-GGAIIC (B3PW91-D3)
 Energy computed using pseudospectral method.
 Convergence Criterion:
    Energy (econv):       1.00E-05
    RMS density (dconv):  5.00E-06
  
       i  u  d  i  g                   
       t  p  i  c  r                                 RMS    maximum
       e  d  i  u  i                       energy  density   DIIS  
       r  t  s  t  d       total energy    change  change    error 
  
etot    1  N  N  5  M   -2093.60529858306           1.9E-03  1.6E-01
etot    2  Y  Y  6  M   -2097.20971117056  3.6E+00  3.1E-03  1.2E-01
etot    3  Y  Y  6  M   -2098.01649784757  8.1E-01  1.3E-03  5.0E-02
etot    4  N  Y  2  U   -2098.48552639885  4.7E-01  1.4E-03  2.6E-02
etot    5  Y  Y  6  M   -2098.59413206158  1.1E-01  7.2E-04  1.5E-02
etot    6  N  Y  2  U   -2098.60534976113  1.1E-02  6.0E-04  7.7E-03
etot    7  Y  Y  6  M   -2098.60787486732  2.5E-03  1.1E-04  5.0E-03
etot    8  Y  Y  6  M   -2098.61203723088  4.2E-03  2.7E-05  7.0E-04
etot    9  N  Y  2  U   -2098.61335498148  1.3E-03  1.2E-05  2.8E-04
etot   10  N  Y  2  U   -2098.61336416226  9.2E-06  5.7E-06  8.5E-05
etot   11  N  Y  2  U   -2098.61336697828  2.8E-06  3.1E-06  3.9E-05
etot   12  N  N  2  U   -2098.61336735386  3.8E-07  0.0E+00  0.0E+00
 
  Computing the dispersion energy correction and its gradients...
  
  
 Energy components, in hartrees:
   (A)  Nuclear repulsion............    6251.13085567760
   (E)  Total one-electron terms.....  -15366.94368204433
   (F)    Electron-nuclear...........  -17363.67740543717
   (H)    Kinetic....................    1996.73372339284
   (I)  Total two-electron terms.....    7017.19945901287
   (J)    Coulomb....................    7297.20981287087
   (K)    Exchange+Correlation.......    -280.01035385800
   (L)  Electronic energy............   -8349.74422303146  (E+I)
   (N0) D3 correction................      -0.16480732596
   (N)  Total energy.................   -2098.77817467982  (A+L+N0)
   (O)  Gas phase energy.............   -2098.77817467982
  
 SCFE: SCF energy: DFT(b3pw91-d3)     -2098.77817467982 hartrees   iterations:  12
  
 
 HOMO energy:    -0.17170
 LUMO energy:    -0.04393
 
  Orbital energies (hartrees): 
   -77.06505   -24.67880   -10.26286   -10.22279   -10.19866   -10.19808
   -10.18929   -10.18873   -10.18604   -10.18478   -10.18348   -10.18261
   -10.18211   -10.18172   -10.18125   -10.18046   -10.18038   -10.18025
   -10.18019   -10.17861   -10.17718   -10.17446   -10.17182   -10.17013
   -10.17000   -10.16917   -10.16836   -10.16687   -10.16369   -10.16341
   -10.16222   -10.16156   -10.16126   -10.16071   -10.16049   -10.16040
   -10.16027   -10.15998   -10.15611   -10.15376   -10.15334    -6.56510
    -4.72336    -4.72282    -4.71940    -3.26780    -2.00653    -1.98706
    -1.97984    -1.20743    -0.87939    -0.87232    -0.85571    -0.84126
    -0.83219    -0.81578    -0.81134    -0.79113    -0.77894    -0.77141
    -0.76793    -0.76343    -0.74832    -0.74356    -0.73860    -0.73650
    -0.71650    -0.71491    -0.71359    -0.68204    -0.67746    -0.67538
    -0.65552    -0.63277    -0.62942    -0.62886    -0.61102    -0.60390
    -0.60182    -0.60108    -0.59990    -0.59449    -0.58893    -0.56438
    -0.55684    -0.54962    -0.54161    -0.53931    -0.53230    -0.51493
    -0.48884    -0.48850    -0.48610    -0.47704    -0.47388    -0.47095
    -0.46214    -0.45942    -0.45411    -0.45112    -0.44648    -0.44571
    -0.44426    -0.43960    -0.43831    -0.43599    -0.43338    -0.43179
    -0.43066    -0.42826    -0.42719    -0.42203    -0.41625    -0.41371
    -0.40699    -0.40081    -0.39705    -0.39365    -0.39313    -0.38609
    -0.38360    -0.38094    -0.37963    -0.37783    -0.37626    -0.37473
    -0.37133    -0.36743    -0.36697    -0.36129    -0.35985    -0.35890
    -0.35706    -0.35307    -0.35074    -0.34934    -0.34810    -0.34458
    -0.34049    -0.33824    -0.33651    -0.33468    -0.33394    -0.33291
    -0.32464    -0.32311    -0.31950    -0.31672    -0.31319    -0.31089
    -0.30846    -0.30276    -0.29827    -0.29208    -0.28923    -0.28517
    -0.28009    -0.27112    -0.26156    -0.25459    -0.24843    -0.23258
    -0.21969    -0.21390    -0.20652    -0.20145    -0.18689    -0.17170
    -0.04393    -0.02288    -0.01931    -0.01191     0.00056     0.00313
     0.02042     0.03357     0.04510     0.04867
 
  end of program scf
   
 Time(scf)  user:     782.095  user+sys:     782.095  wallclock:     417.572
  
  start of program der1a
  
  end of program der1a
   
 Time(der1a)  user:      39.749  user+sys:      39.749  wallclock:      20.927
  
  start of program rwr
  
  end of program rwr
   
 Time(rwr)  user:      28.950  user+sys:      28.950  wallclock:      35.792
  
  start of program der1b
  
   
  forces (hartrees/bohr) : total     
   
 atom  label           x              y              z
 ---- --------   -------------  -------------  -------------
    1 P1         -8.580771E-03   5.427344E-03   3.433958E-02
    2 Pd2         2.587506E-03   8.700529E-03  -7.176281E-03
    3 Br3         1.968157E-03   2.351895E-04  -4.720603E-04
    4 C4          3.799273E-03  -1.629281E-03   5.652003E-03
    5 C5          2.098590E-04  -2.319268E-03   4.168178E-03
    6 C6          2.034981E-03   6.603969E-06  -2.859432E-04
    7 C7         -2.650512E-03  -2.372795E-04  -3.867084E-04
    8 C8          2.751818E-05   1.451115E-03  -5.254427E-04
    9 C9          1.346973E-03   1.254894E-03   1.481993E-04
   10 F10        -4.017542E-03   4.538862E-04  -1.231452E-03
   11 H11        -1.255776E-03  -6.502763E-04  -1.092931E-03
   12 H12         1.217689E-04  -7.883613E-04  -1.059682E-03
   13 H13         3.085190E-04   1.013984E-03   4.069183E-04
   14 H14         1.199238E-04   6.909187E-04   1.548260E-04
   15 C3          1.410352E-02   8.895286E-03  -1.349804E-02
   16 C16        -5.499873E-03  -8.125823E-03  -1.863318E-02
   17 C17         3.043442E-03  -1.773223E-02  -1.420760E-02
   18 C18        -6.683911E-03   1.120325E-02  -6.142751E-03
   19 C19         3.421779E-03   2.898216E-03  -4.520005E-03
   20 C20         9.556096E-03   3.272555E-04  -4.118451E-03
   21 C21         6.269166E-03  -2.388495E-03  -8.611270E-04
   22 C10        -6.732970E-03  -1.351421E-02   1.084871E-02
   23 C11         1.297125E-02  -3.374144E-03   8.213863E-03
   24 C12         1.040180E-03  -6.459273E-03  -7.345181E-05
   25 C13        -4.634098E-03  -9.250598E-03  -1.167784E-03
   26 C14        -5.188478E-03  -2.943398E-03  -1.963961E-03
   27 C15        -8.945182E-03   1.358134E-02  -4.718272E-03
   28 C28        -6.005134E-03   1.293828E-03  -1.329617E-02
   29 C29        -1.198262E-03  -4.144683E-04  -1.037993E-03
   30 C30         1.886714E-03  -2.098922E-03   1.623590E-03
   31 C31        -4.903198E-03   1.265593E-02  -1.985072E-02
   32 C32        -2.247911E-03  -1.223542E-02  -4.335816E-02
   33 C33         2.203524E-03   8.471608E-03   4.865959E-02
   34 C22        -3.100332E-03  -3.182641E-03   1.320646E-02
   35 C23        -8.774523E-05   2.742764E-03   3.566693E-03
   36 C24         1.576313E-03  -4.133961E-03  -1.250464E-02
   37 C25        -4.500740E-04   1.893396E-03   3.023669E-03
   38 C26         7.190869E-03   8.142802E-03   1.650112E-02
   39 C27         1.127479E-02   5.677963E-04  -1.196706E-02
   40 C40         7.465234E-04   7.004928E-03  -1.165421E-02
   41 C41        -1.364403E-02  -1.245292E-02  -3.936952E-03
   42 C42        -5.200173E-03  -7.451852E-03   1.030186E-02
   43 C43         3.928694E-03   7.950241E-04   4.566945E-03
   44 C44         1.547921E-03  -1.212729E-03   8.515276E-03
   45 C45        -2.337767E-03   8.140662E-03  -6.063023E-03
   46 C34        -4.014231E-03  -6.135500E-03   8.778513E-03
   47 C35        -8.781540E-04   1.094577E-02   5.933653E-04
   48 H36        -1.078517E-02  -5.184227E-03   2.347767E-03
   49 H37         2.985470E-03   6.327340E-03   6.340534E-03
   50 H38         2.043370E-03  -1.231125E-02  -2.280107E-03
   51 H39        -4.935610E-03  -5.431255E-03  -6.385278E-03
   52 H40        -1.441176E-03  -4.248682E-03   1.093042E-02
   53 H41         4.350121E-03   5.287098E-03   7.106196E-03
   54 H42        -1.108112E-02  -2.312117E-03   1.668985E-03
   55 H43        -5.628758E-03  -4.869167E-03  -6.857805E-03
   56 H44        -5.510014E-03   1.008637E-02   3.276168E-03
   57 H45        -2.718686E-03   5.157044E-03  -7.628700E-03
   58 H46         4.333533E-03   4.772132E-03   6.587954E-03
[...]
    H37      Y    -0.00636   0.00013  -0.00411  -0.00007  -0.00019   0.00000
    H37      Z     0.00016   0.00000   0.00013  -0.00001  -0.00001  -0.00000
    H38      X     0.01893  -0.00007   0.01320   0.00013   0.00006  -0.00001
    H38      Y    -0.01543   0.00005  -0.01060  -0.00010  -0.00006   0.00001
    H38      Z     0.02250  -0.00007   0.01539   0.00022   0.00011  -0.00000
    H39      X    -0.00030   0.00002  -0.00030  -0.00001  -0.00003  -0.00000
    H39      Y    -0.00066   0.00005  -0.00072  -0.00003  -0.00007  -0.00000
    H39      Z     0.00008  -0.00001   0.00006   0.00000   0.00001   0.00000
    H40      X    -0.00013  -0.00001  -0.00018   0.00001   0.00000   0.00000
    H40      Y     0.00015   0.00002   0.00036   0.00003   0.00002  -0.00001
    H40      Z     0.00032   0.00005   0.00072   0.00008   0.00004  -0.00002
    H41      X    -0.00003   0.00002   0.00001   0.00003   0.00001  -0.00000
    H41      Y    -0.00014   0.00008  -0.00009   0.00005  -0.00004  -0.00000
    H41      Z     0.00005   0.00000   0.00003  -0.00000  -0.00000  -0.00000
    H42      X     0.00074   0.00002  -0.00001  -0.00015  -0.00013   0.00001
    H42      Y    -0.00003  -0.00000  -0.00003  -0.00000  -0.00000   0.00000
    H42      Z    -0.00011  -0.00001   0.00009   0.00008   0.00005  -0.00000
    H43      X     0.00004   0.00007  -0.00005  -0.00015  -0.00011  -0.00001
    H43      Y     0.00019   0.00017  -0.00011  -0.00024  -0.00018  -0.00002
    H43      Z    -0.00002  -0.00002   0.00001   0.00002   0.00002   0.00001
    H44      X     0.00025   0.00002  -0.00011   0.00014  -0.00004  -0.00001
    H44      Y    -0.00020  -0.00003   0.00005  -0.00010   0.00004   0.00001
    H44      Z     0.00033   0.00003   0.00000   0.00008  -0.00007  -0.00001
    H45      X    -0.00017  -0.00002  -0.00008  -0.00027  -0.00009   0.00001
    H45      Y     0.00099  -0.00018   0.00067   0.00198   0.00092   0.00006
    H45      Z     0.00213  -0.00036   0.00144   0.00291   0.00140   0.00010
    H46      X     0.00012   0.00002   0.00016  -0.00059  -0.00034  -0.00003
    H46      Y     0.00024   0.00016   0.00038  -0.00222  -0.00135  -0.00011
    H46      Z    -0.00005   0.00002  -0.00008  -0.00011  -0.00003   0.00000
    H47      X    -0.00124   0.00007  -0.00081  -0.00000  -0.00001  -0.00003
    H47      Y     0.00097   0.00004   0.00047  -0.00001  -0.00012  -0.00004
    H47      Z     0.00841  -0.00023   0.00563  -0.00014   0.00023  -0.00000
    H48      X     0.00007   0.00012  -0.00028   0.00143   0.00002   0.00007
    H48      Y    -0.00004  -0.00002   0.00002  -0.00037  -0.00001  -0.00002
    H48      Z    -0.00003  -0.00003   0.00006  -0.00054  -0.00006  -0.00003
    H49      X     0.00000   0.00003  -0.00000  -0.00028  -0.00019  -0.00004
    H49      Y    -0.00023  -0.00007  -0.00018  -0.00004   0.00080   0.00003
    H49      Z     0.00039  -0.00029   0.00021   0.00037   0.00238   0.00002
    H50      X     0.00015  -0.00003   0.00004  -0.00011   0.00018  -0.00000
    H50      Y    -0.00035   0.00010   0.00011   0.00026  -0.00062  -0.00001
    H50      Z     0.00026  -0.00005  -0.00001  -0.00014   0.00031   0.00001
    H51      X    -0.00003   0.00002  -0.00003   0.00004  -0.00002  -0.00000
    H51      Y     0.00015  -0.00004   0.00015  -0.00006   0.00020  -0.00000
    H51      Z     0.00031  -0.00015   0.00043  -0.00025   0.00067   0.00000
    H52      X    -0.00014  -0.00003   0.00021  -0.00013   0.00029   0.00001
    H52      Y    -0.00023  -0.00004   0.00027  -0.00020   0.00035   0.00002
    H52      Z    -0.00005  -0.00002   0.00008  -0.00010   0.00015   0.00001
    H53      X    -0.00003   0.00003  -0.00003   0.00013  -0.00016   0.00000
    H53      Y     0.00005  -0.00004   0.00001  -0.00011   0.00010  -0.00001
    H53      Z     0.00040  -0.00023   0.00027  -0.00063   0.00059  -0.00000
    H54      X    -0.00064   0.00017   0.00025  -0.00000   0.00028  -0.00007
    H54      Y     0.00012  -0.00002  -0.00003   0.00000  -0.00007   0.00001
    H54      Z     0.00014  -0.00003  -0.00006   0.00001  -0.00004   0.00001
    H55      X    -0.00000   0.00000  -0.00004   0.00000  -0.00001  -0.00000
    H55      Y     0.00031  -0.00003   0.00027  -0.00001  -0.00001   0.00001
    H55      Z     0.00099  -0.00014   0.00090  -0.00016   0.00008   0.00004
    H56      X    -0.00025   0.00000  -0.00013   0.00004  -0.00002   0.00004
    H56      Y     0.00027  -0.00004   0.00011  -0.00008   0.00006  -0.00002
    H56      Z     0.00186  -0.00018   0.00096  -0.00021   0.00005   0.00001
    H57      X     0.00086   0.00002   0.00046  -0.00002   0.00014  -0.00002
    H57      Y    -0.00138  -0.00008  -0.00097   0.00008  -0.00030   0.00006
    H57      Z     0.00040   0.00007   0.00024  -0.00007   0.00021  -0.00005
    H58      X    -0.09995   0.00045  -0.07933   0.00009   0.00008   0.00002
    H58      Y     0.53489  -0.00254   0.42185  -0.00055  -0.00042  -0.00008
    H58      Z     0.29373  -0.00139   0.22871  -0.00030  -0.00025  -0.00004
    H59      X     0.03025  -0.00041   0.09209  -0.00009  -0.00001  -0.00002
    H59      Y     0.00923  -0.00021   0.04516  -0.00004  -0.00000  -0.00001
    H59      Z     0.17289  -0.00244   0.55321  -0.00052  -0.00005  -0.00010
    H60      X    -0.16271  -0.00027   0.16988  -0.00010   0.00002  -0.00001
    H60      Y     0.38874   0.00065  -0.40899   0.00024  -0.00005   0.00003
    H60      Z    -0.24994  -0.00039   0.25658  -0.00015   0.00003  -0.00002
    H61      X    -0.09635   0.00036   0.05619   0.00009   0.00003  -0.00002
    H61      Y     0.42880  -0.00177  -0.25131  -0.00039  -0.00015   0.00010
    H61      Z     0.24399  -0.00095  -0.14471  -0.00021  -0.00007   0.00005
    H62      X    -0.00041  -0.00535   0.00251  -0.00078   0.00039   0.00426
    H62      Y     0.00002  -0.00030   0.00012  -0.00002   0.00001  -0.00030
    H62      Z     0.00031   0.00323  -0.00168   0.00048  -0.00025  -0.00224
    H63      X     0.00032  -0.00586  -0.00197   0.00080  -0.00010  -0.00040
    H63      Y     0.00023  -0.00338  -0.00111   0.00044  -0.00007  -0.00029
    H63      Z     0.00021  -0.00281  -0.00102   0.00039  -0.00005  -0.00021
    H64      X    -0.00004  -0.00001   0.00013  -0.00000  -0.00002   0.00000
    H64      Y     0.00000   0.00026  -0.00012  -0.00006  -0.00008   0.00004
    H64      Z     0.00000   0.00043  -0.00017  -0.00008  -0.00012   0.00007
    H65      X    -0.00029   0.00002   0.00013  -0.00001  -0.00001   0.00001
    H65      Y    -0.00102   0.00005   0.00038  -0.00001  -0.00004   0.00001
    H65      Z    -0.00163   0.00005   0.00067  -0.00001  -0.00005   0.00001
    H66      X    -0.00463   0.00018   0.00228   0.00007  -0.00002  -0.00003
    H66      Y     0.00249  -0.00010  -0.00115  -0.00004   0.00001   0.00002
    H66      Z    -0.00327   0.00008   0.00155   0.00006  -0.00001  -0.00003
    H67      X    -0.00144  -0.00055  -0.00005   0.00020   0.00007  -0.00013
    H67      Y    -0.00003  -0.00008  -0.00007   0.00003   0.00001  -0.00002
    H67      Z     0.00091   0.00036   0.00005  -0.00014  -0.00004   0.00009
    H68      X    -0.00000   0.00008  -0.00008  -0.00002   0.00005   0.00000
    H68      Y     0.00005  -0.00024  -0.00023  -0.00000  -0.00008   0.00013
    H68      Z     0.00004  -0.00041  -0.00009   0.00003  -0.00017   0.00010
    H69      X    -0.00017  -0.00004   0.00010  -0.00006   0.00015   0.00084
    H69      Y     0.00021   0.00007  -0.00010   0.00007  -0.00018  -0.00085
    H69      Z     0.00045   0.00021  -0.00031   0.00009  -0.00026  -0.00219
    H70      X     0.00021  -0.00050   0.00061   0.00010  -0.00027   0.00145
    H70      Y     0.00007  -0.00024   0.00040   0.00003  -0.00011   0.00043
    H70      Z     0.00008  -0.00026   0.00034   0.00007  -0.00016   0.00092
    H71      X    -0.00086  -0.00020   0.00040   0.00011  -0.00022   0.00454
    H71      Y     0.00088   0.00027  -0.00048  -0.00014   0.00025  -0.00489
    H71      Z    -0.00040   0.00012   0.00018  -0.00001   0.00005   0.00097
    H72      X    -0.00003  -0.00133  -0.00021   0.00012   0.00005  -0.00009
    H72      Y    -0.00001  -0.00054  -0.00009   0.00005   0.00002   0.00004
    H72      Z    -0.00001  -0.00022  -0.00007   0.00004   0.00001  -0.00013
    H73      X     0.00007  -0.00036  -0.00011   0.00002  -0.00005  -0.00007
    H73      Y     0.00018  -0.00079  -0.00019   0.00006  -0.00012  -0.00015
    H73      Z     0.00029  -0.00152  -0.00037   0.00010  -0.00016  -0.00021
    H74      X    -0.00023  -0.00101  -0.00060   0.00025   0.00016   0.00005
    H74      Y    -0.00003   0.00001   0.00003   0.00001   0.00002   0.00002
    H74      Z     0.00016   0.00080   0.00043  -0.00018  -0.00011  -0.00006
    H75      X     0.00012  -0.00121  -0.00008   0.00002  -0.00006  -0.00008
    H75      Y     0.00075  -0.00559  -0.00071   0.00034  -0.00018  -0.00026
    H75      Z    -0.00028   0.00148   0.00023  -0.00010   0.00010   0.00011
    H76      X     0.00065  -0.00004  -0.00029  -0.00001   0.00003   0.00008
    H76      Y    -0.00117   0.00009   0.00050   0.00003  -0.00006  -0.00014
    H76      Z    -0.00213   0.00014   0.00097   0.00004  -0.00007  -0.00021
    H77      X     0.00184  -0.00042  -0.00005  -0.00005  -0.00002   0.00000
    H77      Y     0.00108  -0.00015  -0.00012  -0.00002  -0.00001   0.00002
    H77      Z     0.00082  -0.00017  -0.00002  -0.00003   0.00000  -0.00001
    H78      X     0.00281   0.00007  -0.00148  -0.00002   0.00006  -0.00008
    H78      Y     0.00565   0.00012  -0.00278  -0.00005   0.00013  -0.00027
    H78      Z    -0.00555  -0.00009   0.00274   0.00005  -0.00012   0.00021
    H79      X    -0.00006   0.00002   0.00002  -0.00015   0.00015   0.00195
    H79      Y    -0.00002   0.00040   0.00003  -0.00004   0.00004   0.00017
    H79      Z    -0.00000   0.00026   0.00003  -0.00003   0.00003  -0.00011
    H80      X     0.00000  -0.00008   0.00001  -0.00001  -0.00001   0.00033
    H80      Y    -0.00005  -0.00115  -0.00022   0.00008   0.00018  -0.00064
    H80      Z    -0.00010  -0.00208  -0.00049   0.00017   0.00029  -0.00104
    H81      X    -0.00004   0.00720   0.00017  -0.00033  -0.00045   0.00422
    H81      Y     0.00005  -0.00765  -0.00020   0.00037   0.00047  -0.00463
    H81      Z    -0.00000  -0.00029   0.00004  -0.00000  -0.00007   0.00025
    H82      X    -0.00007  -0.00042   0.00001   0.00002   0.00002   0.00022
    H82      Y    -0.00002  -0.00009   0.00002   0.00000  -0.00000   0.00006
    H82      Z     0.00000  -0.00012   0.00002   0.00000   0.00001   0.00005
    H83      X     0.00004  -0.00015  -0.00001  -0.00000   0.00002   0.00002
    H83      Y     0.00011  -0.00041  -0.00000  -0.00001   0.00007  -0.00006
    H83      Z    -0.00009   0.00040   0.00004   0.00000  -0.00007   0.00004
    H84      X    -0.00000  -0.00001   0.00002  -0.00000  -0.00000  -0.00001
    H84      Y    -0.00008   0.00040  -0.00023   0.00005  -0.00000   0.00011
    H84      Z    -0.00016   0.00071  -0.00040   0.00007   0.00001   0.00019
    X        X     0.00000   0.00000   0.00000   0.00000   0.00000   0.00000
    X        Y     0.00000   0.00000   0.00000   0.00000   0.00000   0.00000
    X        Z     0.00000   0.00000   0.00000   0.00000   0.00000   0.00000
  
  Number of imaginary frequencies:   0
   
  Writing vibrational animation data to enc_comp_L1_PL146.vib
  Writing IR vibrational spectrum data to enc_comp_L1_PL146_vib.spm
  rotational symmetry number:  1

  rotational temperatures (K):      0.003578      0.003188      0.002608
   
  The Quasi-Harmonic approximation will be applied to compute
  vibrational constributions to thermodynamic properties.
  Frequencies will be adjusted to a minimum value of  100.00 cm^-1.

  vibrational temperatures:
       mode:      1        2        3        4        5        6
  temp. (K):   143.88   143.88   143.88   143.88   143.88   143.88
   
       mode:      7        8        9       10       11       12
  temp. (K):   143.88   143.88   143.88   143.88   143.88   143.88
   
       mode:     13       14       15       16       17       18
  temp. (K):   143.88   143.88   143.88   143.88   143.88   143.88
   
       mode:     19       20       21       22       23       24
  temp. (K):   143.88   166.97   180.36   195.14   199.57   211.31
   
       mode:     25       26       27       28       29       30
  temp. (K):   212.23   223.91   225.44   260.12   272.34   282.06
   
       mode:     31       32       33       34       35       36
  temp. (K):   303.23   323.99   329.87   333.66   353.38   360.37
   
       mode:     37       38       39       40       41       42
  temp. (K):   368.62   373.13   375.00   377.69   379.77   399.44
   
       mode:     43       44       45       46       47       48
  temp. (K):   402.02   406.67   420.38   427.35   436.45   463.89
   
       mode:     49       50       51       52       53       54
  temp. (K):   477.34   482.58   490.73   492.41   527.40   543.53
   
       mode:     55       56       57       58       59       60
  temp. (K):   554.04   558.41   596.02   599.38   622.63   627.50
   
       mode:     61       62       63       64       65       66
  temp. (K):   640.02   646.36   649.50   688.94   693.21   703.40
   
       mode:     67       68       69       70       71       72
  temp. (K):   711.87   726.49   729.78   751.88   769.21   770.49
   
       mode:     73       74       75       76       77       78
  temp. (K):   806.60   826.33   843.40   876.96   896.56   910.68
   
       mode:     79       80       81       82       83       84
  temp. (K):   933.21   955.63   964.21   984.21  1047.71  1077.24
   
       mode:     85       86       87       88       89       90
  temp. (K):  1099.86  1115.74  1123.14  1124.17  1141.43  1153.00
   
       mode:     91       92       93       94       95       96
  temp. (K):  1164.91  1170.45  1176.32  1206.88  1210.56  1214.08
   
       mode:     97       98       99      100      101      102
  temp. (K):  1243.02  1256.17  1265.79  1305.35  1306.24  1310.28
   
       mode:    103      104      105      106      107      108
  temp. (K):  1310.54  1317.98  1320.93  1321.07  1325.16  1328.28
   
       mode:    109      110      111      112      113      114
  temp. (K):  1347.18  1355.90  1364.46  1365.42  1367.18  1369.60
   
       mode:    115      116      117      118      119      120
  temp. (K):  1388.00  1402.13  1410.90  1416.12  1417.29  1421.49
   
       mode:    121      122      123      124      125      126
  temp. (K):  1433.65  1465.15  1467.06  1476.55  1482.61  1525.25
   
       mode:    127      128      129      130      131      132
  temp. (K):  1525.55  1531.92  1541.59  1549.89  1552.04  1568.04
   
       mode:    133      134      135      136      137      138
  temp. (K):  1589.41  1594.59  1599.99  1603.15  1605.20  1610.50
   
       mode:    139      140      141      142      143      144
  temp. (K):  1613.98  1634.05  1638.99  1641.77  1648.24  1653.63
   
       mode:    145      146      147      148      149      150
  temp. (K):  1654.59  1672.56  1682.11  1697.25  1720.13  1738.86
   
       mode:    151      152      153      154      155      156
  temp. (K):  1741.35  1748.64  1753.11  1761.13  1764.31  1784.14
   
       mode:    157      158      159      160      161      162
  temp. (K):  1792.32  1820.34  1854.68  1866.08  1871.04  1876.21
   
       mode:    163      164      165      166      167      168
  temp. (K):  1877.75  1887.16  1888.81  1891.14  1892.55  1896.66
   
       mode:    169      170      171      172      173      174
  temp. (K):  1903.30  1922.11  1932.52  1938.08  1951.11  1955.27
   
       mode:    175      176      177      178      179      180
  temp. (K):  1956.38  1962.85  1966.96  1974.47  1977.57  1995.04
   
       mode:    181      182      183      184      185      186
  temp. (K):  1996.05  2001.08  2010.10  2014.25  2014.94  2018.25
   
       mode:    187      188      189      190      191      192
  temp. (K):  2021.20  2022.35  2028.55  2039.78  2046.68  2048.33
   
       mode:    193      194      195      196      197      198
  temp. (K):  2052.75  2075.29  2076.38  2080.60  2124.29  2126.43
   
       mode:    199      200      201      202      203      204
  temp. (K):  2154.14  2156.62  2163.71  2166.46  2170.71  2173.85
   
       mode:    205      206      207      208      209      210
  temp. (K):  2174.71  2177.40  2177.67  2179.10  2181.33  2182.46
   
       mode:    211      212      213      214      215      216
  temp. (K):  2183.38  2185.70  2186.92  2187.48  2189.42  2199.88
   
       mode:    217      218      219      220      221      222
  temp. (K):  2201.12  2203.35  2204.89  2207.74  2211.98  2213.88
   
       mode:    223      224      225      226      227      228
  temp. (K):  2215.59  2275.80  2314.16  2322.30  2338.24  2378.91
   
       mode:    229      230      231      232      233      234
  temp. (K):  2389.65  4351.96  4353.67  4355.07  4357.35  4360.28
   
       mode:    235      236      237      238      239      240
  temp. (K):  4363.07  4363.39  4364.58  4373.81  4374.76  4375.52
   
       mode:    241      242      243      244      245      246
  temp. (K):  4376.77  4376.83  4380.72  4381.15  4383.22  4384.72
   
       mode:    247      248      249      250      251      252
  temp. (K):  4390.15  4397.73  4430.49  4432.86  4433.49  4434.14
   
       mode:    253      254      255      256      257      258
  temp. (K):  4436.59  4442.57  4445.08  4453.66  4458.71  4467.28
   
       mode:    259      260      261      262      263      264
  temp. (K):  4474.30  4478.45  4479.98  4481.09  4489.06  4489.86
   
       mode:    265      266      267      268      269      270
  temp. (K):  4495.16  4500.03  4501.25  4507.63  4508.22  4510.87
   
       mode:    271      272      273      274      275      276
  temp. (K):  4522.85  4524.25  4567.77  4575.70  4578.24  4589.88
   
       mode:    277      278      279      280      281      282
  temp. (K):  4604.61  4610.72  4617.14  4626.37  4650.26  4665.27
   
   
  Thermodynamic properties calculated assuming an ideal gas

  In the table below, the units for temperature
  are kelvins, the units for U, H, and G are
  kcal/mol and the units for Cv and S are cal/(mol K)

  The zero point energy (ZPE):    527.053 kcal/mol
  is not included in U, H, or G in the table below
  
 
  =============================================================================
  Thermodynamic properties for P = 1.00E+00 atm, calculated at   1 temperatures


  T =   298.15 K, P = 1.00E+00 atm
   
                  U         Cv          S          H          G        ln(Q)
              =========  =========  =========  =========  =========  =========
  trans.          0.889      2.981     45.749      1.481    -12.159   20.52160
  rot.            0.889      2.981     38.321      0.889    -10.537   17.78394
  vib.           25.883    169.127    158.663     25.883    -21.422   36.15691
  elec.           0.000      0.000      0.000      0.000      0.000    0.00000
  ----------------------------------------------------------------------------
  total          27.660    175.088    242.733     28.253    -44.118   74.46245
   
   Total internal energy, Utot(SCFE + ZPE + U):   -2097.974920 hartrees
   Total enthalpy, Htot (Utot + nRT), with n=1:   -2097.973976 hartrees
    Total Gibbs free energy, Gtot (Htot - T*S):   -2098.089306 hartrees
   
  end of program freq
   
 Time(freq)  user:       0.381  user+sys:       0.381  wallclock:       0.726
  
  start of program post
  
  Writing input files for PBF
  end of program post
   
 Time(post)  user:       0.177  user+sys:       0.177  wallclock:       0.113

 Total cpu seconds     user:  146453.049   user+sys:  146453.049
  
 Total elapsed time:    83361 seconds

Job enc_comp_L1_PL146 completed on bp1-compute089 at Sat Apr 19 22:45:47 2025
