Job L1_NaOtBu_PL146 started on bp1-compute138 at Fri Nov 28 12:05:05 2025
jobid: bp1-compute138-0-69298fea

  +--------------------------------------------------------------------+
  |  Jaguar version 12.5, release 138                                  |
  |                                                                    |
  |  Copyright Schrodinger, Inc.                                       |
  |  All Rights Reserved.                                              |
  |                                                                    |
  |  The following have contributed to Jaguar (listed alphabetically): |
  |  Ty Balduf, Mike Beachy, Chandler Bennett, Art Bochevarov,         |
  |  Dale Braden, Yixiang Cao, Alan Chien, Chris Cortis,               |
  |  Rich Friesner, Jim Furness, Bill Goddard, Hod Greeley,            |
  |  Tom Hughes, Leif Jacobson, Jean-Marc Langlois, Daniel Levine,     |
  |  Rob Murphy, Dean Philipp, Tom Pollard, Murco Ringnalda,           |
  |  Daniel Mainz, Pablo Videla, Mark Watson, Haoyu Yu.                |
  |                                                                    |
  |  Use of this program should be acknowledged in publications as:    |
  |                                                                    |
  |  Jaguar, version 12.5, Schrodinger, Inc., New York, NY, 2024.      |
  |                                                                    |
  |  A. D. Bochevarov, E. Harder, T. F. Hughes, J. R. Greenwood,       |
  |  D. A. Braden, D. M. Philipp, D. Rinaldo, M. D. Halls,             |
  |  J. Zhang, R. A. Friesner, "Jaguar: A High-Performance Quantum     |
  |  Chemistry Software Program with Strengths in Life and Materials   |
  |  Sciences", Int. J. Quantum Chem., 2013, 113(18), 2110-2142.       |
  +--------------------------------------------------------------------+
  
  start of program pre
  
  Job name: L1_NaOtBu_PL146
  Executables used: /software/local/apps/schrodinger2024-3/jaguar-v12.5/bin/Linux-x86_64
  Temporary files : /tmp/ar21627/L1_NaOtBu_PL146#bp1-compute138-0-69298fea
  Basis file : using default basis file from /software/local/apps/schrodinger2024-3
  Maestro file (input):  L1_NaOtBu_PL146.mae
  Maestro file (output): L1_NaOtBu_PL146.01.mae
  
 Contents of input file: &gen and (if present) &atomic sections only
 ----------------Contents start----------------
&gen
dftname=b3pw91-d3
basis=6-31G*
numd=5
ip11=2
iaccg=3
isolv=2
igeopt=1
solvent=benzene
ifreq=1
&
&atomic
atom basis
Pd2 lacv3p*
&
 -----------------Contents end-----------------
 
  PS calculation requested. Using PS version of 6-31g*
  basis set:               non_standard                    
  net molecular charge:    0
  multiplicity:            1
  
  Using up to  18 threads per process
  
  This run will use ECP on 1 atom
  number of basis functions....          715
  
 Input geometry:
                                   angstroms
  atom               x                 y                 z
  P1            0.0000000000      0.0000000000      0.0000000000 
  Pd2           0.0000000000      0.0000000000      2.2686742399 
  C3            1.7507254619      0.0000000000     -0.7016036189 
  C4           -1.0055838301     -1.1495635959     -1.0733563521 
  C5           -0.6272456564      1.6728760514     -0.5504000269 
  C6            1.9197249847     -0.1497709441     -2.2189250760 
  C7            3.3941335120     -0.0265307288     -2.6260426974 
  C8            4.2708641012     -1.0317287584     -1.8795494371 
  C9            4.0973701279     -0.8865174447     -0.3668500469 
  C10           2.6275152937     -1.0236344001      0.0370772208 
  C11          -0.5591004545     -2.6049562888     -0.8815501670 
  C12          -1.4551540114     -3.5741122497     -1.6610467616 
  C13          -2.9277174797     -3.4024078426     -1.2827046458 
  C14          -3.3784866219     -1.9543670767     -1.4864244172 
  C15          -2.4877408151     -0.9855888081     -0.7045660990 
  C16          -0.7589302157      1.9587261122     -1.9185224135 
  C17          -1.1326307131      3.2178534030     -2.3805342548 
  C18          -1.3898835556      4.2354310834     -1.4657528559 
  C19          -1.3138783472      3.9613163949     -0.1041287784 
  C20          -0.9633429046      2.6920278718      0.3798165174 
  C21          -1.0597973515      2.4472991754      1.8502002260 
  C22          -2.3121002895      2.3931863822      2.4703925246 
  C23          -2.3876201231      2.0589395527      3.8400535190 
  C24          -1.2680191803      1.6994819694      4.5746876414 
  C25           0.0004985669      1.7522687645      3.9491756521 
  C26           0.1402940262      2.1837678921      2.6034012126 
  C27           1.4633695301      2.7454004652      2.0886395623 
  C28           1.5056647933      4.2525199508      2.3852045433 
  C29          -3.6148301688      2.5712631678      1.7042851174 
  C30          -4.4814868302      1.3068914731      1.7841745199 
  C31          -1.3804164527      1.2510793088      6.0191646691 
  C32           2.7122018387      2.0520013278      2.6313726560 
  C33          -4.3895383131      3.8057344585      2.1824449216 
  C34          -2.8370580441      1.3133694094      6.4993351811 
  C35          -0.4590538839      2.0597750104      6.9418403276 
  H36           2.1141674687      0.9998245790     -0.4184570800 
  H37           1.5382769431     -1.1298812908     -2.5379213415 
  H38           1.3390671380      0.6082379327     -2.7514233851 
  H39           3.7405394154      0.9932411308     -2.4024522636 
  H40           3.4926029473     -0.1596751072     -3.7111663834 
  H41           3.9846343871     -2.0513977021     -2.1776147545 
  H42           5.3246000172     -0.9053226896     -2.1616667216 
  H43           4.4648899563      0.1010505186     -0.0501110110 
  H44           4.7029607890     -1.6321906490      0.1634349324 
  H45           2.5039657985     -0.8924921672      1.1182835516 
  H46           2.2830796338     -2.0413581014     -0.1907958160 
  H47          -0.8709525520     -0.8804939966     -2.1312100029 
  H48           0.4832997950     -2.7333568857     -1.1953648360 
  H49          -0.5966844079     -2.8457973071      0.1913615676 
  H50          -1.1295079756     -4.6067957286     -1.4806274659 
  H51          -1.3339617484     -3.3901198486     -2.7394020451 
  H52          -3.5557278181     -4.0879231428     -1.8668138898 
  H53          -3.0624449210     -3.6754385240     -0.2252479498 
  H54          -4.4244757396     -1.8293286013     -1.1773690073 
  H55          -3.3342019576     -1.7054519855     -2.5576009260 
  H56          -2.5961133428     -1.1759668054      0.3740408124 
  H57          -2.8066850574      0.0500674620     -0.8741596901 
  H58          -0.5861289483      1.1770654236     -2.6518433278 
  H59          -1.2222720483      3.3982551106     -3.4499060248 
  H60          -1.6714257510      5.2294084530     -1.8076906905 
  H61          -1.5618761566      4.7363688178      0.6180444657 
  H62          -3.3655179848      2.0274394143      4.3155524782 
  H63           0.8894728636      1.6295442157      4.5643164038 
  H64           1.4651994242      2.6283678797      0.9986788460 
  H65           1.4733824176      4.4317850703      3.4672887659 
  H66           0.6501302519      4.7658199273      1.9324178107 
  H67           2.4243286148      4.7028098577      1.9883598156 
  H68          -3.3741951003      2.7238117477      0.6480198825 
  H69          -4.8327415481      1.1205568815      2.8061982952 
  H70          -5.3648194065      1.4043229746      1.1403267057 
  H71          -3.9132571422      0.4293214160      1.4597240492 
  H72          -1.0600768747      0.2002998510      6.0640523067 
  H73           2.8400398895      2.2240666230      3.7074009984 
  H74           3.6068131882      2.4406930843      2.1298984467 
  H75           2.6620558239      0.9702492373      2.4614571638 
  H76          -4.6705561665      3.7180708659      3.2396634290 
  H77          -5.3122384651      3.9338409754      1.6019414996 
  H78          -3.7870005805      4.7150312299      2.0723593719 
  H79          -3.2070241739      2.3459451793      6.4923720349 
  H80          -2.9330289238      0.9263926672      7.5217515278 
  H81          -3.4862144405      0.7237632391      5.8412626289 
  H82          -0.7486892063      3.1175875174      6.9620672088 
  H83           0.5826859734      2.0059006217      6.6053929074 
  H84          -0.5083488799      1.6816721954      7.9706831482 
  O93           0.4061133659     -0.2105188257      4.3268105840 
  Na94          2.3160780061      0.7610819853      3.9355313367 
  C95          -0.1050679645     -1.3732645874      4.9127225565 
  C96           0.6065005995     -2.6243497817      4.3662233271 
  H97           0.2134401805     -3.5549715551      4.8004121123 
  H98           1.6839002432     -2.5743703753      4.5792340436 
  H99           0.4792946125     -2.6551786489      3.2780220657 
  C100         -1.6126309093     -1.5111420538      4.6322797678 
  H101         -2.0434030127     -2.4013173834      5.1150291483 
  H102         -1.7795046184     -1.5762313839      3.5483400489 
  H103         -2.1458823727     -0.6238117175      4.9888506929 
  C104          0.1125993882     -1.3030836944      6.4338209921 
  H105          1.1830963749     -1.1913019268      6.6499896840 
  H106         -0.2469484855     -2.2054235337      6.9481776932 
  H107         -0.4127342705     -0.4379606601      6.8527044579 
   
  principal moments of inertia:
        amu*angstrom^2:              5136.23861              7050.81273              7647.11959
                g*cm^2:          8.52892380E-37          1.17081485E-36          1.26983393E-36
   
  rotational constants:
               cm^(-1):      0.00328210      0.00239088      0.00220444
                   GHz:      0.09839477      0.07167670      0.06608750
   
  Molecular weight:     678.32 amu
   
  Stoichiometry: NaPdC37PH58O
  Molecular Point Group: C1      
  Point Group used: C1
  
 
Number of optimization coordinates:   371
Number of independent coordinates:    371
Number of non-redundant coordinates:  291
Number of frozen coordinates:           0
Number of harmonic constraints:         0
 
Number of geometric degrees of freedom:   291
Maximum geometric degrees of freedom:     291
 " " " " " excluding dummy atoms:         291
 
 
  bond lengths (angstroms):
 
 P1      -Pd2     :   2.268674      P1      -C3      :   1.886077
 P1      -C4      :   1.866759      P1      -C5      :   1.869463
 Pd2     -C26     :   2.213722      Pd2     -O93     :   2.108358
 Pd2     -Na94    :   2.953282      C3      -C6      :   1.534033
 C3      -C10     :   1.536957      C3      -H36     :   1.100868
 C4      -C11     :   1.534374      C4      -C15     :   1.536126
 C4      -H47     :   1.099808      C5      -C16     :   1.403855
 C5      -C20     :   1.420188      C6      -C7      :   1.534540
 C6      -H37     :   1.099035      C6      -H38     :   1.093296
 C7      -C8      :   1.528506      C7      -H39     :   1.099966
 C7      -H40     :   1.097687      C8      -C9      :   1.529525
 C8      -H41     :   1.100225      C8      -H42     :   1.098148
 C9      -C10     :   1.530500      C9      -H43     :   1.100311
 C9      -H44     :   1.097256      C10     -H45     :   1.096116
 C10     -H46     :   1.098328      C11     -C12     :   1.532903
 C11     -H48     :   1.096159      C11     -H49     :   1.100253
 C12     -C13     :   1.530055      C12     -H50     :   1.097739
 C12     -H51     :   1.100632      C13     -C14     :   1.530201
 C13     -H52     :   1.097958      C13     -H53     :   1.100414
 C14     -C15     :   1.530772      C14     -H54     :   1.097836
 C14     -H55     :   1.100608      C15     -H56     :   1.100628
 C15     -H57     :   1.096846      C16     -C17     :   1.392303
 C16     -H58     :   1.085640      C17     -C18     :   1.392289
 C17     -H59     :   1.088180      C18     -C19     :   1.391020
 C18     -H60     :   1.088200      C19     -C20     :   1.402915
 C19     -H61     :   1.088000      C20     -C21     :   1.493728
 C21     -C22     :   1.398510      C21     -C26     :   1.441173
 C22     -C23     :   1.411877      C22     -C29     :   1.521755
 C23     -C24     :   1.386508      C23     -H62     :   1.087831
 C24     -C25     :   1.415341      C24     -C31     :   1.516645
 C25     -C26     :   1.420156      C25     -H63     :   1.087996
 C25     -Na94    :   2.518838      C26     -C27     :   1.526741
 C27     -C28     :   1.536603      C27     -C32     :   1.528052
 C27     -H64     :   1.096227      C28     -H65     :   1.097308
 C28     -H66     :   1.095642      C28     -H67     :   1.097356
 C29     -C30     :   1.534963      C29     -C33     :   1.533861
 C29     -H68     :   1.094017      C30     -H69     :   1.096646
 C30     -H70     :   1.097410      C30     -H71     :   1.094661
 C31     -C34     :   1.535008      C31     -C35     :   1.534349
 C31     -H72     :   1.099441      C32     -H73     :   1.097172
 C32     -H74     :   1.096762      C32     -H75     :   1.096163
 C32     -Na94    :   1.877290      C33     -H76     :   1.097437
 C33     -H77     :   1.097621      C33     -H78     :   1.096354
 C34     -H79     :   1.096876      C34     -H80     :   1.097404
 C34     -H81     :   1.096403      C35     -H82     :   1.096934
 C35     -H83     :   1.096048      C35     -H84     :   1.097228
 H63     -Na94    :   1.784601      H73     -Na94    :   1.570638
 H75     -Na94    :   1.528511      O93     -Na94    :   2.178319
 O93     -C95     :   1.398777      C95     -C96     :   1.539547
 C95     -C100    :   1.539612      C95     -C104    :   1.538195
 C96     -H97     :   1.099579      C96     -H98     :   1.099391
 C96     -H99     :   1.096045      C100    -H101    :   1.100465
 C100    -H102    :   1.098640      C100    -H103    :   1.094922
 C104    -H105    :   1.097810      C104    -H106    :   1.099115
 C104    -H107    :   1.095389
 
  bond angles:
 
 C3      -P1      -Pd2     : 111.838456  C4      -P1      -Pd2     : 125.098504
 C4      -P1      -C3      : 106.626563  C5      -P1      -Pd2     : 107.122529
 C5      -P1      -C3      : 101.649460  C5      -P1      -C4      : 101.597064
 C26     -Pd2     -P1      :  98.696793  O93     -Pd2     -P1      : 167.469315
 O93     -Pd2     -C26     :  86.484850  Na94    -Pd2     -P1      : 124.361215
 Na94    -Pd2     -C26     :  67.091376  Na94    -Pd2     -O93     :  47.445380
 C6      -C3      -P1      : 118.047242  C10     -C3      -P1      : 110.533113
 C10     -C3      -C6      : 110.334816  H36     -C3      -P1      : 102.167592
 H36     -C3      -C6      : 107.860549  H36     -C3      -C10     : 107.033585
 C11     -C4      -P1      : 110.823072  C15     -C4      -P1      : 108.419844
 C15     -C4      -C11     : 110.609914  H47     -C4      -P1      : 109.660750
 H47     -C4      -C11     : 108.461943  H47     -C4      -C15     : 108.839421
 C16     -C5      -P1      : 120.039765  C20     -C5      -P1      : 121.918836
 C20     -C5      -C16     : 118.034602  C7      -C6      -C3      : 111.126086
 H37     -C6      -C3      : 109.628537  H37     -C6      -C7      : 109.152966
 H38     -C6      -C3      : 110.827205  H38     -C6      -C7      : 108.989619
 H38     -C6      -H37     : 107.013538  C8      -C7      -C6      : 111.637088
 H39     -C7      -C6      : 108.851194  H39     -C7      -C8      : 109.255375
 H40     -C7      -C6      : 109.798663  H40     -C7      -C8      : 110.583303
 H40     -C7      -H39     : 106.567542  C9      -C8      -C7      : 110.824799
 H41     -C8      -C7      : 109.144586  H41     -C8      -C9      : 109.051087
 H42     -C8      -C7      : 110.439834  H42     -C8      -C9      : 110.609155
 H42     -C8      -H41     : 106.661475  C10     -C9      -C8      : 111.188968
 H43     -C9      -C8      : 109.391440  H43     -C9      -C10     : 108.978701
 H44     -C9      -C8      : 110.538972  H44     -C9      -C10     : 109.975225
 H44     -C9      -H43     : 106.647360  C9      -C10     -C3      : 111.183501
 H45     -C10     -C3      : 109.274265  H45     -C10     -C9      : 110.968783
 H46     -C10     -C3      : 109.786881  H46     -C10     -C9      : 109.234350
 H46     -C10     -H45     : 106.270074  C12     -C11     -C4      : 111.470923
 H48     -C11     -C4      : 110.611906  H48     -C11     -C12     : 109.648069
 H49     -C11     -C4      : 108.638021  H49     -C11     -C12     : 109.725369
 H49     -C11     -H48     : 106.619520  C13     -C12     -C11     : 111.462453
 H50     -C12     -C11     : 109.741937  H50     -C12     -C13     : 110.513901
 H51     -C12     -C11     : 109.157249  H51     -C12     -C13     : 109.237390
 H51     -C12     -H50     : 106.596315  C14     -C13     -C12     : 110.903075
 H52     -C13     -C12     : 110.418456  H52     -C13     -C14     : 110.579735
 H53     -C13     -C12     : 109.123753  H53     -C13     -C14     : 109.066359
 H53     -C13     -H52     : 106.635735  C15     -C14     -C13     : 111.067942
 H54     -C14     -C13     : 110.546722  H54     -C14     -C15     : 109.788302
 H55     -C14     -C13     : 109.374278  H55     -C14     -C15     : 109.302675
 H55     -C14     -H54     : 106.652290  C14     -C15     -C4      : 111.794023
 H56     -C15     -C4      : 108.168685  H56     -C15     -C14     : 109.498208
 H57     -C15     -C4      : 110.135215  H57     -C15     -C14     : 110.449710
 H57     -C15     -H56     : 106.631586  C17     -C16     -C5      : 122.188394
 H58     -C16     -C5      : 119.784890  H58     -C16     -C17     : 118.015389
 C18     -C17     -C16     : 119.506728  H59     -C17     -C16     : 119.876569
 H59     -C17     -C18     : 120.616662  C19     -C18     -C17     : 119.276772
 H60     -C18     -C17     : 120.592780  H60     -C18     -C19     : 120.113689
 C20     -C19     -C18     : 121.979103  H61     -C19     -C18     : 119.795257
 H61     -C19     -C20     : 118.196456  C19     -C20     -C5      : 118.845621
 C21     -C20     -C5      : 122.851788  C21     -C20     -C19     : 118.142334
 C22     -C21     -C20     : 120.046159  C26     -C21     -C20     : 119.383360
 C26     -C21     -C22     : 120.452084  C23     -C22     -C21     : 119.160908
 C29     -C22     -C21     : 122.601167  C29     -C22     -C23     : 118.053579
 C24     -C23     -C22     : 122.153266  H62     -C23     -C22     : 118.618583
 H62     -C23     -C24     : 119.129654  C25     -C24     -C23     : 118.678545
 C31     -C24     -C23     : 121.428861  C31     -C24     -C25     : 119.892209
 C26     -C25     -C24     : 121.222395  H63     -C25     -C24     : 118.570056
 H63     -C25     -C26     : 119.315531  Na94    -C25     -C24     : 144.258095
 Na94    -C25     -C26     :  91.371628  Na94    -C25     -H63     :  37.583469
 C21     -C26     -Pd2     :  92.784907  C25     -C26     -Pd2     :  80.637495
 C25     -C26     -C21     : 117.959482  C27     -C26     -Pd2     : 111.519971
 C27     -C26     -C21     : 118.565000  C27     -C26     -C25     : 121.103200
 C28     -C27     -C26     : 108.637880  C32     -C27     -C26     : 114.933420
 C32     -C27     -C28     : 110.733854  H64     -C27     -C26     : 107.302101
 H64     -C27     -C28     : 107.251233  H64     -C27     -C32     : 107.658309
 H65     -C28     -C27     : 110.471811  H66     -C28     -C27     : 110.992786
 H66     -C28     -H65     : 107.939885  H67     -C28     -C27     : 110.837228
 H67     -C28     -H65     : 108.313272  H67     -C28     -H66     : 108.180214
 C30     -C29     -C22     : 111.146451  C33     -C29     -C22     : 111.691979
 C33     -C29     -C30     : 111.195005  H68     -C29     -C22     : 108.305547
 H68     -C29     -C30     : 106.815915  H68     -C29     -C33     : 107.448580
 H69     -C30     -C29     : 111.673014  H70     -C30     -C29     : 110.536353
 H70     -C30     -H69     : 107.700647  H71     -C30     -C29     : 110.600280
 H71     -C30     -H69     : 107.834798  H71     -C30     -H70     : 108.367600
 C34     -C31     -C24     : 110.870463  C35     -C31     -C24     : 111.863853
 C35     -C31     -C34     : 111.120900  H72     -C31     -C24     : 107.449240
 H72     -C31     -C34     : 107.608010  H72     -C31     -C35     : 107.711191
 H73     -C32     -C27     : 111.863435  H74     -C32     -C27     : 110.085137
 H74     -C32     -H73     : 107.325570  H75     -C32     -C27     : 110.816139
 H75     -C32     -H73     : 108.186848  H75     -C32     -H74     : 108.432062
 Na94    -C32     -C27     : 112.726662  Na94    -C32     -H73     :  56.709248
 Na94    -C32     -H74     : 137.177175  Na94    -C32     -H75     :  54.508812
 H76     -C33     -C29     : 111.429451  H77     -C33     -C29     : 110.710349
 H77     -C33     -H76     : 107.671305  H78     -C33     -C29     : 111.015350
 H78     -C33     -H76     : 107.680733  H78     -C33     -H77     : 108.185570
 H79     -C34     -C31     : 110.872303  H80     -C34     -C31     : 111.107334
 H80     -C34     -H79     : 107.961331  H81     -C34     -C31     : 110.626544
 H81     -C34     -H79     : 107.621474  H81     -C34     -H80     : 108.529130
 H82     -C35     -C31     : 111.149212  H83     -C35     -C31     : 111.114835
 H83     -C35     -H82     : 107.699109  H84     -C35     -C31     : 110.809681
 H84     -C35     -H82     : 107.647228  H84     -C35     -H83     : 108.276021
 Na94    -H63     -C25     : 120.587367  Na94    -H73     -C32     :  87.564266
 Na94    -H75     -C32     :  89.765703  Na94    -O93     -Pd2     :  87.077175
 C95     -O93     -Pd2     : 114.929628  C95     -O93     -Na94    : 140.034958
 C25     -Na94    -Pd2     :  51.939981  C32     -Na94    -Pd2     :  87.168279
 C32     -Na94    -C25     :  85.822132  H63     -Na94    -Pd2     :  72.383532
 H63     -Na94    -C25     :  21.829164  H63     -Na94    -C32     :  94.520217
 H73     -Na94    -Pd2     : 114.814739  H73     -Na94    -C25     :  86.613403
 H73     -Na94    -C32     :  35.726487  H73     -Na94    -H63     :  82.216305
 H75     -Na94    -Pd2     :  70.638358  H75     -Na94    -C25     :  99.175487
 H75     -Na94    -C32     :  35.725485  H75     -Na94    -H63     : 117.009633
 H75     -Na94    -H73     :  69.937304  O93     -Na94    -Pd2     :  45.477445
 O93     -Na94    -C25     :  50.838570  O93     -Na94    -C32     : 128.061986
 O93     -Na94    -H63     :  56.828457  O93     -Na94    -H73     : 137.227161
 O93     -Na94    -H75     : 115.640862  C96     -C95     -O93     : 110.971894
 C100    -C95     -O93     : 110.853821  C100    -C95     -C96     : 108.369222
 C104    -C95     -O93     : 108.940018  C104    -C95     -C96     : 108.826351
 C104    -C95     -C100    : 108.830862  H97     -C96     -C95     : 112.481207
 H98     -C96     -C95     : 110.317828  H98     -C96     -H97     : 108.196843
 H99     -C96     -C95     : 108.762694  H99     -C96     -H97     : 109.071641
 H99     -C96     -H98     : 107.901590  H101    -C100    -C95     : 112.075727
 H102    -C100    -C95     : 109.496514  H102    -C100    -H101    : 108.991436
 H103    -C100    -C95     : 110.181214  H103    -C100    -H101    : 108.786421
 H103    -C100    -H102    : 107.177907  H105    -C104    -C95     : 109.715720
 H106    -C104    -C95     : 112.273233  H106    -C104    -H105    : 108.085199
 H107    -C104    -C95     : 110.262682  H107    -C104    -H105    : 108.176014
 H107    -C104    -H106    : 108.212951
 
  torsional angles:
 
 P1      -Pd2     -C26     -C21     :  57.535607
 P1      -Pd2     -C26     -C25     : 175.421910
 P1      -Pd2     -C26     -C27     : -64.725216
 P1      -Pd2     -O93     -Na94    :  53.182934
 P1      -Pd2     -O93     -C95     : -92.158401
 P1      -Pd2     -Na94    -C25     : 122.933786
 P1      -Pd2     -Na94    -C32     :  36.024229
 P1      -Pd2     -Na94    -H63     : 131.676800
 P1      -Pd2     -Na94    -H73     :  59.337101
 P1      -Pd2     -Na94    -H75     :   3.606223
 P1      -Pd2     -Na94    -O93     :-167.853807
 P1      -C3      -C6      -C7      : 175.848889
 P1      -C3      -C6      -H37     : -63.404925
 P1      -C3      -C6      -H38     :  54.502086
 P1      -C3      -C10     -C9      :-171.188792
 P1      -C3      -C10     -H45     : -48.361914
 P1      -C3      -C10     -H46     :  67.820503
 P1      -C4      -C11     -C12     : 174.983088
 P1      -C4      -C11     -H48     : -62.743433
 P1      -C4      -C11     -H49     :  53.958042
 P1      -C4      -C15     -C14     :-176.760130
 P1      -C4      -C15     -H56     : -56.125908
 P1      -C4      -C15     -H57     :  60.052603
 P1      -C5      -C16     -C17     :-175.464217
 P1      -C5      -C16     -H58     :   5.784788
 P1      -C5      -C20     -C19     : 174.393245
 P1      -C5      -C20     -C21     : -10.297378
 Pd2     -P1      -C3      -C6      : 173.648724
 Pd2     -P1      -C3      -C10     :  45.332324
 Pd2     -P1      -C3      -H36     : -68.292801
 Pd2     -P1      -C4      -C11     : -64.484973
 Pd2     -P1      -C4      -C15     :  57.089237
 Pd2     -P1      -C4      -H47     : 175.801648
 Pd2     -P1      -C5      -C16     :-178.918170
 Pd2     -P1      -C5      -C20     :   2.049185
 Pd2     -C26     -C21     -C20     : -89.541234
 Pd2     -C26     -C21     -C22     :  86.505073
 Pd2     -C26     -C25     -C24     : -93.911671
 Pd2     -C26     -C25     -H63     :  97.053945
 Pd2     -C26     -C25     -Na94    :  70.648847
 Pd2     -C26     -C27     -C28     :-178.589445
 Pd2     -C26     -C27     -C32     : -53.921557
 Pd2     -C26     -C27     -H64     :  65.760637
 Pd2     -O93     -Na94    -C25     :  71.689201
 Pd2     -O93     -Na94    -C32     :  30.896868
 Pd2     -O93     -Na94    -H63     :  97.801693
 Pd2     -O93     -Na94    -H73     :  78.681686
 Pd2     -O93     -Na94    -H75     :  -8.940257
 Pd2     -O93     -C95     -C96     :  67.267538
 Pd2     -O93     -C95     -C100    : -53.207949
 Pd2     -O93     -C95     -C104    :-172.936751
 Pd2     -Na94    -C25     -C24     :  94.654374
 Pd2     -Na94    -C25     -C26     : -62.407226
 Pd2     -Na94    -C25     -H63     : 157.069468
 Pd2     -Na94    -C32     -C27     :  40.032062
 Pd2     -Na94    -C32     -H73     : 142.035237
 Pd2     -Na94    -C32     -H74     :-138.592181
 Pd2     -Na94    -C32     -H75     : -60.019444
 Pd2     -Na94    -H63     -C25     : -18.775652
 Pd2     -Na94    -H73     -C32     : -42.603933
 Pd2     -Na94    -H75     -C32     : 113.508865
 Pd2     -Na94    -O93     -C95     : 126.594946
 C3      -P1      -Pd2     -C26     :  86.324140
 C3      -P1      -Pd2     -O93     : -27.401073
 C3      -P1      -Pd2     -Na94    :  18.190942
 C3      -P1      -C4      -C11     :  68.700680
 C3      -P1      -C4      -C15     :-169.725109
 C3      -P1      -C4      -H47     : -51.012698
 C3      -P1      -C5      -C16     :  63.633741
 C3      -P1      -C5      -C20     :-115.398904
 C3      -C6      -C7      -C8      :  55.704139
 C3      -C6      -C7      -H39     : -64.981113
 C3      -C6      -C7      -H40     : 178.713944
 C3      -C10     -C9      -C8      : -56.646198
 C3      -C10     -C9      -H43     :  64.009854
 C3      -C10     -C9      -H44     :-179.416612
 C4      -P1      -Pd2     -C26     :-142.497961
 C4      -P1      -Pd2     -O93     : 103.776825
 C4      -P1      -Pd2     -Na94    : 149.368840
 C4      -P1      -C3      -C6      :  33.640489
 C4      -P1      -C3      -C10     : -94.675910
 C4      -P1      -C3      -H36     : 151.698965
 C4      -P1      -C5      -C16     : -46.276561
 C4      -P1      -C5      -C20     : 134.690795
 C4      -C11     -C12     -C13     : -55.583050
 C4      -C11     -C12     -H50     :-178.345239
 C4      -C11     -C12     -H51     :  65.172028
 C4      -C15     -C14     -C13     :  55.821962
 C4      -C15     -C14     -H54     : 178.391063
 C4      -C15     -C14     -H55     : -64.948500
 C5      -P1      -Pd2     -C26     : -24.229417
 C5      -P1      -Pd2     -O93     :-137.954630
 C5      -P1      -Pd2     -Na94    : -92.362615
 C5      -P1      -C3      -C6      : -72.367897
 C5      -P1      -C3      -C10     : 159.315704
 C5      -P1      -C3      -H36     :  45.690578
 C5      -P1      -C4      -C11     : 174.746585
 C5      -P1      -C4      -C15     : -63.679204
 C5      -P1      -C4      -H47     :  55.033207
 C5      -C16     -C17     -C18     :  -0.137002
 C5      -C16     -C17     -H59     : 179.935611
 C5      -C20     -C19     -C18     :   2.440838
 C5      -C20     -C19     -H61     :-179.529384
 C5      -C20     -C21     -C22     :-106.210311
 C5      -C20     -C21     -C26     :  69.852323
 C6      -C3      -C10     -C9      :  56.413248
 C6      -C3      -C10     -H45     : 179.240126
 C6      -C3      -C10     -H46     : -64.577457
 C6      -C7      -C8      -C9      : -55.281242
 C6      -C7      -C8      -H41     :  64.832169
 C6      -C7      -C8      -H42     :-178.213879
 C7      -C6      -C3      -C10     : -55.741375
 C7      -C6      -C3      -H36     :  60.850965
 C7      -C8      -C9      -C10     :  55.664695
 C7      -C8      -C9      -H43     : -64.747888
 C7      -C8      -C9      -H44     : 178.109875
 C8      -C7      -C6      -H37     : -65.321889
 C8      -C7      -C6      -H38     : 178.120933
 C8      -C9      -C10     -H45     :-178.492361
 C8      -C9      -C10     -H46     :  64.668378
 C9      -C8      -C7      -H39     :  65.167664
 C9      -C8      -C7      -H40     :-177.843056
 C9      -C10     -C3      -H36     : -60.692522
 C10     -C3      -C6      -H37     :  65.004811
 C10     -C3      -C6      -H38     :-177.088178
 C10     -C9      -C8      -H41     : -64.504470
 C10     -C9      -C8      -H42     : 178.499286
 C11     -C4      -C15     -C14     : -55.055084
 C11     -C4      -C15     -H56     :  65.579139
 C11     -C4      -C15     -H57     :-178.242350
 C11     -C12     -C13     -C14     :  55.779279
 C11     -C12     -C13     -H52     : 178.713640
 C11     -C12     -C13     -H53     : -64.388388
 C12     -C11     -C4      -C15     :  54.704536
 C12     -C11     -C4      -H47     : -64.588120
 C12     -C13     -C14     -C15     : -55.722413
 C12     -C13     -C14     -H54     :-177.851714
 C12     -C13     -C14     -H55     :  65.005810
 C13     -C12     -C11     -H48     :-178.410015
 C13     -C12     -C11     -H49     :  64.805080
 C13     -C14     -C15     -H56     : -64.034509
 C13     -C14     -C15     -H57     : 178.830830
 C14     -C13     -C12     -H50     : 178.098051
 C14     -C13     -C12     -H51     : -64.928863
 C14     -C15     -C4      -H47     :  64.009403
 C15     -C4      -C11     -H48     : 176.978015
 C15     -C4      -C11     -H49     : -66.320510
 C15     -C14     -C13     -H52     :-178.563526
 C15     -C14     -C13     -H53     :  64.479413
 C16     -C5      -C20     -C19     :  -4.658016
 C16     -C5      -C20     -C21     : 170.651360
 C16     -C17     -C18     -C19     :  -2.232632
 C16     -C17     -C18     -H60     : 179.254796
 C17     -C16     -C5      -C20     :   3.605547
 C17     -C18     -C19     -C20     :   1.066663
 C17     -C18     -C19     -H61     :-176.932394
 C18     -C17     -C16     -H58     : 178.635112
 C18     -C19     -C20     -C21     :-173.090834
 C19     -C18     -C17     -H59     : 177.694207
 C19     -C20     -C21     -C22     :  69.130284
 C19     -C20     -C21     -C26     :-114.807081
 C20     -C5      -C16     -H58     :-175.145448
 C20     -C19     -C18     -H60     : 179.586503
 C20     -C21     -C22     -C23     : 175.154758
 C20     -C21     -C22     -C29     :   0.188208
 C20     -C21     -C26     -C25     :-170.417041
 C20     -C21     -C26     -C27     :  26.859250
 C21     -C20     -C19     -H61     :   4.938944
 C21     -C22     -C23     -C24     :  -4.139564
 C21     -C22     -C23     -H62     : 179.502451
 C21     -C22     -C29     -C30     : 117.777040
 C21     -C22     -C29     -C33     :-117.399198
 C21     -C22     -C29     -H68     :   0.732564
 C21     -C26     -Pd2     -O93     :-133.942905
 C21     -C26     -Pd2     -Na94    :-178.738382
 C21     -C26     -C25     -C24     :  -5.732103
 C21     -C26     -C25     -H63     :-174.766486
 C21     -C26     -C25     -Na94    : 158.828416
 C21     -C26     -C27     -C28     :  75.499780
 C21     -C26     -C27     -C32     :-159.832332
 C21     -C26     -C27     -H64     : -40.150138
 C22     -C21     -C26     -C25     :   5.629266
 C22     -C21     -C26     -C27     :-157.094443
 C22     -C23     -C24     -C25     :   4.064527
 C22     -C23     -C24     -C31     :-175.709529
 C22     -C29     -C30     -H69     :  66.320610
 C22     -C29     -C30     -H70     :-173.795368
 C22     -C29     -C30     -H71     : -53.776116
 C22     -C29     -C33     -H76     : -61.692270
 C22     -C29     -C33     -H77     : 178.504806
 C22     -C29     -C33     -H78     :  58.327548
 C23     -C22     -C21     -C26     :  -0.865318
 C23     -C22     -C29     -C30     : -57.242422
 C23     -C22     -C29     -C33     :  67.581341
 C23     -C22     -C29     -H68     :-174.286897
 C23     -C24     -C25     -C26     :   1.017610
 C23     -C24     -C25     -H63     : 170.131574
 C23     -C24     -C25     -Na94    :-151.877499
 C23     -C24     -C31     -C34     :  -2.000683
 C23     -C24     -C31     -C35     :-126.647704
 C23     -C24     -C31     -H72     : 115.335099
 C24     -C23     -C22     -C29     : 171.056059
 C24     -C25     -C26     -C27     : 156.532405
 C24     -C25     -H63     -Na94    : 143.877219
 C24     -C25     -Na94    -C32     :-175.673221
 C24     -C25     -Na94    -H63     : -62.415093
 C24     -C25     -Na94    -H73     :-139.874608
 C24     -C25     -Na94    -H75     : 151.082006
 C24     -C25     -Na94    -O93     :  35.374893
 C24     -C31     -C34     -H79     : -63.738838
 C24     -C31     -C34     -H80     : 176.197689
 C24     -C31     -C34     -H81     :  55.582416
 C24     -C31     -C35     -H82     :  63.785822
 C24     -C31     -C35     -H83     : -56.136512
 C24     -C31     -C35     -H84     :-176.560190
 C25     -C24     -C23     -H62     :-179.595471
 C25     -C24     -C31     -C34     : 178.227961
 C25     -C24     -C31     -C35     :  53.580940
 C25     -C24     -C31     -H72     : -64.436257
 C25     -C26     -Pd2     -O93     : -16.056601
 C25     -C26     -Pd2     -Na94    : -60.852079
 C25     -C26     -C27     -C28     : -86.660290
 C25     -C26     -C27     -C32     :  38.007598
 C25     -C26     -C27     -H64     : 157.689792
 C25     -H63     -Na94    -C32     :  66.802538
 C25     -H63     -Na94    -H73     : 100.422751
 C25     -H63     -Na94    -H75     :  37.700418
 C25     -H63     -Na94    -O93     : -66.603532
 C25     -Na94    -Pd2     -C26     :  38.102144
 C25     -Na94    -Pd2     -O93     : -69.212407
 C25     -Na94    -C32     -C27     : -11.996271
 C25     -Na94    -C32     -H73     :  90.006904
 C25     -Na94    -C32     -H74     : 169.379486
 C25     -Na94    -C32     -H75     :-112.047777
 C25     -Na94    -H73     -C32     : -87.552027
 C25     -Na94    -H75     -C32     :  69.453830
 C25     -Na94    -O93     -C95     :-161.715853
 C26     -Pd2     -O93     -Na94    : -61.768530
 C26     -Pd2     -O93     -C95     : 152.890135
 C26     -Pd2     -Na94    -C32     : -48.807412
 C26     -Pd2     -Na94    -H63     :  46.845159
 C26     -Pd2     -Na94    -H73     : -25.494540
 C26     -Pd2     -Na94    -H75     : -81.225418
 C26     -Pd2     -Na94    -O93     : 107.314552
 C26     -C21     -C22     -C29     :-175.831867
 C26     -C25     -C24     -C31     :-179.204770
 C26     -C25     -H63     -Na94    : -46.796901
 C26     -C25     -Na94    -C32     :  27.265178
 C26     -C25     -Na94    -H63     : 140.523306
 C26     -C25     -Na94    -H73     :  63.063791
 C26     -C25     -Na94    -H75     :  -5.979595
 C26     -C25     -Na94    -O93     :-121.686708
 C26     -C27     -C28     -H65     :  62.517661
 C26     -C27     -C28     -H66     : -57.179097
 C26     -C27     -C28     -H67     :-177.419052
 C26     -C27     -C32     -H73     : -66.988048
 C26     -C27     -C32     -H74     : 173.777789
 C26     -C27     -C32     -H75     :  53.832001
 C26     -C27     -C32     -Na94    :  -5.226552
 C27     -C26     -Pd2     -O93     : 103.796273
 C27     -C26     -Pd2     -Na94    :  59.000796
 C27     -C26     -C25     -H63     : -12.501979
 C27     -C26     -C25     -Na94    : -38.907076
 C27     -C32     -H73     -Na94    : 103.563139
 C27     -C32     -H75     -Na94    :-103.681995
 C27     -C32     -Na94    -H63     : -32.037044
 C27     -C32     -Na94    -H73     :-102.003175
 C27     -C32     -Na94    -H75     : 100.051506
 C27     -C32     -Na94    -O93     :  18.528692
 C28     -C27     -C32     -H73     :  56.572774
 C28     -C27     -C32     -H74     : -62.661389
 C28     -C27     -C32     -H75     : 177.392824
 C28     -C27     -C32     -Na94    : 118.334270
 C29     -C22     -C23     -H62     :  -5.301926
 C30     -C29     -C33     -H76     :  63.104447
 C30     -C29     -C33     -H77     : -56.698478
 C30     -C29     -C33     -H78     :-176.875735
 C31     -C24     -C23     -H62     :   0.630473
 C31     -C24     -C25     -H63     : -10.090805
 C31     -C24     -C25     -Na94    :  27.900122
 C32     -C27     -C28     -H65     : -64.594566
 C32     -C27     -C28     -H66     : 175.708676
 C32     -C27     -C28     -H67     :  55.468721
 C32     -H73     -Na94    -H63     :-109.042387
 C32     -H73     -Na94    -H75     :  13.498172
 C32     -H73     -Na94    -O93     : -92.977907
 C32     -H75     -Na94    -H63     :  56.136746
 C32     -H75     -Na94    -H73     : -13.498507
 C32     -H75     -Na94    -O93     : 120.253324
 C32     -Na94    -Pd2     -O93     :-156.121964
 C32     -Na94    -C25     -H63     :-113.258128
 C32     -Na94    -O93     -C95     : 157.491814
 C33     -C29     -C30     -H69     : -58.782304
 C33     -C29     -C30     -H70     :  61.101717
 C33     -C29     -C30     -H71     :-178.879031
 C34     -C31     -C35     -H82     : -60.721758
 C34     -C31     -C35     -H83     : 179.355907
 C34     -C31     -C35     -H84     :  58.932229
 C35     -C31     -C34     -H79     :  61.328209
 C35     -C31     -C34     -H80     : -58.735264
 C35     -C31     -C34     -H81     :-179.350537
 H36     -C3      -C6      -H37     :-178.402849
 H36     -C3      -C6      -H38     : -60.495837
 H36     -C3      -C10     -H45     :  62.134356
 H36     -C3      -C10     -H46     : 178.316773
 H37     -C6      -C7      -H39     : 173.992859
 H37     -C6      -C7      -H40     :  57.687917
 H38     -C6      -C7      -H39     :  57.435681
 H38     -C6      -C7      -H40     : -58.869261
 H39     -C7      -C8      -H41     :-174.718925
 H39     -C7      -C8      -H42     : -57.764973
 H40     -C7      -C8      -H41     : -57.729644
 H40     -C7      -C8      -H42     :  59.224307
 H41     -C8      -C9      -H43     : 175.082947
 H41     -C8      -C9      -H44     :  57.940709
 H42     -C8      -C9      -H43     :  58.086703
 H42     -C8      -C9      -H44     : -59.055535
 H43     -C9      -C10     -H45     : -57.836309
 H43     -C9      -C10     -H46     :-174.675570
 H44     -C9      -C10     -H45     :  58.737226
 H44     -C9      -C10     -H46     : -58.102035
 H47     -C4      -C11     -H48     :  57.685359
 H47     -C4      -C11     -H49     : 174.386834
 H47     -C4      -C15     -H56     :-175.356375
 H47     -C4      -C15     -H57     : -59.177863
 H48     -C11     -C12     -H50     :  58.827795
 H48     -C11     -C12     -H51     : -57.654937
 H49     -C11     -C12     -H50     : -57.957110
 H49     -C11     -C12     -H51     :-174.439842
 H50     -C12     -C13     -H52     : -58.967587
 H50     -C12     -C13     -H53     :  57.930385
 H51     -C12     -C13     -H52     :  58.005498
 H51     -C12     -C13     -H53     : 174.903470
 H52     -C13     -C14     -H54     :  59.307173
 H52     -C13     -C14     -H55     : -57.835303
 H53     -C13     -C14     -H54     : -57.649888
 H53     -C13     -C14     -H55     :-174.792364
 H54     -C14     -C15     -H56     :  58.534592
 H54     -C14     -C15     -H57     : -58.600069
 H55     -C14     -C15     -H56     : 175.195029
 H55     -C14     -C15     -H57     :  58.060368
 H58     -C16     -C17     -H59     :  -1.292275
 H59     -C17     -C18     -H60     :  -0.818365
 H60     -C18     -C19     -H61     :   1.587446
 H63     -C25     -Na94    -H73     : -77.459514
 H63     -C25     -Na94    -H75     :-146.502900
 H63     -C25     -Na94    -O93     :  97.789987
 H63     -Na94    -Pd2     -O93     : -60.469393
 H63     -Na94    -C32     -H73     :  69.966131
 H63     -Na94    -C32     -H74     : 149.338713
 H63     -Na94    -C32     -H75     :-132.088550
 H63     -Na94    -O93     -C95     :-135.603361
 H64     -C27     -C28     -H65     : 178.200502
 H64     -C27     -C28     -H66     :  58.503744
 H64     -C27     -C28     -H67     : -61.736211
 H64     -C27     -C32     -H73     : 173.527358
 H64     -C27     -C32     -H74     :  54.293196
 H64     -C27     -C32     -H75     : -65.652592
 H64     -C27     -C32     -Na94    :-124.711146
 H68     -C29     -C30     -H69     :-175.729198
 H68     -C29     -C30     -H70     : -55.845177
 H68     -C29     -C30     -H71     :  64.174075
 H68     -C29     -C33     -H76     : 179.664479
 H68     -C29     -C33     -H77     :  59.861554
 H68     -C29     -C33     -H78     : -60.315703
 H72     -C31     -C34     -H79     : 179.022592
 H72     -C31     -C34     -H80     :  58.959119
 H72     -C31     -C34     -H81     : -61.656154
 H72     -C31     -C35     -H82     :-178.353476
 H72     -C31     -C35     -H83     :  61.724189
 H72     -C31     -C35     -H84     : -58.699488
 H73     -C32     -H75     -Na94    :  19.291599
 H73     -C32     -Na94    -H75     :-157.945319
 H73     -C32     -Na94    -O93     : 120.531867
 H73     -Na94    -Pd2     -O93     :-132.809092
 H73     -Na94    -C32     -H74     :  79.372583
 H73     -Na94    -C32     -H75     : 157.945319
 H73     -Na94    -O93     -C95     :-154.723368
 H74     -C32     -H73     -Na94    :-135.586893
 H74     -C32     -H75     -Na94    : 135.389215
 H74     -C32     -Na94    -H75     : -78.572736
 H74     -C32     -Na94    -O93     :-160.095551
 H75     -C32     -H73     -Na94    : -18.771991
 H75     -C32     -Na94    -O93     : -81.522814
 H75     -Na94    -Pd2     -O93     : 171.460030
 H75     -Na94    -O93     -C95     : 117.654689
 O93     -C95     -C96     -H97     :-179.186993
 O93     -C95     -C96     -H98     :  59.908020
 O93     -C95     -C96     -H99     : -58.253096
 O93     -C95     -C100    -H101    :-177.946050
 O93     -C95     -C100    -H102    :  60.981440
 O93     -C95     -C100    -H103    : -56.659576
 O93     -C95     -C104    -H105    : -58.290236
 O93     -C95     -C104    -H106    :-178.497519
 O93     -C95     -C104    -H107    :  60.756190
 Na94    -Pd2     -O93     -C95     :-145.341335
 Na94    -O93     -C95     -C96     : -50.577886
 Na94    -O93     -C95     -C100    :-171.053372
 Na94    -O93     -C95     -C104    :  69.217825
 C96     -C95     -C100    -H101    :  60.044610
 C96     -C95     -C100    -H102    : -61.027900
 C96     -C95     -C100    -H103    :-178.668916
 C96     -C95     -C104    -H105    :  62.826352
 C96     -C95     -C104    -H106    : -57.380931
 C96     -C95     -C104    -H107    :-178.127222
 H97     -C96     -C95     -C100    : -57.249933
 H97     -C96     -C95     -C104    :  60.949489
 H98     -C96     -C95     -C100    :-178.154920
 H98     -C96     -C95     -C104    : -59.955498
 H99     -C96     -C95     -C100    :  63.683964
 H99     -C96     -C95     -C104    :-178.116614
 C100    -C95     -C104    -H105    :-179.265756
 C100    -C95     -C104    -H106    :  60.526961
 C100    -C95     -C104    -H107    : -60.219330
 H101    -C100    -C95     -C104    : -58.151943
 H102    -C100    -C95     -C104    :-179.224454
 H103    -C100    -C95     -C104    :  63.134531
 
  nuclear repulsion energy.......          6415.663468879 hartrees
  
  Detected an organometallic with only one TM atom. 
  
  
 
  Will use High-Quality Initial guess for organometallics
       including d-d repulsion (iguess=30)
 
 Non-default options chosen:
   SCF calculation type: DFT(b3pw91-d3)              
   DFT=Becke_3_Parameter/HF+Slater+Becke88+PW91+PW-GGAIIC (B3PW91-D3)
   Geometry will be optimized in redundant internal coordinates
   Solvation energy will be computed using PBF
     -solute cavity energy will not be included
     -surface area terms will not be included
   Vibrational frequencies and related properties will be computed
      from analytic second derivatives
   IR intensities will be computed
   Thermochemical properties will be computed
   Maximum number of geometry steps: 100
   Scaling standard convergence criteria by a factor of   5.00
   Solvent: benzene                                                         
   Internal dielectric constant:    1.000
   Continuum dielectric constant:   2.283
   Solvent probe molecule radius:   2.600
  
 Non-default print settings:
     11=  2
  
 Temporary integer options set:
     21= -1  73=  2
  
  atom       vdw   vdw2    cov     mass  grid  daf  charge   basis
  P1        2.147  2.074  1.060   30.974    Y    Y      Y    ps_6-31g*
  Pd2       1.450  1.450  1.280  105.903    Y    Y      Y    lacv3p*
  C3        1.949  1.900  0.770   12.000    Y    Y      Y    ps_6-31g*
  C4        1.949  1.900  0.770   12.000    Y    Y      Y    ps_6-31g*
  C5        1.949  1.900  0.770   12.000    Y    Y      Y    ps_6-31g*
  C6        1.949  1.900  0.770   12.000    Y    Y      Y    ps_6-31g*
  C7        1.949  1.900  0.770   12.000    Y    Y      Y    ps_6-31g*
  C8        1.949  1.900  0.770   12.000    Y    Y      Y    ps_6-31g*
  C9        1.949  1.900  0.770   12.000    Y    Y      Y    ps_6-31g*
  C10       1.949  1.900  0.770   12.000    Y    Y      Y    ps_6-31g*
  C11       1.949  1.900  0.770   12.000    Y    Y      Y    ps_6-31g*
  C12       1.949  1.900  0.770   12.000    Y    Y      Y    ps_6-31g*
  C13       1.949  1.900  0.770   12.000    Y    Y      Y    ps_6-31g*
  C14       1.949  1.900  0.770   12.000    Y    Y      Y    ps_6-31g*
  C15       1.949  1.900  0.770   12.000    Y    Y      Y    ps_6-31g*
  C16       1.949  1.900  0.770   12.000    Y    Y      Y    ps_6-31g*
  C17       1.949  1.900  0.770   12.000    Y    Y      Y    ps_6-31g*
  C18       1.949  1.900  0.770   12.000    Y    Y      Y    ps_6-31g*
  C19       1.949  1.900  0.770   12.000    Y    Y      Y    ps_6-31g*
  C20       1.949  1.900  0.770   12.000    Y    Y      Y    ps_6-31g*
  C21       1.949  1.900  0.770   12.000    Y    Y      Y    ps_6-31g*
  C22       1.949  1.900  0.770   12.000    Y    Y      Y    ps_6-31g*
  C23       1.949  1.900  0.770   12.000    Y    Y      Y    ps_6-31g*
  C24       1.949  1.900  0.770   12.000    Y    Y      Y    ps_6-31g*
  C25       1.949  1.900  0.770   12.000    Y    Y      Y    ps_6-31g*
  C26       1.949  1.900  0.770   12.000    Y    Y      Y    ps_6-31g*
  C27       1.949  1.900  0.770   12.000    Y    Y      Y    ps_6-31g*
  C28       1.949  1.900  0.770   12.000    Y    Y      Y    ps_6-31g*
  C29       1.949  1.900  0.770   12.000    Y    Y      Y    ps_6-31g*
  C30       1.949  1.900  0.770   12.000    Y    Y      Y    ps_6-31g*
  C31       1.949  1.900  0.770   12.000    Y    Y      Y    ps_6-31g*
  C32       1.949  1.900  0.770   12.000    Y    Y      Y    ps_6-31g*
  C33       1.949  1.900  0.770   12.000    Y    Y      Y    ps_6-31g*
  C34       1.949  1.900  0.770   12.000    Y    Y      Y    ps_6-31g*
  C35       1.949  1.900  0.770   12.000    Y    Y      Y    ps_6-31g*
  H36       1.597  1.150  0.320    1.008    Y    Y      Y    ps_6-31g*
  H37       1.597  1.150  0.320    1.008    Y    Y      Y    ps_6-31g*
  H38       1.597  1.150  0.320    1.008    Y    Y      Y    ps_6-31g*
  H39       1.597  1.150  0.320    1.008    Y    Y      Y    ps_6-31g*
  H40       1.597  1.150  0.320    1.008    Y    Y      Y    ps_6-31g*
  H41       1.597  1.150  0.320    1.008    Y    Y      Y    ps_6-31g*
  H42       1.597  1.150  0.320    1.008    Y    Y      Y    ps_6-31g*
  H43       1.597  1.150  0.320    1.008    Y    Y      Y    ps_6-31g*
  H44       1.597  1.150  0.320    1.008    Y    Y      Y    ps_6-31g*
  H45       1.597  1.150  0.320    1.008    Y    Y      Y    ps_6-31g*
  H46       1.597  1.150  0.320    1.008    Y    Y      Y    ps_6-31g*
  H47       1.597  1.150  0.320    1.008    Y    Y      Y    ps_6-31g*
  H48       1.597  1.150  0.320    1.008    Y    Y      Y    ps_6-31g*
  H49       1.597  1.150  0.320    1.008    Y    Y      Y    ps_6-31g*
  H50       1.597  1.150  0.320    1.008    Y    Y      Y    ps_6-31g*
  H51       1.597  1.150  0.320    1.008    Y    Y      Y    ps_6-31g*
  H52       1.597  1.150  0.320    1.008    Y    Y      Y    ps_6-31g*
  H53       1.597  1.150  0.320    1.008    Y    Y      Y    ps_6-31g*
  H54       1.597  1.150  0.320    1.008    Y    Y      Y    ps_6-31g*
  H55       1.597  1.150  0.320    1.008    Y    Y      Y    ps_6-31g*
  H56       1.597  1.150  0.320    1.008    Y    Y      Y    ps_6-31g*
  H57       1.597  1.150  0.320    1.008    Y    Y      Y    ps_6-31g*
  H58       1.597  1.150  0.320    1.008    Y    Y      Y    ps_6-31g*
  H59       1.597  1.150  0.320    1.008    Y    Y      Y    ps_6-31g*
  H60       1.597  1.150  0.320    1.008    Y    Y      Y    ps_6-31g*
  H61       1.597  1.150  0.320    1.008    Y    Y      Y    ps_6-31g*
  H62       1.597  1.150  0.320    1.008    Y    Y      Y    ps_6-31g*
  H63       1.597  1.150  0.320    1.008    Y    Y      Y    ps_6-31g*
  H64       1.597  1.150  0.320    1.008    Y    Y      Y    ps_6-31g*
  H65       1.597  1.150  0.320    1.008    Y    Y      Y    ps_6-31g*
  H66       1.597  1.150  0.320    1.008    Y    Y      Y    ps_6-31g*
  H67       1.597  1.150  0.320    1.008    Y    Y      Y    ps_6-31g*
  H68       1.597  1.150  0.320    1.008    Y    Y      Y    ps_6-31g*
  H69       1.597  1.150  0.320    1.008    Y    Y      Y    ps_6-31g*
  H70       1.597  1.150  0.320    1.008    Y    Y      Y    ps_6-31g*
  H71       1.597  1.150  0.320    1.008    Y    Y      Y    ps_6-31g*
  H72       1.597  1.150  0.320    1.008    Y    Y      Y    ps_6-31g*
  H73       1.597  1.150  0.320    1.008    Y    Y      Y    ps_6-31g*
  H74       1.597  1.150  0.320    1.008    Y    Y      Y    ps_6-31g*
  H75       1.597  1.150  0.320    1.008    Y    Y      Y    ps_6-31g*
  H76       1.597  1.150  0.320    1.008    Y    Y      Y    ps_6-31g*
  H77       1.597  1.150  0.320    1.008    Y    Y      Y    ps_6-31g*
  H78       1.597  1.150  0.320    1.008    Y    Y      Y    ps_6-31g*
  H79       1.597  1.150  0.320    1.008    Y    Y      Y    ps_6-31g*
  H80       1.597  1.150  0.320    1.008    Y    Y      Y    ps_6-31g*
  H81       1.597  1.150  0.320    1.008    Y    Y      Y    ps_6-31g*
  H82       1.597  1.150  0.320    1.008    Y    Y      Y    ps_6-31g*
  H83       1.597  1.150  0.320    1.008    Y    Y      Y    ps_6-31g*
  H84       1.597  1.150  0.320    1.008    Y    Y      Y    ps_6-31g*
  O93       1.702  1.600  0.730   15.995    Y    Y      Y    ps_6-31g*
  Na94      2.308  1.492  1.540   22.990    Y    Y      Y    ps_6-31g*
  C95       1.949  1.900  0.770   12.000    Y    Y      Y    ps_6-31g*
  C96       1.949  1.900  0.770   12.000    Y    Y      Y    ps_6-31g*
  H97       1.597  1.150  0.320    1.008    Y    Y      Y    ps_6-31g*
  H98       1.597  1.150  0.320    1.008    Y    Y      Y    ps_6-31g*
  H99       1.597  1.150  0.320    1.008    Y    Y      Y    ps_6-31g*
  C100      1.949  1.900  0.770   12.000    Y    Y      Y    ps_6-31g*
  H101      1.597  1.150  0.320    1.008    Y    Y      Y    ps_6-31g*
  H102      1.597  1.150  0.320    1.008    Y    Y      Y    ps_6-31g*
  H103      1.597  1.150  0.320    1.008    Y    Y      Y    ps_6-31g*
  C104      1.949  1.900  0.770   12.000    Y    Y      Y    ps_6-31g*
  H105      1.597  1.150  0.320    1.008    Y    Y      Y    ps_6-31g*
  H106      1.597  1.150  0.320    1.008    Y    Y      Y    ps_6-31g*
  H107      1.597  1.150  0.320    1.008    Y    Y      Y    ps_6-31g*
 
  atom      formal  2spin      esp    mulk    frag
  P1           0       0        Y    0.000       0
  Pd2          0       0        Y    0.000       0
  
  end of program pre
   
 Time(pre)  user:       4.659  user+sys:       4.659  wallclock:       1.107
  
  start of program onee
  
  smallest eigenvalue of S:    2.930E-04
  number of canonical orbitals.....          713
  end of program onee
   
 Time(onee)  user:       8.232  user+sys:       8.232  wallclock:       1.473
  
  start of program hfig
  
  initial wavefunction generated automatically from atomic wavefunctions
  Only one possible d-orb occupation 
  Skip d-d repulsion considerations 
 
  Irreducible     Total no   No of occupied orbitals 
  representation  orbitals   Shell_1  Shell_2    ...
  No Symm          713        166
  ------------------------
  Orbital occupation/shell    1.000
 
  end of program hfig
   
 Time(hfig)  user:       2.763  user+sys:       2.763  wallclock:       1.156
  
  start of program probe
  
  end of program probe
   
 Time(probe)  user:       1.726  user+sys:       1.726  wallclock:       0.492
  
  start of program grid
  
   grid     grid set  grid #  grid sym
  ------    --------  ------  --------
  coarse        0        0        1
  medium        2        1        1
  fine          0        0        1
  ultrafine     4        2        1
  charge       -1        3        1
  gradient      4        2        1
  density       0        0        1
  DFT-fine    -11        4        1
  DFT-med.    -10        5        1
  DFT-grad    -12        6        1
  DFT-der2     -8        7        1
  DFT-cphf     -9        8        1
  LMP2-enrg     4        2        1
  LMP2-grad     2        1        1
  DFT-cphf2   -15        9        1
  PBF-dens      0        0        1
  plotting      0        0        1
  Rel-grad    -17        0        1
  
  number of gridpoints: 
     atom           P1         Pd2          C3          C4          C5          C6          C7
  grid # 1         606         348          81          79          95          92          92
  grid # 2         428         313         329         327         380         276         277
  grid # 3           8         214           6           6           8           6           6
  grid # 4        8582        8582        8582        8582        8582        8582        8582
  grid # 5        1192        1192        1192        1192        1192        1192        1192
  grid # 6        9488        9488        6164        6164        6164        6164        6164
  grid # 7       23054       32756       14018       14018       14018       14018       14018
  grid # 8         724        1144         750         750         750         750         750
  grid # 9         380        2168         406         406         406         406         406
   
  number of gridpoints: 
     atom           C8          C9         C10         C11         C12         C13         C14
  grid # 1          92          92          90          90          92          92          92
  grid # 2         278         277         279         282         278         278         279
  grid # 3           6           6           6           6           6           6           6
  grid # 4        8582        8582        8582        8582        8582        8582        8582
  grid # 5        1192        1192        1192        1192        1192        1192        1192
  grid # 6        6164        6164        6164        6164        6164        6164        6164
  grid # 7       14018       14018       14018       14018       14018       14018       14018
  grid # 8         750         750         750         750         750         750         750
  grid # 9         406         406         406         406         406         406         406
   
  number of gridpoints: 
     atom          C15         C16         C17         C18         C19         C20         C21
  grid # 1          90          93          96          96          95          98          98
  grid # 2         277         326         323         323         322         352         361
  grid # 3           6          22          39          35          16           6           9
  grid # 4        8582        8582        8582        8582        8582        8582        8582
  grid # 5        1192        1192        1192        1192        1192        1192        1192
  grid # 6        6164        6164        6164        6164        6164        6164        6164
  grid # 7       14018       14018       14018       14018       14018       14018       14018
  grid # 8         750         750         750         750         750         750         750
  grid # 9         406         406         406         406         406         406         406
   
  number of gridpoints: 
     atom          C22         C23         C24         C25         C26         C27         C28
  grid # 1          97          95          96          90          95          90          81
  grid # 2         358         327         355         313         356         304         244
  grid # 3          15          25          13          11           9           6           6
  grid # 4        8582        8582        8582        8582        8582        8582        8582
  grid # 5        1192        1192        1192        1192        1192        1192        1192
  grid # 6        6164        6164        6164        6164        6164        6164        6164
  grid # 7       14018       14018       14018       14018       14018       14018       14018
  grid # 8         750         750         750         750         750         750         750
  grid # 9         406         406         406         406         406         406         406
   
  number of gridpoints: 
     atom          C29         C30         C31         C32         C33         C34         C35
  grid # 1          90          79          90          75          81          81          81
  grid # 2         304         245         305         237         240         241         241
  grid # 3           6           6           6           6           6           6           6
  grid # 4        8582        8582        8582        8582        8582        8582        8582
  grid # 5        1192        1192        1192        1192        1192        1192        1192
  grid # 6        6164        6164        6164        6164        6164        6164        6164
  grid # 7       14018       14018       14018       14018       14018       14018       14018
  grid # 8         750         750         750         750         750         750         750
  grid # 9         406         406         406         406         406         406         406
   
  number of gridpoints: 
     atom          H36         H37         H38         H39         H40         H41         H42
  grid # 1         100         106         104         110         112         110         112
  grid # 2         422         434         430         449         456         453         457
  grid # 3          75         129         142         258         323         256         330
  grid # 4        8582        8582        8582        8582        8582        8582        8582
  grid # 5        1192        1192        1192        1192        1192        1192        1192
  grid # 6        6164        6164        6164        6164        6164        6164        6164
  grid # 7       15170       15170       15170       15170       15170       15170       15170
  grid # 8         792         792         792         792         792         792         792
  grid # 9         420         420         420         420         420         420         420
   
  number of gridpoints: 
     atom          H43         H44         H45         H46         H47         H48         H49
  grid # 1         108         112         103         104         101         103         104
  grid # 2         443         457         428         432         424         426         442
  grid # 3         190         310          79         136          77         107         138
  grid # 4        8582        8582        8582        8582        8582        8582        8582
  grid # 5        1192        1192        1192        1192        1192        1192        1192
  grid # 6        6164        6164        6164        6164        6164        6164        6164
  grid # 7       15170       15170       15170       15170       15170       15170       15170
  grid # 8         792         792         792         792         792         792         792
  grid # 9         420         420         420         420         420         420         420
   
  number of gridpoints: 
     atom          H50         H51         H52         H53         H54         H55         H56
  grid # 1         112         110         112         110         111         110         100
  grid # 2         457         451         458         451         454         453         429
  grid # 3         325         258         330         251         301         263          79
  grid # 4        8582        8582        8582        8582        8582        8582        8582
  grid # 5        1192        1192        1192        1192        1192        1192        1192
  grid # 6        6164        6164        6164        6164        6164        6164        6164
  grid # 7       15170       15170       15170       15170       15170       15170       15170
  grid # 8         792         792         792         792         792         792         792
  grid # 9         420         420         420         420         420         420         420
   
  number of gridpoints: 
     atom          H57         H58         H59         H60         H61         H62         H63
  grid # 1         102         103         118         118         110          99          87
  grid # 2         434         431         467         467         439         416         402
  grid # 3         133         133         420         421         177          58          33
  grid # 4        8582        8582        8582        8582        8582        8582        8582
  grid # 5        1192        1192        1192        1192        1192        1192        1192
  grid # 6        6164        6164        6164        6164        6164        6164        6164
  grid # 7       15170       15170       15170       15170       15170       15170       15170
  grid # 8         792         792         792         792         792         792         792
  grid # 9         420         420         420         420         420         420         420
   
  number of gridpoints: 
     atom          H64         H65         H66         H67         H68         H69         H70
  grid # 1         104         109         107         110         105         106         109
  grid # 2         422         453         442         453         430         443         455
  grid # 3          82         268         200         318         119         225         298
  grid # 4        8582        8582        8582        8582        8582        8582        8582
  grid # 5        1192        1192        1192        1192        1192        1192        1192
  grid # 6        6164        6164        6164        6164        6164        6164        6164
  grid # 7       15170       15170       15170       15170       15170       15170       15170
  grid # 8         792         792         792         792         792         792         792
  grid # 9         420         420         420         420         420         420         420
   
  number of gridpoints: 
     atom          H71         H72         H73         H74         H75         H76         H77
  grid # 1         104          85          88         107          83         107         110
  grid # 2         434         356         428         447         412         445         456
  grid # 3         113           9         165         263          50         245         319
  grid # 4        8582        8582        8582        8582        8582        8582        8582
  grid # 5        1192        1192        1192        1192        1192        1192        1192
  grid # 6        6164        6164        6164        6164        6164        6164        6164
  grid # 7       15170       15170       15170       15170       15170       15170       15170
  grid # 8         792         792         792         792         792         792         792
  grid # 9         420         420         420         420         420         420         420
   
  number of gridpoints: 
     atom          H78         H79         H80         H81         H82         H83         H84
  grid # 1         107         108         109         102         111         105         108
  grid # 2         450         443         455         431         455         439         449
  grid # 3         271         251         307         175         305         176         280
  grid # 4        8582        8582        8582        8582        8582        8582        8582
  grid # 5        1192        1192        1192        1192        1192        1192        1192
  grid # 6        6164        6164        6164        6164        6164        6164        6164
  grid # 7       15170       15170       15170       15170       15170       15170       15170
  grid # 8         792         792         792         792         792         792         792
  grid # 9         420         420         420         420         420         420         420
   
  number of gridpoints: 
     atom          O93        Na94         C95         C96         H97         H98         H99
  grid # 1         111         629          91          81         108         109         105
  grid # 2         457         440         321         236         452         452         441
  grid # 3           9         125           6           6         294         236         160
  grid # 4        8582        8582        8582        8582        8582        8582        8582
  grid # 5        1192        1192        1192        1192        1192        1192        1192
  grid # 6        6164        9488        6164        6164        6164        6164        6164
  grid # 7       23358       21102       14018       14018       15170       15170       15170
  grid # 8         774         642         750         750         792         792         792
  grid # 9         412         338         406         406         420         420         420
   
  number of gridpoints: 
     atom         C100        H101        H102        H103        C104        H105        H106
  grid # 1          81         109         103          96          80         109         109
  grid # 2         239         451         437         401         238         449         449
  grid # 3           6         285         145          65           6         231         289
  grid # 4        8582        8582        8582        8582        8582        8582        8582
  grid # 5        1192        1192        1192        1192        1192        1192        1192
  grid # 6        6164        6164        6164        6164        6164        6164        6164
  grid # 7       14018       15170       15170       15170       14018       15170       15170
  grid # 8         750         792         792         792         750         792         792
  grid # 9         406         420         420         420         406         420         420
   
  number of gridpoints: 
     atom         H107       total
  grid # 1          93       11109
  grid # 2         385       38043
  grid # 3          87       12677
  grid # 4        8582      849618
  grid # 5        1192      118008
  grid # 6        6164      620208
  grid # 7       15170     1498796
  grid # 8         792       76970
  grid # 9         420       42680
   
  end of program grid
   
 Time(grid)  user:     720.685  user+sys:     720.685  wallclock:      48.332
  
  start of program rwr
  
  end of program rwr
   
 Time(rwr)  user:      69.510  user+sys:      69.510  wallclock:      19.791
  
  start of program scf
  
 number of electrons..........        332
 number of alpha electrons....        166
 number of beta electrons.....        166
 number of orbitals, total....        713
 number of doubly-occ'd orbs..        166
 number of open shell orbs....          0
 number of occupied orbitals..        166
 number of virtual orbitals...        547
 number of hamiltonians.......          1
 number of shells.............          1
 SCF type: DFT=Becke_3_Parameter/HF+Slater+Becke88+PW91+PW-GGAIIC (B3PW91-D3)
 Energy computed using pseudospectral method.
 Convergence Criterion:
    Energy (econv):       1.00E-05
    RMS density (dconv):  5.00E-06
  
       i  u  d  i  g                   
       t  p  i  c  r                                 RMS    maximum
       e  d  i  u  i                       energy  density   DIIS  
       r  t  s  t  d       total energy    change  change    error 
  
etot    1  N  N  5  M   -2144.55986186239           2.5E-03  1.7E-01
etot    2  Y  Y  6  M   -2148.11932298701  3.6E+00  3.4E-03  1.0E-01
etot    3  Y  Y  6  M   -2148.71307107837  5.9E-01  2.0E-03  5.0E-02
etot    4  N  Y  2  U   -2149.61511485659  9.0E-01  1.3E-03  4.2E-02
etot    5  Y  Y  6  M   -2149.76334692349  1.5E-01  7.9E-04  2.2E-02
etot    6  N  Y  2  U   -2149.76875990202  5.4E-03  4.3E-04  6.8E-03
etot    7  Y  Y  6  M   -2149.77561226437  6.9E-03  1.3E-04  3.5E-03
etot    8  N  Y  2  U   -2149.78303877891  7.4E-03  3.8E-05  8.3E-04
etot    9  N  Y  2  U   -2149.78330741254  2.7E-04  1.3E-05  2.0E-04
etot   10  N  Y  2  U   -2149.78332866502  2.1E-05  6.0E-06  1.6E-04
etot   11  N  Y  2  U   -2149.78333419473  5.5E-06  2.8E-06  3.9E-05
etot   12  N  N  2  U   -2149.78333540361  1.2E-06  0.0E+00  0.0E+00
 
  Computing the dispersion energy correction and its gradients...
  
  
 Energy components, in hartrees:
   (A)  Nuclear repulsion............    6415.66346887867
   (E)  Total one-electron terms.....  -15771.67977724150
   (F)    Electron-nuclear...........  -17830.86753137534
   (H)    Kinetic....................    2059.18775413383
   (I)  Total two-electron terms.....    7206.23297295923
   (J)    Coulomb....................    7487.97273674202
   (K)    Exchange+Correlation.......    -281.73976378279
   (L)  Electronic energy............   -8565.44680428228  (E+I)
   (N0) D3 correction................      -0.18499379733
   (N)  Total energy.................   -2149.96832920094  (A+L+N0)
   (O)  Gas phase energy.............   -2149.96832920094
  
 SCFE: SCF energy: DFT(b3pw91-d3)     -2149.96832920094 hartrees   iterations:  12
  
 
 HOMO energy:    -0.11676
 LUMO energy:    -0.03385
 
  Orbital energies (hartrees): 
   -77.04252   -38.45531   -19.04586   -10.20126   -10.19008   -10.18172
   -10.17887   -10.17291   -10.17084   -10.17013   -10.17008   -10.16946
   -10.16828   -10.16570   -10.16566   -10.16267   -10.16080   -10.16044
   -10.16010   -10.15965   -10.15947   -10.15654   -10.15510   -10.15119
   -10.15099   -10.15063   -10.14911   -10.14867   -10.14745   -10.14534
   -10.14494   -10.14454   -10.14361   -10.13665   -10.13634   -10.13139
   -10.13078   -10.12389   -10.11897   -10.11403    -6.54194    -4.70015
    -4.69979    -4.69627    -3.24865    -2.24466    -1.98019    -1.97172
    -1.96334    -1.18443    -1.17482    -1.17013    -0.93332    -0.86560
    -0.84634    -0.83616    -0.82510    -0.82055    -0.79744    -0.77427
    -0.76339    -0.75908    -0.74329    -0.74152    -0.73930    -0.73261
    -0.73175    -0.72234    -0.70917    -0.69605    -0.67587    -0.66656
    -0.66578    -0.65581    -0.64278    -0.62423    -0.61755    -0.60959
    -0.60188    -0.59702    -0.59677    -0.59067    -0.57980    -0.55891
    -0.54718    -0.54132    -0.53596    -0.53430    -0.51316    -0.50498
    -0.49212    -0.48485    -0.47509    -0.47208    -0.46588    -0.46244
    -0.45670    -0.45052    -0.44176    -0.43937    -0.43856    -0.43716
    -0.43212    -0.43129    -0.42527    -0.42310    -0.42210    -0.41931
    -0.41821    -0.41689    -0.41372    -0.40694    -0.40339    -0.39318
    -0.39131    -0.38731    -0.38193    -0.38080    -0.37719    -0.37648
    -0.37359    -0.36995    -0.36785    -0.36739    -0.36534    -0.36448
    -0.36322    -0.36105    -0.35847    -0.35671    -0.35156    -0.35044
    -0.34360    -0.34262    -0.33962    -0.33886    -0.33306    -0.33098
    -0.32970    -0.32590    -0.32337    -0.31944    -0.31874    -0.31676
    -0.31328    -0.30738    -0.30449    -0.30192    -0.29933    -0.29281
    -0.29013    -0.28326    -0.28111    -0.27554    -0.27385    -0.25154
    -0.24579    -0.24392    -0.23507    -0.22383    -0.19817    -0.18654
    -0.17686    -0.17106    -0.15882    -0.11676    -0.03385    -0.01498
    -0.00741     0.01088     0.01622     0.02100     0.03181     0.03993
     0.04793     0.05907
 
  end of program scf
   
 Time(scf)  user:    1004.631  user+sys:    1004.631  wallclock:      92.095
  
  start of program der1a
  
  end of program der1a
   
 Time(der1a)  user:      23.179  user+sys:      23.179  wallclock:       2.097
  
  start of program rwr
  
  end of program rwr
   
 Time(rwr)  user:      51.270  user+sys:      51.270  wallclock:      24.976
  
  start of program der1b
  
   
  forces (hartrees/bohr) : total     
   
 atom  label           x              y              z
 ---- --------   -------------  -------------  -------------
    1 P1         -3.672145E-03   4.244380E-03   1.543995E-02
    2 Pd2         2.506034E-03  -1.748576E-02  -4.404441E-02
    3 C3         -8.489387E-04  -9.803437E-04  -5.539160E-04
    4 C4          5.383477E-05   9.337380E-05  -2.476009E-04
    5 C5          1.107630E-03  -7.611867E-04  -5.466324E-03
    6 C6          7.005340E-04   2.327276E-04   1.519375E-04
    7 C7         -6.789260E-04  -2.982560E-04  -3.476844E-04
    8 C8          1.378471E-03   1.873708E-04  -3.704464E-04
    9 C9         -6.990289E-04  -1.105818E-03   2.789548E-05
   10 C10         1.948979E-03   8.489110E-04  -1.061124E-03
   11 C11        -9.538099E-04  -7.024119E-04   7.363128E-04
   12 C12         4.045465E-04   1.951817E-04  -7.371288E-05
   13 C13        -3.365169E-04  -3.763427E-04  -1.340685E-05
   14 C14         1.596893E-04   2.271441E-04   2.330179E-04
   15 C15         1.765948E-04  -8.768458E-06   3.535660E-04
   16 C16        -1.162821E-04   2.110317E-03   1.223606E-04
   17 C17         2.292557E-05   2.468217E-04  -1.732674E-04
   18 C18         8.825744E-05  -2.480722E-04  -1.519729E-04
   19 C19         4.096979E-04   3.684289E-04  -7.066127E-04
   20 C20         2.986582E-04  -7.266957E-04   1.469301E-03
   21 C21         1.944391E-03  -2.394184E-04  -8.950648E-04
   22 C22        -1.450092E-04  -1.108319E-03  -4.466085E-04
   23 C23         4.513492E-03  -1.488940E-04  -4.877314E-03
   24 C24         1.320453E-03   1.670054E-02   4.856311E-03
   25 C25        -1.776129E-02   5.699050E-02  -7.396611E-03
   26 C26        -5.805602E-03   6.599925E-03   1.194381E-02
   27 C27        -9.121460E-03   4.604572E-03  -3.909335E-04
   28 C28         5.055488E-03  -5.376707E-04   3.591107E-04
   29 C29         7.159012E-04  -4.159372E-04   7.684811E-04
   30 C30        -2.535364E-04   6.866101E-05  -3.711406E-04
   31 C31        -1.306439E-02   1.798861E-02  -5.594290E-03
   32 C32         2.699313E-02   4.986198E-02  -5.559480E-02
   33 C33        -2.165274E-04  -1.417537E-04  -4.921953E-04
   34 C34         4.819512E-03   7.093835E-04   4.813146E-03
   35 C35        -3.077465E-03  -1.103602E-05  -4.764686E-04
   36 H36         2.058863E-04   1.009023E-03  -1.998548E-04
   37 H37        -1.764488E-04  -3.507417E-04   9.197441E-05
   38 H38        -1.731395E-04   3.508052E-04  -8.657745E-05
   39 H39         1.836966E-04   5.364192E-04   8.053578E-05
   40 H40         2.743909E-04  -6.876438E-05  -3.048094E-04
   41 H41        -2.603474E-05  -2.692701E-04   1.376936E-04
   42 H42        -3.379089E-05  -1.081932E-04  -1.108706E-04
   43 H43         6.363536E-04   1.219680E-03  -1.577643E-04
   44 H44         6.246487E-04  -6.184035E-04   2.389503E-04
   45 H45        -1.709071E-03  -1.414610E-03   7.007611E-04
   46 H46        -2.596252E-04  -7.477033E-05   8.473694E-04
   47 H47        -1.680463E-04   6.330542E-05  -5.956944E-04
   48 H48         4.472337E-04  -7.475662E-05  -1.293328E-04
   49 H49         3.987790E-04   6.087181E-04   1.740693E-04
   50 H50         1.975954E-06  -2.558798E-04   1.059271E-05
   51 H51        -1.720870E-04  -3.977887E-05  -3.823435E-04
   52 H52        -3.057225E-05   1.489052E-06  -1.257750E-04
   53 H53         1.244749E-04   9.643533E-05   1.329955E-04
   54 H54        -7.970418E-05   3.418228E-05   2.874993E-05
   55 H55        -1.326989E-05  -7.184271E-05  -2.580604E-04
   56 H56         3.828801E-04   3.654511E-05   7.385454E-05
   57 H57        -7.827232E-05   1.043409E-04  -3.389646E-06
   58 H58         4.543993E-05  -3.224648E-04   3.446295E-04
   59 H59        -7.054650E-05   1.331114E-04   2.825006E-04
   60 H60         9.299525E-05  -4.002397E-04   1.081731E-04
   61 H61        -1.134557E-04  -5.168253E-04   2.232236E-04
   62 H62         2.610182E-03   1.108960E-03  -4.106204E-03
   63 H63        -2.157957E-02   2.314403E-02   5.136497E-03
   64 H64         2.759973E-03  -1.774542E-03   6.287969E-04
   65 H65        -7.061366E-04  -5.102292E-05   1.311818E-05
   66 H66         5.968928E-04  -2.222466E-03   4.462477E-04
   67 H67         4.377847E-04   1.391359E-03  -2.931297E-04
   68 H68        -1.832821E-04   1.226392E-04  -5.896054E-04
   69 H69         2.243284E-04  -1.051141E-04  -4.395061E-05
   70 H70        -4.175078E-04  -8.074773E-05   3.431948E-06
   71 H71         1.854083E-05   2.308511E-04   4.339447E-04
   72 H72        -1.685457E-02   3.622794E-02  -1.066963E-02
   73 H73         1.648679E-02   4.798132E-02  -1.793336E-02
   74 H74        -1.238394E-03   6.513311E-04   9.177973E-04
   75 H75         1.302476E-02   2.180673E-02  -5.780628E-02
   76 H76         3.076661E-04  -1.021264E-04  -1.539620E-04
   77 H77        -1.191654E-04   2.304776E-04   1.102238E-04
   78 H78         2.683520E-05  -4.353100E-05   1.290007E-04
   79 H79        -9.175154E-04   1.464161E-04   1.276325E-03
   80 H80         3.891430E-04  -4.258830E-04  -6.007807E-04
   81 H81        -9.456796E-04  -1.096483E-03   4.049560E-03
   82 H82        -1.970156E-04  -1.537053E-04  -6.433918E-04
   83 H83         6.197366E-04  -8.218625E-04   2.119766E-03
   84 H84         1.378245E-03  -5.017135E-04   5.433863E-04
   85 O93         2.013295E-02  -6.673644E-02   2.953822E-02
   86 Na94       -4.102088E-02  -1.356960E-01   1.185415E-01
   87 C95         3.310140E-03  -1.694717E-02   3.968586E-03
   88 C96        -6.321158E-05   8.900760E-04   1.236652E-03
   89 H97         2.628883E-04   1.034902E-03  -6.221699E-04
   90 H98         1.589780E-04   2.523807E-04   7.011957E-04
   91 H99         8.300153E-06  -4.450906E-05  -1.665044E-03
   92 C100       -4.287581E-03  -2.325704E-03  -2.254804E-03
   93 H101        1.400714E-03   1.066652E-03  -8.737130E-04
   94 H102        3.419556E-04  -4.991585E-04  -1.403243E-04
   95 H103       -2.368031E-03  -9.370262E-03  -5.638855E-03
   96 C104        1.004728E-02  -1.422456E-02   7.357215E-03
   97 H105        9.741201E-04  -6.982586E-05   1.259512E-04
   98 H106        5.217798E-04   5.561123E-04  -1.192761E-03
   99 H107        1.781261E-02  -2.278561E-02   1.443642E-02
 -------------   -------------  -------------  -------------
     total        1.136036E-03  -2.646551E-03  -8.632609E-04
   
  end of program der1b
   
[...]
    C21      Z     0.00005  -0.00035   0.00006
    C22      X     0.00000  -0.00089  -0.00002
    C22      Y     0.00000  -0.00054  -0.00001
    C22      Z    -0.00006  -0.00249  -0.00005
    C23      X     0.00142  -0.06397  -0.00028
    C23      Y     0.00036  -0.01654  -0.00007
    C23      Z    -0.00105   0.04876   0.00023
    C24      X    -0.00006   0.00183  -0.00000
    C24      Y    -0.00001   0.00078   0.00001
    C24      Z    -0.00004   0.00173   0.00001
    C25      X     0.00007   0.00087   0.00009
    C25      Y     0.00002   0.00026   0.00004
    C25      Z     0.00005  -0.00044   0.00004
    C26      X     0.00000   0.00012   0.00002
    C26      Y    -0.00002   0.00002  -0.00000
    C26      Z    -0.00010   0.00003  -0.00004
    C27      X    -0.00003  -0.00000   0.00000
    C27      Y     0.00002   0.00000   0.00000
    C27      Z    -0.00003  -0.00004  -0.00000
    C28      X    -0.00081   0.00001  -0.00004
    C28      Y     0.00035  -0.00001   0.00005
    C28      Z    -0.00037  -0.00008  -0.00005
    C29      X    -0.00003  -0.00039  -0.00001
    C29      Y     0.00004  -0.00001   0.00001
    C29      Z     0.00007   0.00052   0.00003
    C30      X    -0.00001  -0.00070  -0.00004
    C30      Y    -0.00001   0.00126  -0.00001
    C30      Z    -0.00003   0.00186  -0.00001
    C31      X     0.00003  -0.00069   0.00002
    C31      Y     0.00001  -0.00018   0.00000
    C31      Z     0.00000   0.00015   0.00001
    C32      X     0.00005   0.00001   0.00004
    C32      Y     0.00009  -0.00002   0.00001
    C32      Z     0.00002  -0.00010  -0.00003
    C33      X     0.00026  -0.00021  -0.00001
    C33      Y     0.00027   0.00006   0.00003
    C33      Z    -0.00033   0.00066  -0.00006
    C34      X     0.00005  -0.00238  -0.00000
    C34      Y     0.00002  -0.00053   0.00001
    C34      Z     0.00004  -0.00060   0.00003
    C35      X     0.00005  -0.00206  -0.00000
    C35      Y     0.00004  -0.00117   0.00000
    C35      Z     0.00001  -0.00019   0.00002
    H36      X     0.00004   0.00008   0.00029
    H36      Y     0.00004   0.00016   0.00034
    H36      Z     0.00004   0.00007   0.00017
    H37      X     0.00041   0.00005  -0.00126
    H37      Y     0.00111   0.00019  -0.00338
    H37      Z     0.00061   0.00010  -0.00183
    H38      X    -0.00305  -0.00020   0.01075
    H38      Y     0.00438   0.00029  -0.01476
    H38      Z    -0.00270  -0.00019   0.00876
    H39      X    -0.00010   0.00002   0.00007
    H39      Y    -0.00035   0.00007   0.00030
    H39      Z    -0.00017   0.00002   0.00009
    H40      X    -0.00007  -0.00003  -0.00023
    H40      Y    -0.00001  -0.00000  -0.00002
    H40      Z     0.00045   0.00014   0.00049
    H41      X     0.00002   0.00002  -0.00001
    H41      Y    -0.00000   0.00008  -0.00005
    H41      Z    -0.00001   0.00004   0.00000
    H42      X    -0.00066  -0.00013   0.00050
    H42      Y    -0.00008  -0.00002  -0.00006
    H42      Z     0.00007   0.00002   0.00007
    H43      X    -0.00007   0.00003   0.00003
    H43      Y    -0.00023   0.00007   0.00013
    H43      Z    -0.00010   0.00004   0.00007
    H44      X    -0.00026  -0.00012   0.00001
    H44      Y     0.00027   0.00014  -0.00010
    H44      Z    -0.00016  -0.00008   0.00011
    H45      X     0.00008   0.00001  -0.00015
    H45      Y     0.00004  -0.00001  -0.00016
    H45      Z    -0.00059  -0.00009   0.00184
    H46      X     0.00001   0.00004   0.00015
    H46      Y     0.00005   0.00017   0.00048
    H46      Z     0.00003   0.00007   0.00012
    H47      X     0.00155   0.00007  -0.00377
    H47      Y     0.00344   0.00013  -0.01076
    H47      Z    -0.00707  -0.00030   0.01912
    H48      X    -0.00024  -0.00006  -0.00026
    H48      Y    -0.00000   0.00000  -0.00001
    H48      Z     0.00004   0.00001   0.00003
    H49      X    -0.00001   0.00002   0.00010
    H49      Y     0.00020   0.00003  -0.00033
    H49      Z    -0.00004  -0.00010  -0.00051
    H50      X    -0.00014  -0.00005   0.00016
    H50      Y     0.00053   0.00018  -0.00031
    H50      Z    -0.00004  -0.00001   0.00011
    H51      X     0.00000   0.00001  -0.00007
    H51      Y    -0.00005   0.00000  -0.00002
    H51      Z    -0.00001  -0.00002   0.00048
    H52      X     0.00024   0.00007   0.00000
    H52      Y     0.00033   0.00010  -0.00009
    H52      Z     0.00036   0.00011  -0.00005
    H53      X     0.00003   0.00002  -0.00008
    H53      Y     0.00005   0.00004  -0.00018
    H53      Z    -0.00015  -0.00010   0.00036
    H54      X     0.00068   0.00020  -0.00003
    H54      Y    -0.00001  -0.00000   0.00005
    H54      Z    -0.00009  -0.00002   0.00001
    H55      X    -0.00002   0.00000  -0.00012
    H55      Y    -0.00001   0.00002  -0.00009
    H55      Z    -0.00014  -0.00005   0.00084
    H56      X     0.00014   0.00003   0.00000
    H56      Y     0.00032   0.00004  -0.00049
    H56      Z    -0.00070  -0.00014   0.00075
    H57      X    -0.00060  -0.00015   0.00148
    H57      Y     0.00048   0.00034  -0.00135
    H57      Z     0.00014  -0.00004  -0.00052
    H58      X     0.00972   0.00041  -0.03971
    H58      Y    -0.17027  -0.00660   0.65781
    H58      Z    -0.15985  -0.00605   0.60570
    H59      X     0.06177   0.00087   0.06294
    H59      Y    -0.04385  -0.00058  -0.05045
    H59      Z     0.28613   0.00413   0.28420
    H60      X     0.18157   0.00391   0.03111
    H60      Y    -0.64516  -0.01383  -0.11229
    H60      Z     0.19736   0.00430   0.03228
    H61      X     0.03152   0.00060   0.00389
    H61      Y    -0.38036  -0.00800  -0.04796
    H61      Z    -0.35742  -0.00761  -0.04553
    H62      X    -0.01618   0.74373   0.00341
    H62      Y    -0.00430   0.19635   0.00089
    H62      Z     0.01212  -0.56270  -0.00265
    H63      X    -0.00108  -0.00492  -0.00109
    H63      Y    -0.00045  -0.00197  -0.00043
    H63      Z    -0.00063  -0.00128  -0.00056
    H64      X     0.00026   0.00017   0.00015
    H64      Y     0.00018   0.00013   0.00003
    H64      Z     0.00050   0.00071   0.00005
    H65      X     0.00067   0.00015   0.00006
    H65      Y     0.00071   0.00021   0.00003
    H65      Z     0.00260   0.00052   0.00016
    H66      X     0.00816   0.00016   0.00077
    H66      Y    -0.00535  -0.00008  -0.00047
    H66      Z     0.00300   0.00007   0.00026
    H67      X     0.00120  -0.00036  -0.00035
    H67      Y     0.00029  -0.00007  -0.00014
    H67      Z    -0.00102   0.00030   0.00025
    H68      X     0.00007   0.00218  -0.00004
    H68      Y    -0.00046  -0.00042  -0.00025
    H68      Z    -0.00063  -0.00071  -0.00027
    H69      X    -0.00003   0.00963   0.00013
    H69      Y     0.00015  -0.01354  -0.00012
    H69      Z     0.00015  -0.02513  -0.00030
    H70      X     0.00020  -0.00632   0.00040
    H70      Y     0.00013  -0.00269   0.00025
    H70      Z     0.00016  -0.00496   0.00025
    H71      X     0.00017   0.00202   0.00006
    H71      Y    -0.00032  -0.00120  -0.00011
    H71      Z     0.00014   0.00225   0.00006
    H72      X    -0.00016   0.00227  -0.00018
    H72      Y    -0.00005   0.00038  -0.00007
    H72      Z     0.00000  -0.00174  -0.00006
    H73      X    -0.00019   0.00029  -0.00003
    H73      Y    -0.00014   0.00021   0.00002
    H73      Z    -0.00053   0.00061  -0.00005
    H74      X    -0.00018  -0.00045  -0.00058
    H74      Y     0.00001  -0.00010  -0.00013
    H74      Z     0.00018   0.00046   0.00047
    H75      X    -0.00016   0.00003   0.00003
    H75      Y    -0.00122   0.00016  -0.00008
    H75      Z     0.00007  -0.00002  -0.00003
    H76      X    -0.00014   0.00168   0.00001
    H76      Y     0.00051  -0.00339  -0.00000
    H76      Z     0.00087  -0.00482   0.00000
    H77      X    -0.00113   0.00060   0.00039
    H77      Y    -0.00062  -0.00027   0.00009
    H77      Z    -0.00035   0.00021   0.00017
    H78      X    -0.00166   0.00150  -0.00031
    H78      Y    -0.00304   0.00261  -0.00046
    H78      Z     0.00336  -0.00272   0.00053
    H79      X    -0.00063   0.02546  -0.00001
    H79      Y    -0.00027   0.01117   0.00000
    H79      Z    -0.00012   0.00551   0.00003
    H80      X    -0.00001   0.00012  -0.00001
    H80      Y    -0.00008   0.00144  -0.00007
    H80      Z    -0.00036   0.00348  -0.00041
    H81      X     0.00002   0.00517   0.00007
    H81      Y    -0.00001  -0.00548  -0.00006
    H81      Z     0.00002  -0.00151   0.00001
    H82      X    -0.00056   0.02443   0.00005
    H82      Y    -0.00015   0.00727   0.00002
    H82      Z    -0.00008   0.00342   0.00003
    H83      X    -0.00006   0.00109   0.00000
    H83      Y    -0.00030   0.00694   0.00004
    H83      Z     0.00020  -0.00461   0.00000
    H84      X    -0.00002   0.00090  -0.00002
    H84      Y    -0.00006   0.00029  -0.00010
    H84      Z    -0.00025   0.00358  -0.00036
    O93      X     0.00001   0.00002   0.00002
    O93      Y     0.00001  -0.00003   0.00001
    O93      Z    -0.00001  -0.00004  -0.00002
    Na94     X     0.00000  -0.00002   0.00000
    Na94     Y     0.00000  -0.00003  -0.00000
    Na94     Z     0.00000   0.00002   0.00001
    C95      X    -0.00001   0.00001  -0.00001
    C95      Y    -0.00001   0.00002  -0.00004
    C95      Z     0.00001  -0.00000   0.00001
    C96      X    -0.00000  -0.00000  -0.00001
    C96      Y    -0.00002   0.00000  -0.00003
    C96      Z     0.00003   0.00003   0.00005
    H97      X     0.00007  -0.00001   0.00015
    H97      Y     0.00024  -0.00014   0.00052
    H97      Z    -0.00007   0.00003  -0.00017
    H98      X    -0.00005  -0.00002  -0.00003
    H98      Y    -0.00003   0.00000  -0.00003
    H98      Z    -0.00002   0.00000  -0.00001
    H99      X     0.00004   0.00007   0.00007
    H99      Y    -0.00002  -0.00002  -0.00005
    H99      Z    -0.00025  -0.00038  -0.00041
    C100     X    -0.00002  -0.00005  -0.00001
    C100     Y    -0.00000   0.00005  -0.00003
    C100     Z     0.00003   0.00006   0.00004
    H101     X     0.00008  -0.00005   0.00020
    H101     Y     0.00021  -0.00013   0.00054
    H101     Z    -0.00006   0.00002  -0.00017
    H102     X     0.00004   0.00010   0.00000
    H102     Y    -0.00001  -0.00003  -0.00005
    H102     Z    -0.00030  -0.00068  -0.00030
    H103     X     0.00015   0.00058   0.00000
    H103     Y    -0.00015  -0.00048  -0.00003
    H103     Z    -0.00004  -0.00012   0.00000
    C104     X    -0.00001  -0.00008  -0.00001
    C104     Y    -0.00001   0.00014  -0.00003
    C104     Z     0.00001   0.00001   0.00001
    H105     X    -0.00003  -0.00005   0.00003
    H105     Y    -0.00001   0.00004  -0.00001
    H105     Z    -0.00001  -0.00001   0.00003
    H106     X     0.00006  -0.00020   0.00015
    H106     Y     0.00018  -0.00066   0.00041
    H106     Z    -0.00008   0.00020  -0.00018
    H107     X     0.00004   0.00119  -0.00006
    H107     Y    -0.00005  -0.00104   0.00004
    H107     Z    -0.00001  -0.00036   0.00003
  
  Number of imaginary frequencies:   0
   
  Writing vibrational animation data to L1_NaOtBu_PL146.vib
  Writing IR vibrational spectrum data to L1_NaOtBu_PL146_vib.spm
  rotational symmetry number:  1

  rotational temperatures (K):      0.004262      0.003414      0.002872
   
  The Quasi-Harmonic approximation will be applied to compute
  vibrational constributions to thermodynamic properties.
  Frequencies will be adjusted to a minimum value of  100.00 cm^-1.

  vibrational temperatures:
       mode:      1        2        3        4        5        6
  temp. (K):   143.88   143.88   143.88   143.88   143.88   143.88
   
       mode:      7        8        9       10       11       12
  temp. (K):   143.88   143.88   143.88   143.88   143.88   143.88
   
       mode:     13       14       15       16       17       18
  temp. (K):   143.88   143.88   143.88   143.88   143.88   143.88
   
       mode:     19       20       21       22       23       24
  temp. (K):   143.88   157.08   182.93   190.85   194.96   212.05
   
       mode:     25       26       27       28       29       30
  temp. (K):   213.41   220.05   232.60   254.39   269.87   276.33
   
       mode:     31       32       33       34       35       36
  temp. (K):   284.32   308.90   322.97   340.65   347.39   357.99
   
       mode:     37       38       39       40       41       42
  temp. (K):   368.19   371.68   372.87   380.60   384.87   389.17
   
       mode:     43       44       45       46       47       48
  temp. (K):   399.52   402.95   419.95   426.24   429.95   436.26
   
       mode:     49       50       51       52       53       54
  temp. (K):   436.63   440.44   460.37   483.53   487.86   493.79
   
       mode:     55       56       57       58       59       60
  temp. (K):   513.41   525.51   546.16   549.87   559.23   573.91
   
       mode:     61       62       63       64       65       66
  temp. (K):   591.21   632.12   641.69   647.16   651.98   671.75
   
       mode:     67       68       69       70       71       72
  temp. (K):   688.69   697.15   697.71   706.85   719.16   731.82
   
       mode:     73       74       75       76       77       78
  temp. (K):   764.06   772.12   774.41   783.96   808.90   849.88
   
       mode:     79       80       81       82       83       84
  temp. (K):   876.68   920.65   942.25   965.83   975.04  1045.39
   
       mode:     85       86       87       88       89       90
  temp. (K):  1079.34  1095.69  1114.02  1118.82  1139.17  1153.53
   
       mode:     91       92       93       94       95       96
  temp. (K):  1165.14  1167.34  1203.37  1209.70  1214.24  1244.05
   
       mode:     97       98       99      100      101      102
  temp. (K):  1255.99  1261.93  1303.05  1303.90  1307.35  1308.61
   
       mode:    103      104      105      106      107      108
  temp. (K):  1309.48  1310.60  1317.56  1319.53  1321.12  1326.58
   
       mode:    109      110      111      112      113      114
  temp. (K):  1356.42  1362.71  1363.18  1368.81  1373.42  1378.45
   
       mode:    115      116      117      118      119      120
  temp. (K):  1387.81  1403.73  1412.12  1415.62  1422.12  1422.74
   
       mode:    121      122      123      124      125      126
  temp. (K):  1460.94  1472.78  1473.48  1475.40  1480.36  1514.51
   
       mode:    127      128      129      130      131      132
  temp. (K):  1517.59  1522.87  1529.06  1539.77  1552.85  1558.42
   
       mode:    133      134      135      136      137      138
  temp. (K):  1571.69  1590.83  1594.17  1596.00  1604.58  1609.37
   
       mode:    139      140      141      142      143      144
  temp. (K):  1613.79  1636.89  1639.86  1641.64  1643.18  1650.10
   
       mode:    145      146      147      148      149      150
  temp. (K):  1652.74  1671.44  1681.59  1717.29  1740.84  1742.99
   
       mode:    151      152      153      154      155      156
  temp. (K):  1747.92  1753.30  1759.94  1769.57  1790.82  1806.65
   
       mode:    157      158      159      160      161      162
  temp. (K):  1810.18  1817.58  1825.21  1855.83  1866.66  1869.91
   
       mode:    163      164      165      166      167      168
  temp. (K):  1871.57  1888.36  1891.41  1892.57  1894.97  1897.38
   
       mode:    169      170      171      172      173      174
  temp. (K):  1902.53  1920.92  1926.57  1934.92  1937.78  1951.91
   
       mode:    175      176      177      178      179      180
  temp. (K):  1960.84  1965.37  1976.08  1978.19  1996.35  1998.55
   
       mode:    181      182      183      184      185      186
  temp. (K):  1999.93  2007.12  2008.13  2012.12  2017.43  2018.20
   
       mode:    187      188      189      190      191      192
  temp. (K):  2019.16  2019.68  2021.00  2028.58  2047.84  2048.33
   
       mode:    193      194      195      196      197      198
  temp. (K):  2053.80  2055.02  2076.94  2080.55  2081.96  2118.40
   
       mode:    199      200      201      202      203      204
  temp. (K):  2125.47  2148.97  2160.53  2161.18  2161.40  2163.91
   
       mode:    205      206      207      208      209      210
  temp. (K):  2164.46  2169.78  2170.20  2171.85  2174.96  2176.50
   
       mode:    211      212      213      214      215      216
  temp. (K):  2178.97  2181.57  2182.80  2184.53  2185.16  2185.58
   
       mode:    217      218      219      220      221      222
  temp. (K):  2186.85  2187.70  2190.02  2198.42  2201.66  2202.86
   
       mode:    223      224      225      226      227      228
  temp. (K):  2204.19  2206.05  2207.69  2211.80  2212.73  2214.30
   
       mode:    229      230      231      232      233      234
  temp. (K):  2220.28  2327.69  2342.13  2380.62  2387.80  4346.08
   
       mode:    235      236      237      238      239      240
  temp. (K):  4348.18  4350.56  4351.31  4355.61  4355.90  4358.72
   
       mode:    241      242      243      244      245      246
  temp. (K):  4361.76  4362.94  4364.17  4366.14  4367.38  4369.86
   
       mode:    247      248      249      250      251      252
  temp. (K):  4370.58  4372.92  4374.07  4376.59  4378.94  4380.83
   
       mode:    253      254      255      256      257      258
  temp. (K):  4382.19  4382.96  4391.45  4427.66  4428.20  4428.68
   
       mode:    259      260      261      262      263      264
  temp. (K):  4429.23  4430.58  4435.62  4436.02  4439.27  4447.44
   
       mode:    265      266      267      268      269      270
  temp. (K):  4452.01  4457.55  4460.12  4464.59  4465.84  4466.60
   
       mode:    271      272      273      274      275      276
  temp. (K):  4468.53  4475.80  4477.89  4481.32  4483.69  4487.02
   
       mode:    277      278      279      280      281      282
  temp. (K):  4489.21  4491.72  4494.62  4502.30  4506.66  4510.34
   
       mode:    283      284      285      286      287      288
  temp. (K):  4512.28  4512.98  4517.00  4554.13  4576.08  4592.51
   
       mode:    289      290      291
  temp. (K):  4612.30  4616.45  4635.12
   
   
  Thermodynamic properties calculated assuming an ideal gas

  In the table below, the units for temperature
  are kelvins, the units for U, H, and G are
  kcal/mol and the units for Cv and S are cal/(mol K)

  The zero point energy (ZPE):    554.893 kcal/mol
  is not included in U, H, or G in the table below
  
 
  =============================================================================
  Thermodynamic properties for P = 1.00E+00 atm, calculated at   1 temperatures


  T =   298.15 K, P = 1.00E+00 atm
   
                  U         Cv          S          H          G        ln(Q)
              =========  =========  =========  =========  =========  =========
  trans.          0.889      2.981     45.425      1.481    -12.062   20.35854
  rot.            0.889      2.981     37.984      0.889    -10.436   17.61419
  vib.           26.481    171.803    162.309     26.481    -21.912   36.98278
  elec.           0.000      0.000      0.000      0.000      0.000    0.00000
  ----------------------------------------------------------------------------
  total          28.258    177.765    245.718     28.851    -44.410   74.95551
   
   Total internal energy, Utot(SCFE + ZPE + U):   -2149.282002 hartrees
   Total enthalpy, Htot (Utot + nRT), with n=1:   -2149.281058 hartrees
    Total Gibbs free energy, Gtot (Htot - T*S):   -2149.397806 hartrees
   
  end of program freq
   
 Time(freq)  user:       1.078  user+sys:       1.078  wallclock:       0.971
  
  start of program post
  
  Writing input files for PBF
  end of program post
   
 Time(post)  user:       0.378  user+sys:       0.378  wallclock:       0.148

 Total cpu seconds     user:  212356.124   user+sys:  212356.124
  
 Total elapsed time:    24448 seconds

Job L1_NaOtBu_PL146 completed on bp1-compute138 at Fri Nov 28 18:52:33 2025
