Job L1_PL146 started on bp1-compute089 at Fri Apr 18 04:50:34 2025
jobid: bp1-compute089-0-6801cbff

  +--------------------------------------------------------------------+
  |  Jaguar version 12.5, release 138                                  |
  |                                                                    |
  |  Copyright Schrodinger, Inc.                                       |
  |  All Rights Reserved.                                              |
  |                                                                    |
  |  The following have contributed to Jaguar (listed alphabetically): |
  |  Ty Balduf, Mike Beachy, Chandler Bennett, Art Bochevarov,         |
  |  Dale Braden, Yixiang Cao, Alan Chien, Chris Cortis,               |
  |  Rich Friesner, Jim Furness, Bill Goddard, Hod Greeley,            |
  |  Tom Hughes, Leif Jacobson, Jean-Marc Langlois, Daniel Levine,     |
  |  Rob Murphy, Dean Philipp, Tom Pollard, Murco Ringnalda,           |
  |  Daniel Mainz, Pablo Videla, Mark Watson, Haoyu Yu.                |
  |                                                                    |
  |  Use of this program should be acknowledged in publications as:    |
  |                                                                    |
  |  Jaguar, version 12.5, Schrodinger, Inc., New York, NY, 2024.      |
  |                                                                    |
  |  A. D. Bochevarov, E. Harder, T. F. Hughes, J. R. Greenwood,       |
  |  D. A. Braden, D. M. Philipp, D. Rinaldo, M. D. Halls,             |
  |  J. Zhang, R. A. Friesner, "Jaguar: A High-Performance Quantum     |
  |  Chemistry Software Program with Strengths in Life and Materials   |
  |  Sciences", Int. J. Quantum Chem., 2013, 113(18), 2110-2142.       |
  +--------------------------------------------------------------------+
  
  start of program pre
  
  Job name: L1_PL146
  Executables used: /software/local/apps/schrodinger2024-3/jaguar-v12.5/bin/Linux-x86_64
  Temporary files : /tmp/ar21627/L1_PL146#bp1-compute089-0-6801cbff
  Basis file : using default basis file from /software/local/apps/schrodinger2024-3
  Maestro file (input):  L1_PL146.mae
  Maestro file (output): L1_PL146.01.mae
  
 Contents of input file: &gen and (if present) &atomic sections only
 ----------------Contents start----------------
&gen
dftname=b3pw91-d3
basis=6-31G*
numd=5
ip11=2
iaccg=3
isolv=2
igeopt=1
solvent=benzene
ifreq=1
&
&atomic
atom basis
Pd2 lacv3p*
&
 -----------------Contents end-----------------
 
  PS calculation requested. Using PS version of 6-31g*
  basis set:               non_standard                    
  net molecular charge:    0
  multiplicity:            1
  
  Using up to   4 threads per process
  
  This run will use ECP on 1 atom
  number of basis functions....          609
  
 Input geometry:
                                   angstroms
  atom               x                 y                 z
  P1            0.0000000000      0.0000000000      0.0000000000 
  Pd2           0.0000000000      0.0000000000      2.2122636776 
  C3            1.7314260000      0.0000000000     -0.7803510000 
  C4           -0.8389310000     -1.6125100000     -0.4671430000 
  C5           -0.9848230000      1.4026410000     -0.7940230000 
  C6            1.8547750000      0.7516540000     -2.1227420000 
  C7            3.3180330000      0.9088290000     -2.5641460000 
  C8            3.9857420000     -0.4642000000     -2.7094370000 
  C9            3.8697970000     -1.2539880000     -1.4001690000 
  C10           2.4046590000     -1.3782340000     -0.9523140000 
  C11          -0.5056190000     -2.7173740000      0.5550030000 
  C12          -1.0578700000     -4.0832580000      0.1240010000 
  C13          -2.5787210000     -4.0214240000     -0.0639300000 
  C14          -2.9499870000     -2.9127210000     -1.0567430000 
  C15          -2.3764560000     -1.5612970000     -0.6035480000 
  C16          -1.2326260000      1.0727740000     -2.1445640000 
  C17          -2.0074230000      1.8467040000     -3.0133740000 
  C18          -2.5762550000      3.0149250000     -2.5108640000 
  C19          -2.3457000000      3.3486970000     -1.1711310000 
  C20          -1.5716150000      2.5946540000     -0.2583740000 
  C21          -1.4845710000      3.1859880000      1.0425790000 
  C22          -2.6627950000      3.7192940000      1.6634130000 
  C23          -2.5820030000      4.2912230000      2.9466350000 
  C24          -1.3970670000      4.3770750000      3.6798710000 
  C25          -0.2533110000      3.8746240000      3.0556160000 
  C26          -0.2640180000      3.2967370000      1.7715360000 
  C27           1.0915300000      2.9645870000      1.1740160000 
  C28           1.4067790000      3.9332530000      0.0191460000 
  C29          -4.0953790000      3.6342790000      1.1260110000 
  C30          -5.0412910000      2.8632550000      2.0771900000 
  C31          -1.3503270000      4.9862100000      5.0661820000 
  C32           2.3090590000      2.9352650000      2.1233600000 
  C33          -4.7015910000      5.0251990000      0.8488140000 
  C34          -2.1695860000      4.1389580000      6.0528510000 
  C35          -1.8228880000      6.4491930000      5.0548960000 
  H36           2.3867450000      0.5770350000     -0.0919280000 
  H37           1.3141700000      0.1937620000     -2.9206610000 
  H38           1.4022340000      1.7673630000     -2.0399630000 
  H39           3.8741960000      1.5227350000     -1.8158020000 
  H40           3.3667480000      1.4574500000     -3.5356390000 
  H41           3.4933720000     -1.0343290000     -3.5330210000 
  H42           5.0594910000     -0.3409120000     -2.9901210000 
  H43           4.4602150000     -0.7409420000     -0.6036040000 
  H44           4.3155280000     -2.2694410000     -1.5316230000 
  H45           2.3928530000     -1.9481030000      0.0023690000 
  H46           1.8435120000     -1.9816870000     -1.7025810000 
  H47          -0.4389790000     -1.9178500000     -1.4612040000 
  H48           0.5926800000     -2.8081600000      0.7031910000 
  H49          -0.9307450000     -2.4449230000      1.5495160000 
  H50          -0.8025950000     -4.8567340000      0.8878940000 
  H51          -0.5737560000     -4.3948660000     -0.8321230000 
  H52          -2.9612600000     -5.0058110000     -0.4263340000 
  H53          -3.0671780000     -3.8197310000      0.9193380000 
  H54          -4.0610290000     -2.8453320000     -1.1480450000 
  H55          -2.5540330000     -3.1666150000     -2.0689060000 
  H56          -2.8409550000     -1.2901760000      0.3698920000 
  H57          -2.6950660000     -0.7836810000     -1.3332440000 
  H58          -0.8269830000      0.1490770000     -2.5831970000 
  H59          -2.1683160000      1.5442320000     -4.0620710000 
  H60          -3.1860710000      3.6639080000     -3.1622960000 
  H61          -2.7801850000      4.3120260000     -0.8732000000 
  H62          -3.4874380000      4.6840980000      3.4296210000 
  H63           0.6805840000      3.9784600000      3.6228140000 
  H64           1.0266120000      1.9505350000      0.7669170000 
  H65           1.4696610000      4.9814100000      0.3911670000 
  H66           0.6324150000      3.9097330000     -0.7800130000 
  H67           2.3781330000      3.6836580000     -0.4668080000 
  H68          -4.1528910000      3.0118410000      0.2055240000 
  H69          -5.2093640000      3.3805210000      3.0477490000 
  H70          -6.0481870000      2.7278610000      1.6177120000 
  H71          -4.6503260000      1.8462990000      2.3045150000 
  H72          -0.2935640000      4.9861450000      5.4288540000 
  H73           2.5900930000      3.9534910000      2.4772170000 
  H74           3.2074330000      2.5275330000      1.6042550000 
  H75           2.1268810000      2.2866310000      3.0101390000 
  H76          -4.8671170000      5.6013710000      1.7870070000 
  H77          -5.6894310000      4.9361080000      0.3408470000 
  H78          -4.0502780000      5.6527470000      0.2007590000 
  H79          -3.2507000000      4.1225990000      5.7860570000 
  H80          -2.0872280000      4.5383680000      7.0899930000 
  H81          -1.8069790000      3.0848960000      6.0668100000 
  H82          -2.8940520000      6.5403640000      4.7650410000 
  H83          -1.2220950000      7.0541700000      4.3371010000 
  H84          -1.7122910000      6.9130400000      6.0621790000 
   
  principal moments of inertia:
        amu*angstrom^2:              3899.81149              7115.35396              7497.92753
                g*cm^2:          6.47578853E-37          1.18153218E-36          1.24506000E-36
   
  rotational constants:
               cm^(-1):      0.00432268      0.00236919      0.00224831
                   GHz:      0.12959062      0.07102654      0.06740249
   
  Molecular weight:     582.26 amu
   
  Stoichiometry: PdC33PH49
  Molecular Point Group: C1      
  Point Group used: C1
  
 
Number of optimization coordinates:   278
Number of independent coordinates:    278
Number of non-redundant coordinates:  246
Number of frozen coordinates:           0
Number of harmonic constraints:         0
 
Number of geometric degrees of freedom:   246
Maximum geometric degrees of freedom:     246
 " " " " " excluding dummy atoms:         246
 
 
  bond lengths (angstroms):
 
 P1      -Pd2     :   2.212264      P1      -C3      :   1.899153
 P1      -C4      :   1.876757      P1      -C5      :   1.888849
 C3      -C6      :   1.543442      C3      -C10     :   1.543484
 C3      -H36     :   1.111908      C4      -C11     :   1.541624
 C4      -C15     :   1.544413      C4      -H47     :   1.114159
 C5      -C16     :   1.412154      C5      -C20     :   1.432529
 C6      -C7      :   1.536446      C6      -H37     :   1.113630
 C6      -H38     :   1.115038      C7      -C8      :   1.533673
 C7      -H39     :   1.116341      C7      -H40     :   1.116762
 C8      -C9      :   1.533425      C8      -H41     :   1.116139
 C8      -H42     :   1.116656      C9      -C10     :   1.537088
 C9      -H43     :   1.116389      C9      -H44     :   1.116737
 C10     -H45     :   1.111895      C10     -H46     :   1.114425
 C11     -C12     :   1.535051      C11     -H48     :   1.111963
 C11     -H49     :   1.115355      C12     -C13     :   1.533665
 C12     -H50     :   1.116675      C12     -H51     :   1.116082
 C13     -C14     :   1.533864      C13     -H52     :   1.116553
 C13     -H53     :   1.116282      C14     -C15     :   1.536447
 C14     -H54     :   1.116822      C14     -H55     :   1.116116
 C15     -H56     :   1.112138      C15     -H57     :   1.112949
 C16     -C17     :   1.397894      C16     -H58     :   1.100073
 C17     -C18     :   1.393135      C17     -H59     :   1.103241
 C18     -C19     :   1.399801      C18     -H60     :   1.103367
 C19     -C20     :   1.414537      C19     -H61     :   1.097972
 C20     -C21     :   1.431688      C21     -C22     :   1.434595
 C21     -C26     :   1.425971      C22     -C23     :   1.407227
 C22     -C29     :   1.532425      C23     -C24     :   1.396094
 C23     -H62     :   1.098835      C24     -C25     :   1.396542
 C24     -C31     :   1.514955      C25     -C26     :   1.408165
 C25     -H63     :   1.097568      C26     -C27     :   1.518178
 C27     -C28     :   1.539942      C27     -C32     :   1.544180
 C27     -H64     :   1.094644      C28     -H65     :   1.113996
 C28     -H66     :   1.113035      C28     -H67     :   1.114440
 C29     -C30     :   1.547246      C29     -C33     :   1.542397
 C29     -H68     :   1.112669      C30     -H69     :   1.112563
 C30     -H70     :   1.115030      C30     -H71     :   1.112982
 C31     -C34     :   1.537055      C31     -C35     :   1.537453
 C31     -H72     :   1.117264      C32     -H73     :   1.113992
 C32     -H74     :   1.114805      C32     -H75     :   1.113684
 C33     -H76     :   1.113364      C33     -H77     :   1.114359
 C33     -H78     :   1.112655      C34     -H79     :   1.113667
 C34     -H80     :   1.114439      C34     -H81     :   1.114776
 C35     -H82     :   1.113427      C35     -H83     :   1.114531
 C35     -H84     :   1.114453
 
  bond angles:
 
 C3      -P1      -Pd2     : 114.261015  C4      -P1      -Pd2     : 104.413004
 C4      -P1      -C3      : 107.773617  C5      -P1      -Pd2     : 114.858201
 C5      -P1      -C3      : 107.614511  C5      -P1      -C4      : 107.477575
 C6      -C3      -P1      : 115.482193  C10     -C3      -P1      : 116.323207
 C10     -C3      -C6      : 107.643956  H36     -C3      -P1      : 106.434200
 H36     -C3      -C6      : 103.807101  H36     -C3      -C10     : 105.980486
 C11     -C4      -P1      : 110.738068  C15     -C4      -P1      : 116.008863
 C15     -C4      -C11     : 107.311688  H47     -C4      -P1      : 107.282423
 H47     -C4      -C11     : 108.514083  H47     -C4      -C15     : 106.717762
 C16     -C5      -P1      : 108.666711  C20     -C5      -P1      : 132.399612
 C20     -C5      -C16     : 118.691726  C7      -C6      -C3      : 112.073554
 H37     -C6      -C3      : 109.901496  H37     -C6      -C7      : 107.922155
 H38     -C6      -C3      : 110.280278  H38     -C6      -C7      : 108.340464
 H38     -C6      -H37     : 108.210788  C8      -C7      -C6      : 110.503273
 H39     -C7      -C6      : 109.763661  H39     -C7      -C8      : 109.811721
 H40     -C7      -C6      : 109.981518  H40     -C7      -C8      : 109.779500
 H40     -C7      -H39     : 106.933685  C9      -C8      -C7      : 110.321973
 H41     -C8      -C7      : 109.581516  H41     -C8      -C9      : 109.486077
 H42     -C8      -C7      : 110.096731  H42     -C8      -C9      : 110.132310
 H42     -C8      -H41     : 107.163976  C10     -C9      -C8      : 111.252501
 H43     -C9      -C8      : 109.422610  H43     -C9      -C10     : 109.472841
 H44     -C9      -C8      : 109.733808  H44     -C9      -C10     : 109.953059
 H44     -C9      -H43     : 106.904606  C9      -C10     -C3      : 112.088856
 H45     -C10     -C3      : 110.938019  H45     -C10     -C9      : 107.560842
 H46     -C10     -C3      : 109.809666  H46     -C10     -C9      : 109.121575
 H46     -C10     -H45     : 107.167792  C12     -C11     -C4      : 111.947817
 H48     -C11     -C4      : 111.126341  H48     -C11     -C12     : 108.669593
 H49     -C11     -C4      : 109.494682  H49     -C11     -C12     : 109.304054
 H49     -C11     -H48     : 106.116356  C13     -C12     -C11     : 110.810925
 H50     -C12     -C11     : 109.999579  H50     -C12     -C13     : 109.782118
 H51     -C12     -C11     : 109.445619  H51     -C12     -C13     : 109.658877
 H51     -C12     -H50     : 107.066825  C14     -C13     -C12     : 110.394373
 H52     -C13     -C12     : 110.119025  H52     -C13     -C14     : 110.135780
 H53     -C13     -C12     : 109.467225  H53     -C13     -C14     : 109.488770
 H53     -C13     -H52     : 107.174175  C15     -C14     -C13     : 110.762982
 H54     -C14     -C13     : 109.713864  H54     -C14     -C15     : 110.022673
 H55     -C14     -C13     : 109.674910  H55     -C14     -C15     : 109.581676
 H55     -C14     -H54     : 107.008477  C14     -C15     -C4      : 111.623363
 H56     -C15     -C4      : 110.278116  H56     -C15     -C14     : 108.463277
 H57     -C15     -C4      : 111.473754  H57     -C15     -C14     : 108.319006
 H57     -C15     -H56     : 106.497701  C17     -C16     -C5      : 124.217200
 H58     -C16     -C5      : 120.848301  H58     -C16     -C17     : 114.925303
 C18     -C17     -C16     : 117.799910  H59     -C17     -C16     : 121.320683
 H59     -C17     -C18     : 120.879109  C19     -C18     -C17     : 118.549764
 H60     -C18     -C17     : 120.393212  H60     -C18     -C19     : 121.054346
 C20     -C19     -C18     : 125.493203  H61     -C19     -C18     : 113.811468
 H61     -C19     -C20     : 120.607624  C19     -C20     -C5      : 115.242330
 C21     -C20     -C5      : 131.189824  C21     -C20     -C19     : 113.543362
 C22     -C21     -C20     : 119.791946  C26     -C21     -C20     : 123.273644
 C26     -C21     -C22     : 116.928869  C23     -C22     -C21     : 119.904664
 C29     -C22     -C21     : 126.541026  C29     -C22     -C23     : 113.328583
 C24     -C23     -C22     : 123.548685  H62     -C23     -C22     : 119.921626
 H62     -C23     -C24     : 116.521233  C25     -C24     -C23     : 115.990880
 C31     -C24     -C23     : 122.108125  C31     -C24     -C25     : 121.899906
 C26     -C25     -C24     : 123.300690  H63     -C25     -C24     : 115.583359
 H63     -C25     -C26     : 121.100024  C25     -C26     -C21     : 120.300498
 C27     -C26     -C21     : 123.097554  C27     -C26     -C25     : 116.224601
 C28     -C27     -C26     : 109.896754  C32     -C27     -C26     : 117.787228
 C32     -C27     -C28     : 108.155152  H64     -C27     -C26     : 107.223138
 H64     -C27     -C28     : 108.418300  H64     -C27     -C32     : 104.940131
 H65     -C28     -C27     : 110.668567  H66     -C28     -C27     : 112.503659
 H66     -C28     -H65     : 107.393434  H67     -C28     -C27     : 111.380856
 H67     -C28     -H65     : 107.887459  H67     -C28     -H66     : 106.772892
 C30     -C29     -C22     : 112.555587  C33     -C29     -C22     : 112.359782
 C33     -C29     -C30     : 108.637683  H68     -C29     -C22     : 111.683017
 H68     -C29     -C30     : 101.432272  H68     -C29     -C33     : 109.601633
 H69     -C30     -C29     : 113.388366  H70     -C30     -C29     : 111.053937
 H70     -C30     -H69     : 106.231420  H71     -C30     -C29     : 111.477463
 H71     -C30     -H69     : 107.439950  H71     -C30     -H70     : 106.883515
 C34     -C31     -C24     : 110.446558  C35     -C31     -C24     : 111.494094
 C35     -C31     -C34     : 111.432369  H72     -C31     -C24     : 109.038366
 H72     -C31     -C34     : 107.201819  H72     -C31     -C35     : 107.047248
 H73     -C32     -C27     : 112.138112  H74     -C32     -C27     : 110.858412
 H74     -C32     -H73     : 106.195378  H75     -C32     -C27     : 111.815032
 H75     -C32     -H73     : 108.704750  H75     -C32     -H74     : 106.832867
 H76     -C33     -C29     : 111.942282  H77     -C33     -C29     : 110.991852
 H77     -C33     -H76     : 107.079595  H78     -C33     -C29     : 112.533607
 H78     -C33     -H76     : 106.615761  H78     -C33     -H77     : 107.367641
 H79     -C34     -C31     : 111.823074  H80     -C34     -C31     : 111.128127
 H80     -C34     -H79     : 107.454765  H81     -C34     -C31     : 110.846305
 H81     -C34     -H79     : 107.750706  H81     -C34     -H80     : 107.649001
 H82     -C35     -C31     : 112.056905  H83     -C35     -C31     : 110.827592
 H83     -C35     -H82     : 107.847659  H84     -C35     -C31     : 111.033461
 H84     -C35     -H82     : 107.258556  H84     -C35     -H83     : 107.618818
 
  torsional angles:
 
 P1      -C3      -C6      -C7      : 170.312141
 P1      -C3      -C6      -H37     : -69.690300
 P1      -C3      -C6      -H38     :  49.525700
 P1      -C3      -C10     -C9      :-171.775272
 P1      -C3      -C10     -H45     : -51.515570
 P1      -C3      -C10     -H46     :  66.762044
 P1      -C4      -C11     -C12     :-174.123033
 P1      -C4      -C11     -H48     : -52.407923
 P1      -C4      -C11     -H49     :  64.494853
 P1      -C4      -C15     -C14     : 177.116189
 P1      -C4      -C15     -H56     : -62.243884
 P1      -C4      -C15     -H57     :  55.833774
 P1      -C5      -C16     -C17     : 175.890179
 P1      -C5      -C16     -H58     :  -2.949598
 P1      -C5      -C20     -C19     :-174.503172
 P1      -C5      -C20     -C21     :   7.440696
 Pd2     -P1      -C3      -C6      :-147.351771
 Pd2     -P1      -C3      -C10     :  85.030040
 Pd2     -P1      -C3      -H36     : -32.756134
 Pd2     -P1      -C4      -C11     : -33.971857
 Pd2     -P1      -C4      -C15     :  88.628897
 Pd2     -P1      -C4      -H47     :-152.226625
 Pd2     -P1      -C5      -C16     :-162.946211
 Pd2     -P1      -C5      -C20     :  11.158518
 C3      -P1      -C4      -C11     :  87.891372
 C3      -P1      -C4      -C15     :-149.507873
 C3      -P1      -C4      -H47     : -30.363395
 C3      -P1      -C5      -C16     :  68.575132
 C3      -P1      -C5      -C20     :-117.320139
 C3      -C6      -C7      -C8      :  58.739691
 C3      -C6      -C7      -H39     : -62.516410
 C3      -C6      -C7      -H40     :-179.901248
 C3      -C10     -C9      -C8      : -57.176607
 C3      -C10     -C9      -H43     :  63.885387
 C3      -C10     -C9      -H44     :-178.954189
 C4      -P1      -C3      -C6      :  97.105682
 C4      -P1      -C3      -C10     : -30.512507
 C4      -P1      -C3      -H36     :-148.298681
 C4      -P1      -C5      -C16     : -47.257531
 C4      -P1      -C5      -C20     : 126.847198
 C4      -C11     -C12     -C13     : -58.164312
 C4      -C11     -C12     -H50     :-179.740867
 C4      -C11     -C12     -H51     :  62.890635
 C4      -C15     -C14     -C13     :  58.611595
 C4      -C15     -C14     -H54     :-179.913842
 C4      -C15     -C14     -H55     : -62.521935
 C5      -P1      -C3      -C6      : -18.531854
 C5      -P1      -C3      -C10     :-146.150043
 C5      -P1      -C3      -H36     :  96.063783
 C5      -P1      -C4      -C11     :-156.381057
 C5      -P1      -C4      -C15     : -33.780303
 C5      -P1      -C4      -H47     :  85.364175
 C5      -C16     -C17     -C18     :  -0.326790
 C5      -C16     -C17     -H59     : 179.870300
 C5      -C20     -C19     -C18     :   0.486073
 C5      -C20     -C19     -H61     :-175.891602
 C5      -C20     -C21     -C22     :-137.352873
 C5      -C20     -C21     -C26     :  43.530427
 C6      -C3      -C10     -C9      :  56.844316
 C6      -C3      -C10     -H45     : 177.104018
 C6      -C3      -C10     -H46     : -64.618369
 C6      -C7      -C8      -C9      : -55.963191
 C6      -C7      -C8      -H41     :  64.653691
 C6      -C7      -C8      -H42     :-177.721356
 C7      -C6      -C3      -C10     : -57.847589
 C7      -C6      -C3      -H36     :  54.217656
 C7      -C8      -C9      -C10     :  55.413848
 C7      -C8      -C9      -H43     : -65.677574
 C7      -C8      -C9      -H44     : 177.318838
 C8      -C7      -C6      -H37     : -62.405908
 C8      -C7      -C6      -H38     :-179.357826
 C8      -C9      -C10     -H45     :-179.381508
 C8      -C9      -C10     -H46     :  64.680474
 C9      -C8      -C7      -H39     :  65.264405
 C9      -C8      -C7      -H40     :-177.441842
 C9      -C10     -C3      -H36     : -53.740132
 C10     -C3      -C6      -H37     :  62.149969
 C10     -C3      -C6      -H38     :-178.634030
 C10     -C9      -C8      -H41     : -65.260185
 C10     -C9      -C8      -H42     : 177.150954
 C11     -C4      -C15     -C14     : -58.497245
 C11     -C4      -C15     -H56     :  62.142682
 C11     -C4      -C15     -H57     :-179.779661
 C11     -C12     -C13     -C14     :  55.349695
 C11     -C12     -C13     -H52     : 177.174843
 C11     -C12     -C13     -H53     : -65.242998
 C12     -C11     -C4      -C15     :  58.348698
 C12     -C11     -C4      -H47     : -56.620220
 C12     -C13     -C14     -C15     : -55.661573
 C12     -C13     -C14     -H54     :-177.317776
 C12     -C13     -C14     -H55     :  65.416849
 C13     -C12     -C11     -H48     : 178.720059
 C13     -C12     -C11     -H49     :  63.327616
 C13     -C14     -C15     -H56     : -63.083311
 C13     -C14     -C15     -H57     :-178.291834
 C14     -C13     -C12     -H50     : 177.053943
 C14     -C13     -C12     -H51     : -65.579163
 C14     -C15     -C4      -H47     :  57.664056
 C15     -C4      -C11     -H48     :-179.936192
 C15     -C4      -C11     -H49     : -63.033416
 C15     -C14     -C13     -H52     :-177.476826
 C15     -C14     -C13     -H53     :  64.918228
 C16     -C5      -C20     -C19     :  -0.871968
 C16     -C5      -C20     -C21     :-178.928100
 C16     -C17     -C18     -C19     :  -0.115384
 C16     -C17     -C18     -H60     : 179.295595
 C17     -C16     -C5      -C20     :   0.850394
 C17     -C18     -C19     -C20     :   0.015970
 C17     -C18     -C19     -H61     : 176.608522
 C18     -C17     -C16     -H58     : 178.574828
 C18     -C19     -C20     -C21     : 178.890526
 C19     -C18     -C17     -H59     : 179.688440
 C19     -C20     -C21     -C22     :  44.565019
 C19     -C20     -C21     -C26     :-134.551681
 C20     -C5      -C16     -H58     :-177.989384
 C20     -C19     -C18     -H60     :-179.390956
 C20     -C21     -C22     -C23     : 179.481969
 C20     -C21     -C22     -C29     :   5.321845
 C20     -C21     -C26     -C25     :-179.160890
 C20     -C21     -C26     -C27     :   8.161320
 C21     -C20     -C19     -H61     :   2.512850
 C21     -C22     -C23     -C24     :  -0.039720
 C21     -C22     -C23     -H62     :-178.944142
 C21     -C22     -C29     -C30     : 118.541309
 C21     -C22     -C29     -C33     :-118.431226
 C21     -C22     -C29     -H68     :   5.205769
 C21     -C26     -C25     -C24     :  -0.703109
 C21     -C26     -C25     -H63     :-179.186516
 C21     -C26     -C27     -C28     :  64.015094
 C21     -C26     -C27     -C32     :-171.562749
 C21     -C26     -C27     -H64     : -53.629150
 C22     -C21     -C26     -C25     :   1.698894
 C22     -C21     -C26     -C27     :-170.978896
 C22     -C23     -C24     -C25     :   1.063186
 C22     -C23     -C24     -C31     :-179.309854
 C22     -C29     -C30     -H69     :  66.147975
 C22     -C29     -C30     -H70     :-174.326432
 C22     -C29     -C30     -H71     : -55.256123
 C22     -C29     -C33     -H76     : -67.563930
 C22     -C29     -C33     -H77     : 172.850607
 C22     -C29     -C33     -H78     :  52.496295
 C23     -C22     -C21     -C26     :  -1.346332
 C23     -C22     -C29     -C30     : -55.946705
 C23     -C22     -C29     -C33     :  67.080760
 C23     -C22     -C29     -H68     :-169.282245
 C23     -C24     -C25     -C26     :  -0.691187
 C23     -C24     -C25     -H63     : 177.869064
 C23     -C24     -C31     -C34     :  65.047922
 C23     -C24     -C31     -C35     : -59.419190
 C23     -C24     -C31     -H72     :-177.401025
 C24     -C23     -C22     -C29     : 174.852705
 C24     -C25     -C26     -C27     : 172.461322
 C24     -C31     -C34     -H79     : -63.734219
 C24     -C31     -C34     -H80     : 176.190600
 C24     -C31     -C34     -H81     :  56.524026
 C24     -C31     -C35     -H82     :  64.402819
 C24     -C31     -C35     -H83     : -56.124379
 C24     -C31     -C35     -H84     :-175.678488
 C25     -C24     -C23     -H62     :-179.998031
 C25     -C24     -C31     -C34     :-115.347039
 C25     -C24     -C31     -C35     : 120.185849
 C25     -C24     -C31     -H72     :   2.204013
 C25     -C26     -C27     -C28     :-108.939006
 C25     -C26     -C27     -C32     :  15.483150
 C25     -C26     -C27     -H64     : 133.416749
 C26     -C21     -C22     -C29     :-175.506457
 C26     -C25     -C24     -C31     : 179.681006
 C26     -C27     -C28     -H65     :  62.443561
 C26     -C27     -C28     -H66     : -57.696446
 C26     -C27     -C28     -H67     :-177.540986
 C26     -C27     -C32     -H73     : -70.360721
 C26     -C27     -C32     -H74     : 171.133573
 C26     -C27     -C32     -H75     :  52.035152
 C27     -C26     -C25     -H63     :  -6.022085
 C28     -C27     -C32     -H73     :  54.923868
 C28     -C27     -C32     -H74     : -63.581837
 C28     -C27     -C32     -H75     : 177.319741
 C29     -C22     -C23     -H62     :  -4.051717
 C30     -C29     -C33     -H76     :  57.637632
 C30     -C29     -C33     -H77     : -61.947831
 C30     -C29     -C33     -H78     : 177.697857
 C31     -C24     -C23     -H62     :  -0.371070
 C31     -C24     -C25     -H63     :  -1.758744
 C32     -C27     -C28     -H65     : -67.381240
 C32     -C27     -C28     -H66     : 172.478754
 C32     -C27     -C28     -H67     :  52.634213
 C33     -C29     -C30     -H69     : -58.938616
 C33     -C29     -C30     -H70     :  60.586977
 C33     -C29     -C30     -H71     : 179.657286
 C34     -C31     -C35     -H82     : -59.508997
 C34     -C31     -C35     -H83     : 179.963805
 C34     -C31     -C35     -H84     :  60.409695
 C35     -C31     -C34     -H79     :  60.768224
 C35     -C31     -C34     -H80     : -59.306957
 C35     -C31     -C34     -H81     :-178.973532
 H36     -C3      -C6      -H37     : 174.215214
 H36     -C3      -C6      -H38     : -66.568786
 H36     -C3      -C10     -H45     :  66.519570
 H36     -C3      -C10     -H46     :-175.202817
 H37     -C6      -C7      -H39     : 176.337991
 H37     -C6      -C7      -H40     :  58.953153
 H38     -C6      -C7      -H39     :  59.386074
 H38     -C6      -C7      -H40     : -57.998765
 H39     -C7      -C8      -H41     :-174.118713
 H39     -C7      -C8      -H42     : -56.493760
 H40     -C7      -C8      -H41     : -56.824960
 H40     -C7      -C8      -H42     :  60.799993
 H41     -C8      -C9      -H43     : 173.648392
 H41     -C8      -C9      -H44     :  56.644805
 H42     -C8      -C9      -H43     :  56.059532
 H42     -C8      -C9      -H44     : -60.944056
 H43     -C9      -C10     -H45     : -58.319514
 H43     -C9      -C10     -H46     :-174.257532
 H44     -C9      -C10     -H45     :  58.840909
 H44     -C9      -C10     -H46     : -57.097108
 H47     -C4      -C11     -H48     :  65.094890
 H47     -C4      -C11     -H49     :-178.002334
 H47     -C4      -C15     -H56     : 178.303983
 H47     -C4      -C15     -H57     : -63.618359
 H48     -C11     -C12     -H50     :  57.143503
 H48     -C11     -C12     -H51     : -60.224995
 H49     -C11     -C12     -H50     : -58.248939
 H49     -C11     -C12     -H51     :-175.617437
 H50     -C12     -C13     -H52     : -61.120909
 H50     -C12     -C13     -H53     :  56.461249
 H51     -C12     -C13     -H52     :  56.245985
 H51     -C12     -C13     -H53     : 173.828144
 H52     -C13     -C14     -H54     :  60.866972
 H52     -C13     -C14     -H55     : -56.398403
 H53     -C13     -C14     -H54     : -56.737974
 H53     -C13     -C14     -H55     :-174.003349
 H54     -C14     -C15     -H56     :  58.391252
 H54     -C14     -C15     -H57     : -56.817271
 H55     -C14     -C15     -H56     : 175.783159
 H55     -C14     -C15     -H57     :  60.574636
 H58     -C16     -C17     -H59     :  -1.228082
 H59     -C17     -C18     -H60     :  -0.900581
 H60     -C18     -C19     -H61     :  -2.798404
 H64     -C27     -C28     -H65     : 179.342506
 H64     -C27     -C28     -H66     :  59.202500
 H64     -C27     -C28     -H67     : -60.642041
 H64     -C27     -C32     -H73     : 170.495332
 H64     -C27     -C32     -H74     :  51.989627
 H64     -C27     -C32     -H75     : -67.108794
 H68     -C29     -C30     -H69     :-174.369046
 H68     -C29     -C30     -H70     : -54.843453
 H68     -C29     -C30     -H71     :  64.226856
 H68     -C29     -C33     -H76     : 167.645815
 H68     -C29     -C33     -H77     :  48.060352
 H68     -C29     -C33     -H78     : -72.293960
 H72     -C31     -C34     -H79     : 177.589756
 H72     -C31     -C34     -H80     :  57.514575
 H72     -C31     -C34     -H81     : -62.152000
 H72     -C31     -C35     -H82     :-176.424530
 H72     -C31     -C35     -H83     :  63.048272
 H72     -C31     -C35     -H84     : -56.505837
 
  nuclear repulsion energy.......          4554.187122886 hartrees
  
  Detected an organometallic with only one TM atom. 
  
  
 
  Will use High-Quality Initial guess for organometallics
       including d-d repulsion (iguess=30)
 
 Non-default options chosen:
   SCF calculation type: DFT(b3pw91-d3)              
   DFT=Becke_3_Parameter/HF+Slater+Becke88+PW91+PW-GGAIIC (B3PW91-D3)
   Geometry will be optimized in redundant internal coordinates
   Solvation energy will be computed using PBF
     -solute cavity energy will not be included
     -surface area terms will not be included
   Vibrational frequencies and related properties will be computed
      from analytic second derivatives
   IR intensities will be computed
   Thermochemical properties will be computed
   Maximum number of geometry steps: 100
   Scaling standard convergence criteria by a factor of   5.00
   Solvent: benzene                                                         
   Internal dielectric constant:    1.000
   Continuum dielectric constant:   2.283
   Solvent probe molecule radius:   2.600
  
 Non-default print settings:
     11=  2
  
 Temporary integer options set:
     21= -1  73=  2
  
  atom       vdw   vdw2    cov     mass  grid  daf  charge   basis
  P1        2.147  2.074  1.060   30.974    Y    Y      Y    ps_6-31g*
  Pd2       1.450  1.450  1.280  105.903    Y    Y      Y    lacv3p*
  C3        1.949  1.900  0.770   12.000    Y    Y      Y    ps_6-31g*
  C4        1.949  1.900  0.770   12.000    Y    Y      Y    ps_6-31g*
  C5        1.949  1.900  0.770   12.000    Y    Y      Y    ps_6-31g*
  C6        1.949  1.900  0.770   12.000    Y    Y      Y    ps_6-31g*
  C7        1.949  1.900  0.770   12.000    Y    Y      Y    ps_6-31g*
  C8        1.949  1.900  0.770   12.000    Y    Y      Y    ps_6-31g*
  C9        1.949  1.900  0.770   12.000    Y    Y      Y    ps_6-31g*
  C10       1.949  1.900  0.770   12.000    Y    Y      Y    ps_6-31g*
  C11       1.949  1.900  0.770   12.000    Y    Y      Y    ps_6-31g*
  C12       1.949  1.900  0.770   12.000    Y    Y      Y    ps_6-31g*
  C13       1.949  1.900  0.770   12.000    Y    Y      Y    ps_6-31g*
  C14       1.949  1.900  0.770   12.000    Y    Y      Y    ps_6-31g*
  C15       1.949  1.900  0.770   12.000    Y    Y      Y    ps_6-31g*
  C16       1.949  1.900  0.770   12.000    Y    Y      Y    ps_6-31g*
  C17       1.949  1.900  0.770   12.000    Y    Y      Y    ps_6-31g*
  C18       1.949  1.900  0.770   12.000    Y    Y      Y    ps_6-31g*
  C19       1.949  1.900  0.770   12.000    Y    Y      Y    ps_6-31g*
  C20       1.949  1.900  0.770   12.000    Y    Y      Y    ps_6-31g*
  C21       1.949  1.900  0.770   12.000    Y    Y      Y    ps_6-31g*
  C22       1.949  1.900  0.770   12.000    Y    Y      Y    ps_6-31g*
  C23       1.949  1.900  0.770   12.000    Y    Y      Y    ps_6-31g*
  C24       1.949  1.900  0.770   12.000    Y    Y      Y    ps_6-31g*
  C25       1.949  1.900  0.770   12.000    Y    Y      Y    ps_6-31g*
  C26       1.949  1.900  0.770   12.000    Y    Y      Y    ps_6-31g*
  C27       1.949  1.900  0.770   12.000    Y    Y      Y    ps_6-31g*
  C28       1.949  1.900  0.770   12.000    Y    Y      Y    ps_6-31g*
  C29       1.949  1.900  0.770   12.000    Y    Y      Y    ps_6-31g*
  C30       1.949  1.900  0.770   12.000    Y    Y      Y    ps_6-31g*
  C31       1.949  1.900  0.770   12.000    Y    Y      Y    ps_6-31g*
  C32       1.949  1.900  0.770   12.000    Y    Y      Y    ps_6-31g*
  C33       1.949  1.900  0.770   12.000    Y    Y      Y    ps_6-31g*
  C34       1.949  1.900  0.770   12.000    Y    Y      Y    ps_6-31g*
  C35       1.949  1.900  0.770   12.000    Y    Y      Y    ps_6-31g*
  H36       1.597  1.150  0.320    1.008    Y    Y      Y    ps_6-31g*
  H37       1.597  1.150  0.320    1.008    Y    Y      Y    ps_6-31g*
  H38       1.597  1.150  0.320    1.008    Y    Y      Y    ps_6-31g*
  H39       1.597  1.150  0.320    1.008    Y    Y      Y    ps_6-31g*
  H40       1.597  1.150  0.320    1.008    Y    Y      Y    ps_6-31g*
  H41       1.597  1.150  0.320    1.008    Y    Y      Y    ps_6-31g*
  H42       1.597  1.150  0.320    1.008    Y    Y      Y    ps_6-31g*
  H43       1.597  1.150  0.320    1.008    Y    Y      Y    ps_6-31g*
  H44       1.597  1.150  0.320    1.008    Y    Y      Y    ps_6-31g*
  H45       1.597  1.150  0.320    1.008    Y    Y      Y    ps_6-31g*
  H46       1.597  1.150  0.320    1.008    Y    Y      Y    ps_6-31g*
  H47       1.597  1.150  0.320    1.008    Y    Y      Y    ps_6-31g*
  H48       1.597  1.150  0.320    1.008    Y    Y      Y    ps_6-31g*
  H49       1.597  1.150  0.320    1.008    Y    Y      Y    ps_6-31g*
  H50       1.597  1.150  0.320    1.008    Y    Y      Y    ps_6-31g*
  H51       1.597  1.150  0.320    1.008    Y    Y      Y    ps_6-31g*
  H52       1.597  1.150  0.320    1.008    Y    Y      Y    ps_6-31g*
  H53       1.597  1.150  0.320    1.008    Y    Y      Y    ps_6-31g*
  H54       1.597  1.150  0.320    1.008    Y    Y      Y    ps_6-31g*
  H55       1.597  1.150  0.320    1.008    Y    Y      Y    ps_6-31g*
  H56       1.597  1.150  0.320    1.008    Y    Y      Y    ps_6-31g*
  H57       1.597  1.150  0.320    1.008    Y    Y      Y    ps_6-31g*
  H58       1.597  1.150  0.320    1.008    Y    Y      Y    ps_6-31g*
  H59       1.597  1.150  0.320    1.008    Y    Y      Y    ps_6-31g*
  H60       1.597  1.150  0.320    1.008    Y    Y      Y    ps_6-31g*
  H61       1.597  1.150  0.320    1.008    Y    Y      Y    ps_6-31g*
  H62       1.597  1.150  0.320    1.008    Y    Y      Y    ps_6-31g*
  H63       1.597  1.150  0.320    1.008    Y    Y      Y    ps_6-31g*
  H64       1.597  1.150  0.320    1.008    Y    Y      Y    ps_6-31g*
  H65       1.597  1.150  0.320    1.008    Y    Y      Y    ps_6-31g*
  H66       1.597  1.150  0.320    1.008    Y    Y      Y    ps_6-31g*
  H67       1.597  1.150  0.320    1.008    Y    Y      Y    ps_6-31g*
  H68       1.597  1.150  0.320    1.008    Y    Y      Y    ps_6-31g*
  H69       1.597  1.150  0.320    1.008    Y    Y      Y    ps_6-31g*
  H70       1.597  1.150  0.320    1.008    Y    Y      Y    ps_6-31g*
  H71       1.597  1.150  0.320    1.008    Y    Y      Y    ps_6-31g*
  H72       1.597  1.150  0.320    1.008    Y    Y      Y    ps_6-31g*
  H73       1.597  1.150  0.320    1.008    Y    Y      Y    ps_6-31g*
  H74       1.597  1.150  0.320    1.008    Y    Y      Y    ps_6-31g*
  H75       1.597  1.150  0.320    1.008    Y    Y      Y    ps_6-31g*
  H76       1.597  1.150  0.320    1.008    Y    Y      Y    ps_6-31g*
  H77       1.597  1.150  0.320    1.008    Y    Y      Y    ps_6-31g*
  H78       1.597  1.150  0.320    1.008    Y    Y      Y    ps_6-31g*
  H79       1.597  1.150  0.320    1.008    Y    Y      Y    ps_6-31g*
  H80       1.597  1.150  0.320    1.008    Y    Y      Y    ps_6-31g*
  H81       1.597  1.150  0.320    1.008    Y    Y      Y    ps_6-31g*
  H82       1.597  1.150  0.320    1.008    Y    Y      Y    ps_6-31g*
  H83       1.597  1.150  0.320    1.008    Y    Y      Y    ps_6-31g*
  H84       1.597  1.150  0.320    1.008    Y    Y      Y    ps_6-31g*
 
  atom      formal  2spin      esp    mulk    frag
  P1           0       0        Y    0.000       0
  Pd2          0       0        Y    0.000       0
  
  end of program pre
   
 Time(pre)  user:       0.958  user+sys:       0.958  wallclock:       1.269
  
  start of program onee
  
  smallest eigenvalue of S:    2.987E-04
  number of canonical orbitals.....          607
  end of program onee
   
 Time(onee)  user:       4.587  user+sys:       4.587  wallclock:       3.738
  
  start of program hfig
  
  initial wavefunction generated automatically from atomic wavefunctions
  Only one possible d-orb occupation 
  Skip d-d repulsion considerations 
 
  Irreducible     Total no   No of occupied orbitals 
  representation  orbitals   Shell_1  Shell_2    ...
  No Symm          607        140
  ------------------------
  Orbital occupation/shell    1.000
 
  end of program hfig
   
 Time(hfig)  user:       1.038  user+sys:       1.038  wallclock:       1.337
  
  start of program probe
  
  end of program probe
   
 Time(probe)  user:       0.548  user+sys:       0.548  wallclock:       0.479
  
  start of program grid
  
   grid     grid set  grid #  grid sym
  ------    --------  ------  --------
  coarse        0        0        1
  medium        2        1        1
  fine          0        0        1
  ultrafine     4        2        1
  charge       -1        3        1
  gradient      4        2        1
  density       0        0        1
  DFT-fine    -11        4        1
  DFT-med.    -10        5        1
  DFT-grad    -12        6        1
  DFT-der2     -8        7        1
  DFT-cphf     -9        8        1
  LMP2-enrg     4        2        1
  LMP2-grad     2        1        1
  DFT-cphf2   -15        9        1
  PBF-dens      0        0        1
  plotting      0        0        1
  Rel-grad    -17        0        1
  
  number of gridpoints: 
     atom           P1         Pd2          C3          C4          C5          C6          C7
  grid # 1         604         400          79          80          91          92          92
  grid # 2         416         381         334         331         384         276         280
  grid # 3           7         435           6           6           9           6           6
  grid # 4        8714        8714        8714        8714        8714        8714        8714
  grid # 5        1192        1192        1192        1192        1192        1192        1192
  grid # 6        9132        9132        5922        5922        5922        5922        5922
  grid # 7       23034       32968       13950       13950       13950       13950       13950
  grid # 8         722        1150         748         748         748         748         748
  grid # 9         366        2198         394         394         394         394         394
   
  number of gridpoints: 
     atom           C8          C9         C10         C11         C12         C13         C14
  grid # 1          92          92          92          90          92          92          92
  grid # 2         278         283         276         278         283         278         283
  grid # 3           6           6           6           6           6           6           6
  grid # 4        8714        8714        8714        8714        8714        8714        8714
  grid # 5        1192        1192        1192        1192        1192        1192        1192
  grid # 6        5922        5922        5922        5922        5922        5922        5922
  grid # 7       13950       13950       13950       13950       13950       13950       13950
  grid # 8         748         748         748         748         748         748         748
  grid # 9         394         394         394         394         394         394         394
   
  number of gridpoints: 
     atom          C15         C16         C17         C18         C19         C20         C21
  grid # 1          92          91          95          95          93          98          97
  grid # 2         277         319         323         323         320         356         361
  grid # 3           6           9          24          28          11          11          12
  grid # 4        8714        8714        8714        8714        8714        8714        8714
  grid # 5        1192        1192        1192        1192        1192        1192        1192
  grid # 6        5922        5922        5922        5922        5922        5922        5922
  grid # 7       13950       13950       13950       13950       13950       13950       13950
  grid # 8         748         748         748         748         748         748         748
  grid # 9         394         394         394         394         394         394         394
   
  number of gridpoints: 
     atom          C22         C23         C24         C25         C26         C27         C28
  grid # 1          98          93         100          93          98          89          81
  grid # 2         363         329         361         327         362         303         244
  grid # 3          18          29          15          21          11           6           6
  grid # 4        8714        8714        8714        8714        8714        8714        8714
  grid # 5        1192        1192        1192        1192        1192        1192        1192
  grid # 6        5922        5922        5922        5922        5922        5922        5922
  grid # 7       13950       13950       13950       13950       13950       13950       13950
  grid # 8         748         748         748         748         748         748         748
  grid # 9         394         394         394         394         394         394         394
   
  number of gridpoints: 
     atom          C29         C30         C31         C32         C33         C34         C35
  grid # 1          91          80          90          82          80          83          81
  grid # 2         310         245         305         244         246         242         247
  grid # 3           6           6           6           6           6           6           6
  grid # 4        8714        8714        8714        8714        8714        8714        8714
  grid # 5        1192        1192        1192        1192        1192        1192        1192
  grid # 6        5922        5922        5922        5922        5922        5922        5922
  grid # 7       13950       13950       13950       13950       13950       13950       13950
  grid # 8         748         748         748         748         748         748         748
  grid # 9         394         394         394         394         394         394         394
   
  number of gridpoints: 
     atom          H36         H37         H38         H39         H40         H41         H42
  grid # 1          98         106         104         107         112         110         112
  grid # 2         420         430         430         444         459         454         458
  grid # 3          58         141         100         198         329         268         332
  grid # 4        8714        8714        8714        8714        8714        8714        8714
  grid # 5        1192        1192        1192        1192        1192        1192        1192
  grid # 6        5922        5922        5922        5922        5922        5922        5922
  grid # 7       15206       15206       15206       15206       15206       15206       15206
  grid # 8         786         786         786         786         786         786         786
  grid # 9         420         420         420         420         420         420         420
   
  number of gridpoints: 
     atom          H43         H44         H45         H46         H47         H48         H49
  grid # 1         110         112         102         106          99         103         105
  grid # 2         450         457         435         433         422         433         438
  grid # 3         255         326         164         142          74         126         146
  grid # 4        8714        8714        8714        8714        8714        8714        8714
  grid # 5        1192        1192        1192        1192        1192        1192        1192
  grid # 6        5922        5922        5922        5922        5922        5922        5922
  grid # 7       15206       15206       15206       15206       15206       15206       15206
  grid # 8         786         786         786         786         786         786         786
  grid # 9         420         420         420         420         420         420         420
   
  number of gridpoints: 
     atom          H50         H51         H52         H53         H54         H55         H56
  grid # 1         112         110         112         110         112         110         109
  grid # 2         458         454         458         456         458         452         440
  grid # 3         327         255         332         266         327         264         167
  grid # 4        8714        8714        8714        8714        8714        8714        8714
  grid # 5        1192        1192        1192        1192        1192        1192        1192
  grid # 6        5922        5922        5922        5922        5922        5922        5922
  grid # 7       15206       15206       15206       15206       15206       15206       15206
  grid # 8         786         786         786         786         786         786         786
  grid # 9         420         420         420         420         420         420         420
   
  number of gridpoints: 
     atom          H57         H58         H59         H60         H61         H62         H63
  grid # 1         108         103         118         118         107         105         103
  grid # 2         436         425         467         466         425         419         431
  grid # 3         155         100         406         409         138          66         137
  grid # 4        8714        8714        8714        8714        8714        8714        8714
  grid # 5        1192        1192        1192        1192        1192        1192        1192
  grid # 6        5922        5922        5922        5922        5922        5922        5922
  grid # 7       15206       15206       15206       15206       15206       15206       15206
  grid # 8         786         786         786         786         786         786         786
  grid # 9         420         420         420         420         420         420         420
   
  number of gridpoints: 
     atom          H64         H65         H66         H67         H68         H69         H70
  grid # 1          90         110         105         106         105         104         108
  grid # 2         412         455         438         438         431         442         452
  grid # 3          10         309         164         191         144         225         315
  grid # 4        8714        8714        8714        8714        8714        8714        8714
  grid # 5        1192        1192        1192        1192        1192        1192        1192
  grid # 6        5922        5922        5922        5922        5922        5922        5922
  grid # 7       15206       15206       15206       15206       15206       15206       15206
  grid # 8         786         786         786         786         786         786         786
  grid # 9         420         420         420         420         420         420         420
   
  number of gridpoints: 
     atom          H71         H72         H73         H74         H75         H76         H77
  grid # 1         109         110         107         107         107         105         110
  grid # 2         455         442         441         447         444         444         454
  grid # 3         284         219         258         238         216         240         313
  grid # 4        8714        8714        8714        8714        8714        8714        8714
  grid # 5        1192        1192        1192        1192        1192        1192        1192
  grid # 6        5922        5922        5922        5922        5922        5922        5922
  grid # 7       15206       15206       15206       15206       15206       15206       15206
  grid # 8         786         786         786         786         786         786         786
  grid # 9         420         420         420         420         420         420         420
   
  number of gridpoints: 
     atom          H78         H79         H80         H81         H82         H83         H84
  grid # 1         107         107         110         111         106         111         110
  grid # 2         443         447         455         459         447         460         456
  grid # 3         264         240         326         311         243         345         324
  grid # 4        8714        8714        8714        8714        8714        8714        8714
  grid # 5        1192        1192        1192        1192        1192        1192        1192
  grid # 6        5922        5922        5922        5922        5922        5922        5922
  grid # 7       15206       15206       15206       15206       15206       15206       15206
  grid # 8         786         786         786         786         786         786         786
  grid # 9         420         420         420         420         420         420         420
   
  number of gridpoints: 
     atom        total
  grid # 1        9248
  grid # 2       32538
  grid # 3       11953
  grid # 4      731976
  grid # 5      100128
  grid # 6      503868
  grid # 7     1261446
  grid # 8       65070
  grid # 9       36146
   
  end of program grid
   
 Time(grid)  user:     416.116  user+sys:     416.116  wallclock:     210.862
  
  start of program rwr
  
  end of program rwr
   
 Time(rwr)  user:      17.884  user+sys:      17.884  wallclock:      24.051
  
  start of program scf
  
 number of electrons..........        280
 number of alpha electrons....        140
 number of beta electrons.....        140
 number of orbitals, total....        607
 number of doubly-occ'd orbs..        140
 number of open shell orbs....          0
 number of occupied orbitals..        140
 number of virtual orbitals...        467
 number of hamiltonians.......          1
 number of shells.............          1
 SCF type: DFT=Becke_3_Parameter/HF+Slater+Becke88+PW91+PW-GGAIIC (B3PW91-D3)
 Energy computed using pseudospectral method.
 Convergence Criterion:
    Energy (econv):       1.00E-05
    RMS density (dconv):  5.00E-06
  
       i  u  d  i  g                   
       t  p  i  c  r                                 RMS    maximum
       e  d  i  u  i                       energy  density   DIIS  
       r  t  s  t  d       total energy    change  change    error 
  
etot    1  N  N  5  M   -1750.62033662038           2.2E-03  1.6E-01
etot    2  Y  Y  6  M   -1753.44115371274  2.8E+00  3.4E-03  1.2E-01
etot    3  Y  Y  6  M   -1754.29825244940  8.6E-01  1.2E-03  3.2E-02
etot    4  N  Y  2  U   -1754.60350159748  3.1E-01  1.3E-03  4.4E-02
etot    5  Y  Y  6  M   -1754.64301579240  4.0E-02  8.6E-04  2.5E-02
etot    6  N  Y  2  U   -1754.64536539958  2.3E-03  4.5E-04  1.3E-02
etot    7  Y  Y  6  M   -1754.65157794302  6.2E-03  7.1E-05  4.5E-03
etot    8  N  Y  2  U   -1754.65352281523  1.9E-03  2.1E-05  3.7E-04
etot    9  N  Y  2  U   -1754.65359287148  7.0E-05  1.1E-05  1.4E-04
etot   10  N  Y  2  U   -1754.65359928155  6.4E-06  3.8E-06  1.6E-04
etot   11  N  N  2  U   -1754.65360082540  1.5E-06  0.0E+00  0.0E+00
 
  Computing the dispersion energy correction and its gradients...
  
  
 Energy components, in hartrees:
   (A)  Nuclear repulsion............    4554.18712288635
   (E)  Total one-electron terms.....  -11507.69841363849
   (F)    Electron-nuclear...........  -13171.57220024998
   (H)    Kinetic....................    1663.87378661150
   (I)  Total two-electron terms.....    5198.85768992674
   (J)    Coulomb....................    5431.88731750216
   (K)    Exchange+Correlation.......    -233.02962757542
   (L)  Electronic energy............   -6308.84072371175  (E+I)
   (N0) D3 correction................      -0.13745284843
   (N)  Total energy.................   -1754.79105367383  (A+L+N0)
   (O)  Gas phase energy.............   -1754.79105367383
  
 SCFE: SCF energy: DFT(b3pw91-d3)     -1754.79105367383 hartrees   iterations:  11
  
 
 HOMO energy:    -0.14781
 LUMO energy:    -0.03854
 
  Orbital energies (hartrees): 
   -77.06429   -10.19346   -10.19202   -10.18208   -10.17964   -10.17791
   -10.17768   -10.17763   -10.17704   -10.17623   -10.17557   -10.17473
   -10.17461   -10.17399   -10.16978   -10.16658   -10.16653   -10.16450
   -10.16416   -10.16354   -10.16312   -10.16043   -10.15949   -10.15911
   -10.15845   -10.15755   -10.15732   -10.15680   -10.15657   -10.15656
   -10.15467   -10.15289   -10.15209   -10.14828    -6.56307    -4.72119
    -4.72072    -4.71799    -3.23340    -1.97215    -1.95138    -1.94983
    -0.87427    -0.85074    -0.83675    -0.82828    -0.81120    -0.80706
    -0.77449    -0.76672    -0.76347    -0.74383    -0.73921    -0.73452
    -0.73271    -0.71205    -0.70869    -0.67833    -0.67572    -0.67073
    -0.65087    -0.62800    -0.62441    -0.60680    -0.59973    -0.59716
    -0.59678    -0.59006    -0.58457    -0.56035    -0.55281    -0.54591
    -0.53742    -0.52731    -0.51023    -0.48400    -0.48160    -0.47271
    -0.46685    -0.45541    -0.44962    -0.44630    -0.44228    -0.44026
    -0.43573    -0.43328    -0.42994    -0.42843    -0.42713    -0.42434
    -0.42329    -0.41773    -0.41275    -0.41006    -0.40344    -0.39715
    -0.38947    -0.38861    -0.38153    -0.38045    -0.37661    -0.37533
    -0.37226    -0.37042    -0.36732    -0.36329    -0.36283    -0.35687
    -0.35386    -0.35279    -0.34806    -0.34532    -0.34402    -0.34041
    -0.33673    -0.33495    -0.33293    -0.33110    -0.33029    -0.32895
    -0.32085    -0.31912    -0.31390    -0.31300    -0.30870    -0.30609
    -0.29804    -0.29395    -0.28788    -0.28257    -0.27439    -0.26575
    -0.24955    -0.22801    -0.21458    -0.19347    -0.19126    -0.17115
    -0.17106    -0.14781    -0.03854    -0.02260    -0.01535     0.00469
     0.01998     0.02636     0.03500     0.05650     0.06447     0.07562
 
  end of program scf
   
 Time(scf)  user:     432.062  user+sys:     432.062  wallclock:     229.353
  
  start of program der1a
  
  end of program der1a
   
 Time(der1a)  user:      13.702  user+sys:      13.702  wallclock:       7.369
  
  start of program rwr
  
  end of program rwr
   
 Time(rwr)  user:      20.278  user+sys:      20.278  wallclock:      28.816
  
  start of program der1b
  
   
  forces (hartrees/bohr) : total     
   
 atom  label           x              y              z
 ---- --------   -------------  -------------  -------------
    1 P1         -7.450948E-03   3.590349E-03   3.472084E-02
    2 Pd2         5.892077E-05   4.578776E-03   5.451298E-03
    3 C3          1.448124E-02   8.927103E-03  -1.490041E-02
    4 C4         -6.212650E-03  -7.428891E-03  -1.850802E-02
    5 C5          3.322267E-03  -1.683754E-02  -1.420538E-02
    6 C6         -6.229074E-03   1.105184E-02  -6.227571E-03
    7 C7          3.294700E-03   2.969930E-03  -4.676323E-03
    8 C8          9.589083E-03   4.157551E-04  -4.013090E-03
    9 C9          6.027525E-03  -2.565956E-03  -9.883729E-04
   10 C10        -6.566885E-03  -1.297468E-02   1.058313E-02
   11 C11         1.395743E-02  -4.965705E-03   6.641004E-03
   12 C12         8.712607E-04  -6.927676E-03  -4.326076E-05
   13 C13        -4.455711E-03  -9.286517E-03  -1.651100E-03
   14 C14        -5.210930E-03  -2.793166E-03  -1.968546E-03
   15 C15        -8.779663E-03   1.312277E-02  -5.190804E-03
   16 C16        -5.971761E-03   1.010634E-03  -1.291499E-02
   17 C17        -1.566685E-03  -2.755841E-04  -1.100402E-03
   18 C18         1.825830E-03  -2.089467E-03   1.490394E-03
   19 C19        -4.844046E-03   1.262142E-02  -1.966721E-02
   20 C20        -2.257689E-03  -1.192239E-02  -4.326757E-02
   21 C21         1.656446E-03   8.894288E-03   4.835123E-02
   22 C22        -2.357384E-03  -3.260820E-03   1.276186E-02
   23 C23        -1.076881E-04   2.942359E-03   3.643468E-03
   24 C24         1.129877E-03  -3.909910E-03  -1.250969E-02
   25 C25        -1.415986E-04   2.156460E-03   2.714709E-03
   26 C26         7.373754E-03   7.840039E-03   1.602151E-02
   27 C27         1.153026E-02   1.629529E-03  -1.311536E-02
   28 C28         8.693881E-04   7.534917E-03  -1.126575E-02
   29 C29        -1.330083E-02  -1.250833E-02  -3.953648E-03
   30 C30        -5.417513E-03  -7.147204E-03   1.022231E-02
   31 C31         3.731883E-03   9.785267E-04   4.589046E-03
   32 C32         1.530418E-03  -1.030741E-03   7.731529E-03
   33 C33        -2.465825E-03   8.072795E-03  -6.014665E-03
   34 C34        -3.783384E-03  -6.518460E-03   8.947455E-03
   35 C35        -8.143143E-04   1.092013E-02   5.661953E-04
   36 H36        -1.095275E-02  -5.181727E-03   1.867575E-03
   37 H37         2.989385E-03   6.334408E-03   6.261059E-03
   38 H38         2.049439E-03  -1.232520E-02  -2.282090E-03
   39 H39        -4.950985E-03  -5.442418E-03  -6.372050E-03
   40 H40        -1.329247E-03  -4.226473E-03   1.084241E-02
   41 H41         4.329337E-03   5.266304E-03   7.126879E-03
   42 H42        -1.099685E-02  -2.315163E-03   1.617449E-03
   43 H43        -5.578989E-03  -4.779579E-03  -6.885470E-03
   44 H44        -5.383729E-03   1.002534E-02   3.218742E-03
   45 H45        -2.923957E-03   5.203827E-03  -7.634140E-03
   46 H46         4.392106E-03   4.693033E-03   6.540488E-03
   47 H47        -2.390515E-03  -2.922968E-04   6.202279E-03
   48 H48        -1.035817E-02   2.566083E-03  -2.458684E-04
   49 H49         3.856341E-03   8.296139E-04  -9.458336E-03
   50 H50        -8.869797E-04   8.445048E-03  -8.056441E-03
   51 H51        -4.361809E-03   1.783371E-03   8.132460E-03
   52 H52         2.870376E-03   9.585156E-03   4.808230E-03
   53 H53         4.475327E-03  -1.711489E-03  -8.969321E-03
   54 H54         1.165614E-02   7.985835E-04  -2.089826E-04
   55 H55        -3.566746E-03   1.937937E-03   8.622536E-03
   56 H56         6.279865E-03   2.062643E-04  -5.733134E-03
   57 H57         4.029605E-03  -6.047748E-03   8.372786E-03
   58 H58        -5.130434E-04   6.645467E-03   8.170980E-03
   59 H59         2.710193E-03   1.429598E-03   1.028052E-02
   60 H60         5.687902E-03  -4.635110E-03   8.359163E-03
   61 H61         8.427143E-03  -8.132616E-03   3.600617E-03
   62 H62         3.695914E-03  -3.745989E-03  -6.999293E-03
   63 H63        -3.708174E-03  -3.374427E-03  -7.971801E-03
   64 H64         8.014692E-04   4.721388E-03   6.508862E-04
   65 H65        -1.635203E-04  -9.656472E-03  -3.036322E-03
   66 H66         6.608328E-03   3.159156E-05   8.984602E-03
   67 H67        -8.390636E-03   1.737391E-03   5.939812E-03
   68 H68         6.573828E-03   1.161159E-02   6.113014E-03
   69 H69         3.110510E-03  -3.970723E-03  -8.460432E-03
   70 H70         1.057579E-02   2.900885E-03   2.017688E-03
   71 H71        -1.831503E-03   1.025392E-02  -2.193187E-03
   72 H72        -9.339974E-03  -1.411043E-03  -5.988766E-03
   73 H73        -3.816345E-03  -9.123128E-03  -2.212629E-03
   74 H74        -1.149391E-02   3.502134E-03   2.170539E-03
   75 H75         1.023647E-03   6.182334E-03  -8.522398E-03
   76 H76         2.786002E-03  -6.870452E-03  -7.872548E-03
   77 H77         9.605140E-03  -3.464985E-04   5.372205E-03
   78 H78        -5.181736E-03  -5.948348E-03   5.650654E-03
   79 H79         1.051045E-02   3.529623E-04   1.523831E-03
   80 H80        -8.655365E-04  -3.045878E-03  -9.943924E-03
   81 H81        -4.268555E-03   1.081198E-02  -6.366146E-04
   82 H82         1.021140E-02  -1.748681E-03   2.120962E-03
   83 H83        -6.813292E-03  -6.363925E-03   6.946732E-03
   84 H84        -1.261044E-03  -5.234152E-03  -9.255421E-03
 -------------   -------------  -------------  -------------
     total        1.243348E-03  -1.258757E-03   8.297471E-04
   
  end of program der1b
   
 Time(der1b)  user:     150.136  user+sys:     150.136  wallclock:      79.744
  
  start of program geopt
  
 ----------------------------------------------------------------------------
  Geometry optimization step  1
  Total energy:     -1754.79105367383 hartrees
 ----------------------------------------------------------------------------
  
  
  Level shifts adjusted to satisfy step-size constraints
   Step size:    0.3000084
   Cos(theta):   0.9409114
   Final level shift:  -2.8194519E-01
  
  gradient maximum:        5.7501E-02 .  (  2.2500E-03 )
  gradient rms:            1.0338E-02 .  (  1.5000E-03 )
  displacement maximum:    1.0498E-01 .  (  9.0000E-03 )
  displacement rms:        1.3093E-02 .  (  6.0000E-03 )
  
  predicted energy change:  -2.9239E-02
  step size:     0.21830
  trust radius:  0.30000
  
  molecular structure not yet converged...
  
  center of mass moved by:
     x:    -9.1749E-02     y:     5.7557E-02     z:    -1.0147E-03
  
  new geometry: 
                                   angstroms
  atom               x                 y                 z
  P1           -0.0536011889      0.0196892620      0.0384197307 
  Pd2          -0.2232761671      0.1262106634      2.2457349747 
  C3            1.7258891164     -0.0284204863     -0.6107437811 
  C4           -0.8868149277     -1.5850067948     -0.4748980202 
  C5           -0.9357273398      1.4025584845     -0.8800936141 
  C6            1.9661164131      0.6815176296     -1.9603920747 
  C7            3.4620868313      0.7820313433     -2.2864413297 
  C8            4.0983162276     -0.6112381921     -2.3355555482 
  C9            3.8535980364     -1.3560384097     -1.0189422315 
  C10           2.3578055338     -1.4305499644     -0.6801971278 
  C11          -0.6551557568     -2.6821621920      0.5796961505 
  C12          -1.2130978319     -4.0346343225      0.1192671970 
  C13          -2.7109875129     -3.9301508560     -0.1818787337 
  C14          -2.9762646205     -2.8212016186     -1.2062752275 
  C15          -2.4025163397     -1.4791861667     -0.7284952567 
  C16          -1.1359534250      1.0705700585     -2.2347180916 
  C17          -1.8617068582      1.8636302042     -3.1234262157 
  C18          -2.4278988416      3.0402867524     -2.6374578515 
  C19          -2.2425879280      3.3729513730     -1.2961179269 
  C20          -1.5072293017      2.6022542970     -0.3691578841 
  C21          -1.4166807068      3.1459634999      0.9799858453 
  C22          -2.5883204923      3.5690701933      1.6827471601 
  C23          -2.4684781862      4.1141591668      2.9697965699 
  C24          -1.2456941503      4.2733521585      3.6219796912 
  C25          -0.1135592708      3.8816951360      2.9072243095 
  C26          -0.1617813762      3.3439098796      1.6170093734 
  C27           1.1539576109      3.2092840064      0.8687121862 
  C28           1.2576450865      4.2969986507     -0.2155613722 
  C29          -4.0302696512      3.3837299988      1.2092535027 
  C30          -4.8539838024      2.5229869331      2.1917799992 
  C31          -1.1498306038      4.8492961156      5.0186114155 
  C32           2.4371626728      3.2216465381      1.7131814181 
  C33          -4.7442441366      4.7266711851      0.9808634918 
  C34          -1.8305670929      3.9218436890      6.0358440899 
  C35          -1.7294104784      6.2696945293      5.0843865641 
  H36           2.3182216621      0.5417760645      0.1301675843 
  H37           1.4794174621      0.1149355114     -2.7784688418 
  H38           1.5274953651      1.6979766292     -1.9460987180 
  H39           3.9722500175      1.3956387698     -1.5148250538 
  H40           3.6024131275      1.3023847205     -3.2559986219 
  H41           3.6564586733     -1.1904243371     -3.1727410064 
  H42           5.1864057555     -0.5306262459     -2.5362043502 
  H43           4.3890064779     -0.8373773307     -0.1966671604 
  H44           4.2736676739     -2.3808905100     -1.0780590019 
  H45           2.2471124185     -1.9576278842      0.2857829059 
  H46           1.8390159768     -2.0398723622     -1.4472658661 
  H47          -0.4224944115     -1.9147895681     -1.4277576655 
  H48           0.4199076457     -2.7914068553      0.8116875580 
  H49          -1.1455852853     -2.3804677002      1.5276122048 
  H50          -1.0334002560     -4.8015384562      0.9001836045 
  H51          -0.6747806071     -4.3679268680     -0.7924787029 
  H52          -3.0960927268     -4.9002120366     -0.5580443397 
  H53          -3.2604646135     -3.7021983483      0.7548976505 
  H54          -4.0669281262     -2.7199851898     -1.3820078433 
  H55          -2.5174396984     -3.0951758672     -2.1791063612 
  H56          -2.9178507133     -1.1789337585      0.2044053982 
  H57          -2.6329772391     -0.7013934538     -1.4801739634 
  H58          -0.7404575406      0.1326433723     -2.6366382702 
  H59          -1.9890168947      1.5663029988     -4.1712010515 
  H60          -2.9987543240      3.7018396011     -3.2999274475 
  H61          -2.6578195626      4.3375954659     -0.9966346562 
  H62          -3.3703289666      4.4196824488      3.5087714465 
  H63           0.8490863898      4.0407148145      3.3993960678 
  H64           1.1514543843      2.2310983388      0.3823311074 
  H65           1.2572931813      5.3054780085      0.2421328415 
  H66           0.4158803666      4.2581268392     -0.9318063125 
  H67           2.1909152423      4.1893207902     -0.8025920725 
  H68          -4.0635049552      2.8012823300      0.2705990160 
  H69          -5.0069554167      3.0085953256      3.1739926731 
  H70          -5.8620804543      2.3178232203      1.7800284700 
  H71          -4.3674970138      1.5464620517      2.3747788854 
  H72          -0.0777374325      4.9182341467      5.2988802838 
  H73           2.6428459105      4.2206204382      2.1449239106 
  H74           3.3112684780      2.9629003020      1.0845472304 
  H75           2.3949668896      2.4806143261      2.5343044710 
  H76          -4.9010442646      5.2716417860      1.9310402299 
  H77          -5.7404536753      4.5701984242      0.5234543694 
  H78          -4.1733499344      5.4015232013      0.3154074316 
  H79          -2.9164449979      3.8302986550      5.8418763490 
  H80          -1.7074048688      4.3043212855      7.0681132384 
  H81          -1.3941189283      2.9049853363      5.9967167470 
  H82          -2.8149729601      6.2825430993      4.8697094816 
  H83          -1.2314515449      6.9334355065      4.3515564177 
  H84          -1.5868857518      6.7091705220      6.0909854060 
   
 
  bond lengths (angstroms):
 
 P1      -Pd2     :   2.216388      P1      -C3      :   1.894812
 P1      -C4      :   1.879572      P1      -C5      :   1.879931
 C3      -C6      :   1.543785      C3      -C10     :   1.539516
 C3      -H36     :   1.106766      C4      -C11     :   1.539346
 C4      -C15     :   1.540409      C4      -H47     :   1.110086
 C5      -C16     :   1.409012      C5      -C20     :   1.423706
 C6      -C7      :   1.534385      C6      -H37     :   1.107764
 C6      -H38     :   1.107150      C7      -C8      :   1.532449
 C7      -H39     :   1.110033      C7      -H40     :   1.109279
 C8      -C9      :   1.532346      C8      -H41     :   1.109763
 C8      -H42     :   1.109368      C9      -C10     :   1.535479
 C9      -H43     :   1.109868      C9      -H44     :   1.109178
 C10     -H45     :   1.105975      C10     -H46     :   1.108517
 C11     -C12     :   1.533778      C11     -H48     :   1.105222
 C11     -H49     :   1.109092      C12     -C13     :   1.531430
 C12     -H50     :   1.109172      C12     -H51     :   1.110022
 C13     -C14     :   1.532817      C13     -H52     :   1.109426
 C13     -H53     :   1.109702      C14     -C15     :   1.535730
 C14     -H54     :   1.109357      C14     -H55     :   1.109947
 C15     -H56     :   1.107260      C15     -H57     :   1.105936
 C16     -C17     :   1.394799      C16     -H58     :   1.094378
 C17     -C18     :   1.393291      C17     -H59     :   1.096560
 C18     -C19     :   1.394345      C18     -H60     :   1.096537
 C19     -C20     :   1.412084      C19     -H61     :   1.092083
 C20     -C21     :   1.457398      C21     -C22     :   1.430256
 C21     -C26     :   1.421181      C22     -C23     :   1.402847
 C22     -C29     :   1.528975      C23     -C24     :   1.394950
 C23     -H62     :   1.094154      C24     -C25     :   1.394991
 C24     -C31     :   1.513764      C25     -C26     :   1.398640
 C25     -H63     :   1.092798      C26     -C27     :   1.519619
 C27     -C28     :   1.539326      C27     -C32     :   1.536195
 C27     -H64     :   1.092438      C28     -H65     :   1.107481
 C28     -H66     :   1.105932      C28     -H67     :   1.107787
 C29     -C30     :   1.544261      C29     -C33     :   1.537990
 C29     -H68     :   1.105180      C30     -H69     :   1.106326
 C30     -H70     :   1.108102      C30     -H71     :   1.106236
 C31     -C34     :   1.535686      C31     -C35     :   1.535503
 C31     -H72     :   1.110264      C32     -H73     :   1.107545
 C32     -H74     :   1.107335      C32     -H75     :   1.106866
 C33     -H76     :   1.106533      C33     -H77     :   1.107312
 C33     -H78     :   1.106425      C34     -H79     :   1.106858
 C34     -H80     :   1.107717      C34     -H81     :   1.107257
 C35     -H82     :   1.106660      C35     -H83     :   1.107048
 C35     -H84     :   1.107562
 
  bond angles:
 
 C3      -P1      -Pd2     : 114.476103  C4      -P1      -Pd2     : 106.205371
 C4      -P1      -C3      : 107.522315  C5      -P1      -Pd2     : 114.539056
 C5      -P1      -C3      : 106.975395  C5      -P1      -C4      : 106.652902
 C6      -C3      -P1      : 115.720383  C10     -C3      -P1      : 115.091376
 C10     -C3      -C6      : 108.392043  H36     -C3      -P1      : 105.081257
 H36     -C3      -C6      : 105.370070  H36     -C3      -C10     : 106.244650
 C11     -C4      -P1      : 110.774641  C15     -C4      -P1      : 114.992547
 C15     -C4      -C11     : 108.048840  H47     -C4      -P1      : 107.615899
 H47     -C4      -C11     : 108.262598  H47     -C4      -C15     : 106.897531
 C16     -C5      -P1      : 111.290076  C20     -C5      -P1      : 129.262199
 C20     -C5      -C16     : 119.112537  C7      -C6      -C3      : 111.568374
 H37     -C6      -C3      : 110.001920  H37     -C6      -C7      : 107.754040
 H38     -C6      -C3      : 110.442325  H38     -C6      -C7      : 109.199261
 H38     -C6      -H37     : 107.760791  C8      -C7      -C6      : 110.611514
 H39     -C7      -C6      : 109.669041  H39     -C7      -C8      : 109.514607
 H40     -C7      -C6      : 109.864311  H40     -C7      -C8      : 110.240104
 H40     -C7      -H39     : 106.865576  C9      -C8      -C7      : 110.369140
 H41     -C8      -C7      : 109.473801  H41     -C8      -C9      : 109.324548
 H42     -C8      -C7      : 110.300260  H42     -C8      -C9      : 110.326009
 H42     -C8      -H41     : 106.977637  C10     -C9      -C8      : 111.636287
 H43     -C9      -C8      : 109.413856  H43     -C9      -C10     : 109.218397
 H44     -C9      -C8      : 110.048972  H44     -C9      -C10     : 109.624474
 H44     -C9      -H43     : 106.772886  C9      -C10     -C3      : 111.445248
 H45     -C10     -C3      : 110.705119  H45     -C10     -C9      : 108.258988
 H46     -C10     -C3      : 109.861006  H46     -C10     -C9      : 109.264055
 H46     -C10     -H45     : 107.192676  C12     -C11     -C4      : 111.597563
 H48     -C11     -C4      : 111.139502  H48     -C11     -C12     : 109.250293
 H49     -C11     -C4      : 108.972096  H49     -C11     -C12     : 109.607617
 H49     -C11     -H48     : 106.117640  C13     -C12     -C11     : 110.773371
 H50     -C12     -C11     : 109.840450  H50     -C12     -C13     : 110.125804
 H51     -C12     -C11     : 109.567764  H51     -C12     -C13     : 109.469579
 H51     -C12     -H50     : 106.984900  C14     -C13     -C12     : 110.490560
 H52     -C13     -C12     : 110.275695  H52     -C13     -C14     : 110.237721
 H53     -C13     -C12     : 109.410085  H53     -C13     -C14     : 109.260178
 H53     -C13     -H52     : 107.095237  C15     -C14     -C13     : 111.078050
 H54     -C14     -C13     : 110.000230  H54     -C14     -C15     : 109.685487
 H55     -C14     -C13     : 109.610951  H55     -C14     -C15     : 109.508086
 H55     -C14     -H54     : 106.863355  C14     -C15     -C4      : 111.026149
 H56     -C15     -C4      : 109.747247  H56     -C15     -C14     : 108.977883
 H57     -C15     -C4      : 111.423054  H57     -C15     -C14     : 108.981987
 H57     -C15     -H56     : 106.556103  C17     -C16     -C5      : 123.541208
 H58     -C16     -C5      : 120.242597  H58     -C16     -C17     : 116.189289
 C18     -C17     -C16     : 117.994609  H59     -C17     -C16     : 121.000987
 H59     -C17     -C18     : 121.002913  C19     -C18     -C17     : 118.882242
 H60     -C18     -C17     : 120.686477  H60     -C18     -C19     : 120.426346
 C20     -C19     -C18     : 124.784348  H61     -C19     -C18     : 115.088325
 H61     -C19     -C20     : 120.005444  C19     -C20     -C5      : 115.681618
 C21     -C20     -C5      : 128.436631  C21     -C20     -C19     : 115.876139
 C22     -C21     -C20     : 120.952254  C26     -C21     -C20     : 121.450662
 C26     -C21     -C22     : 117.509145  C23     -C22     -C21     : 119.719851
 C29     -C22     -C21     : 125.770051  C29     -C22     -C23     : 114.316954
 C24     -C23     -C22     : 123.241296  H62     -C23     -C22     : 119.341805
 H62     -C23     -C24     : 117.409417  C25     -C24     -C23     : 116.092114
 C31     -C24     -C23     : 122.024810  C31     -C24     -C25     : 121.880687
 C26     -C25     -C24     : 123.547305  H63     -C25     -C24     : 116.314437
 H63     -C25     -C26     : 120.118303  C25     -C26     -C21     : 119.833854
 C27     -C26     -C21     : 122.104756  C27     -C26     -C25     : 117.287952
 C28     -C27     -C26     : 110.033900  C32     -C27     -C26     : 116.861661
 C32     -C27     -C28     : 108.981136  H64     -C27     -C26     : 107.252446
 H64     -C27     -C28     : 108.618292  H64     -C27     -C32     : 104.706454
 H65     -C28     -C27     : 110.629623  H66     -C28     -C27     : 112.338614
 H66     -C28     -H65     : 107.422625  H67     -C28     -C27     : 111.181581
 H67     -C28     -H65     : 107.925437  H67     -C28     -H66     : 107.134776
 C30     -C29     -C22     : 111.936335  C33     -C29     -C22     : 112.206432
 C33     -C29     -C30     : 109.484777  H68     -C29     -C22     : 110.809597
 H68     -C29     -C30     : 103.331604  H68     -C29     -C33     : 108.668720
 H69     -C30     -C29     : 113.201396  H70     -C30     -C29     : 110.612481
 H70     -C30     -H69     : 106.581218  H71     -C30     -C29     : 111.266301
 H71     -C30     -H69     : 107.542332  H71     -C30     -H70     : 107.344035
 C34     -C31     -C24     : 110.688666  C35     -C31     -C24     : 111.565751
 C35     -C31     -C34     : 111.282710  H72     -C31     -C24     : 108.522451
 H72     -C31     -C34     : 107.357084  H72     -C31     -C35     : 107.231033
 H73     -C32     -C27     : 112.127873  H74     -C32     -C27     : 110.207715
 H74     -C32     -H73     : 106.586590  H75     -C32     -C27     : 111.750883
 H75     -C32     -H73     : 108.768914  H75     -C32     -H74     : 107.145656
 H76     -C33     -C29     : 111.611448  H77     -C33     -C29     : 110.830328
 H77     -C33     -H76     : 107.266702  H78     -C33     -C29     : 112.480500
 H78     -C33     -H76     : 106.808904  H78     -C33     -H77     : 107.574957
 H79     -C34     -C31     : 111.638318  H80     -C34     -C31     : 111.067305
 H80     -C34     -H79     : 107.514154  H81     -C34     -C31     : 110.884948
 H81     -C34     -H79     : 107.731203  H81     -C34     -H80     : 107.830307
 H82     -C35     -C31     : 111.881426  H83     -C35     -C31     : 110.884028
 H83     -C35     -H82     : 107.809837  H84     -C35     -C31     : 110.941254
 H84     -C35     -H82     : 107.333083  H84     -C35     -H83     : 107.808631
 
  torsional angles:
 
 P1      -C3      -C6      -C7      : 170.871113
 P1      -C3      -C6      -H37     : -69.602345
 P1      -C3      -C6      -H38     :  49.221721
 P1      -C3      -C10     -C9      :-171.731949
 P1      -C3      -C10     -H45     : -51.179313
 P1      -C3      -C10     -H46     :  67.018173
 P1      -C4      -C11     -C12     :-174.627310
 P1      -C4      -C11     -H48     : -52.402349
 P1      -C4      -C11     -H49     :  64.191607
 P1      -C4      -C15     -C14     : 177.272834
[...]
    C32      Z    -0.00000  -0.00052   0.00275   0.00002   0.00000   0.00003
    C33      X    -0.00046  -0.00064  -0.00011   0.00060  -0.00028   0.00001
    C33      Y    -0.00041   0.00014   0.00000   0.00056  -0.00033  -0.00004
    C33      Z     0.00034   0.00280   0.00025  -0.00062   0.00044   0.00007
    C34      X     0.00005  -0.00277   0.00014   0.00001   0.00001   0.00001
    C34      Y    -0.00001   0.00061   0.00007  -0.00000  -0.00001  -0.00002
    C34      Z     0.00002  -0.00061   0.00022  -0.00001  -0.00002  -0.00004
    C35      X     0.00006  -0.00353   0.00026   0.00002  -0.00001   0.00000
    C35      Y     0.00001  -0.00091   0.00011   0.00001  -0.00001  -0.00001
    C35      Z     0.00003  -0.00065   0.00017  -0.00002  -0.00001  -0.00003
    H36      X    -0.00019   0.00009   0.00018  -0.00016  -0.00018   0.00019
    H36      Y    -0.00058   0.00015   0.00039  -0.00083  -0.00071   0.00137
    H36      Z     0.00004  -0.00005  -0.00010   0.00010   0.00003  -0.00008
    H37      X    -0.00145   0.00007   0.00009  -0.00179  -0.00203   0.00399
    H37      Y    -0.00421   0.00029   0.00030  -0.00522  -0.00598   0.01179
    H37      Z     0.00056  -0.00004  -0.00003   0.00070   0.00083  -0.00169
    H38      X     0.01208   0.00004  -0.00054   0.01617   0.01944  -0.04116
    H38      Y    -0.00729  -0.00003   0.00032  -0.00970  -0.01155   0.02403
    H38      Z     0.01281   0.00002  -0.00062   0.01715   0.02051  -0.04256
    H39      X    -0.00017   0.00003   0.00003  -0.00018  -0.00018   0.00056
    H39      Y    -0.00050   0.00007   0.00008  -0.00051  -0.00044   0.00147
    H39      Z     0.00016  -0.00003  -0.00002   0.00018   0.00015  -0.00038
    H40      X    -0.00001  -0.00002  -0.00000  -0.00003  -0.00005   0.00024
    H40      Y    -0.00007   0.00014   0.00002  -0.00009  -0.00005  -0.00059
    H40      Z    -0.00007   0.00024   0.00002  -0.00007  -0.00002  -0.00101
    H41      X    -0.00001   0.00004   0.00001  -0.00001  -0.00002  -0.00001
    H41      Y    -0.00010   0.00015   0.00004  -0.00012  -0.00011   0.00022
    H41      Z     0.00003  -0.00003  -0.00001   0.00003   0.00004  -0.00009
    H42      X     0.00029  -0.00020  -0.00013   0.00031   0.00077  -0.00061
    H42      Y    -0.00001  -0.00001  -0.00000  -0.00002  -0.00001   0.00004
    H42      Z    -0.00009   0.00009   0.00004  -0.00007  -0.00022   0.00004
    H43      X     0.00003   0.00004   0.00004  -0.00004   0.00004   0.00003
    H43      Y     0.00012   0.00010   0.00006  -0.00009   0.00021   0.00000
    H43      Z    -0.00003  -0.00002  -0.00000   0.00002  -0.00005   0.00000
    H44      X     0.00018  -0.00015  -0.00025   0.00002   0.00034  -0.00006
    H44      Y    -0.00009   0.00008   0.00015  -0.00002  -0.00018   0.00004
    H44      Z     0.00013  -0.00014  -0.00023   0.00005   0.00032  -0.00018
    H45      X    -0.00005   0.00001   0.00005  -0.00004  -0.00007   0.00008
    H45      Y     0.00038   0.00020  -0.00044   0.00023   0.00065  -0.00157
    H45      Z     0.00062   0.00034  -0.00068   0.00037   0.00109  -0.00264
    H46      X    -0.00002   0.00010   0.00001   0.00003   0.00002  -0.00019
    H46      Y    -0.00017   0.00039   0.00016  -0.00001  -0.00002  -0.00048
    H46      Z     0.00006  -0.00010  -0.00002   0.00001   0.00001   0.00016
    H47      X    -0.00014   0.00001  -0.00001  -0.00028  -0.00033   0.00073
    H47      Y     0.00067  -0.00007  -0.00005   0.00094   0.00128  -0.00221
    H47      Z     0.00359  -0.00008  -0.00014   0.00583   0.00701  -0.01477
    H48      X     0.00042   0.00015  -0.00015   0.00020   0.00042  -0.00015
    H48      Y    -0.00007  -0.00004   0.00003  -0.00005  -0.00008   0.00007
    H48      Z    -0.00014  -0.00006   0.00006  -0.00007  -0.00016   0.00008
    H49      X     0.00001  -0.00003   0.00002   0.00003   0.00004  -0.00007
    H49      Y    -0.00011  -0.00002  -0.00002  -0.00018  -0.00022   0.00053
    H49      Z     0.00001  -0.00007  -0.00028  -0.00002   0.00011  -0.00021
    H50      X     0.00006  -0.00006  -0.00008   0.00006   0.00018  -0.00013
    H50      Y    -0.00019   0.00015   0.00019  -0.00009  -0.00041   0.00009
    H50      Z     0.00011  -0.00009  -0.00012   0.00008   0.00027  -0.00014
    H51      X    -0.00000   0.00002  -0.00000   0.00000  -0.00001  -0.00001
    H51      Y    -0.00001  -0.00001  -0.00003   0.00002   0.00006  -0.00025
    H51      Z    -0.00009  -0.00003  -0.00007  -0.00001   0.00004  -0.00053
    H52      X    -0.00012   0.00011   0.00006  -0.00009  -0.00025  -0.00011
    H52      Y    -0.00019   0.00017   0.00010  -0.00015  -0.00039  -0.00014
    H52      Z    -0.00003   0.00003   0.00002  -0.00002  -0.00007  -0.00003
    H53      X     0.00000  -0.00000   0.00000   0.00001   0.00001  -0.00001
    H53      Y     0.00002  -0.00004  -0.00001  -0.00001   0.00004  -0.00003
    H53      Z     0.00010  -0.00025  -0.00006  -0.00007   0.00023  -0.00049
    H54      X    -0.00038   0.00050   0.00002  -0.00020  -0.00074   0.00029
    H54      Y     0.00004  -0.00008  -0.00001   0.00003   0.00010  -0.00005
    H54      Z     0.00012  -0.00014  -0.00001   0.00009   0.00025  -0.00011
    H55      X     0.00003  -0.00001  -0.00000   0.00004   0.00008  -0.00014
    H55      Y     0.00003  -0.00005  -0.00001   0.00002   0.00016  -0.00051
    H55      Z     0.00008  -0.00020  -0.00003   0.00003   0.00048  -0.00158
    H56      X    -0.00004  -0.00009   0.00002  -0.00005  -0.00006   0.00011
    H56      Y     0.00017  -0.00002  -0.00004   0.00007   0.00021  -0.00027
    H56      Z     0.00077  -0.00031  -0.00012   0.00036   0.00111  -0.00162
    H57      X     0.00053  -0.00025  -0.00025   0.00023   0.00054  -0.00068
    H57      Y    -0.00082   0.00040   0.00043  -0.00032  -0.00075   0.00125
    H57      Z     0.00046  -0.00027  -0.00031   0.00005   0.00022  -0.00018
    H58      X    -0.02841  -0.00024   0.00041  -0.04279  -0.06130   0.15788
    H58      Y     0.14365   0.00145  -0.00189   0.21792   0.30851  -0.78757
    H58      Z     0.05018   0.00060  -0.00057   0.07646   0.10621  -0.26445
    H59      X    -0.08817  -0.00200   0.00010  -0.10245  -0.04311  -0.06234
    H59      Y    -0.14551  -0.00326   0.00022  -0.17285  -0.07903  -0.10133
    H59      Z    -0.51129  -0.01143   0.00070  -0.59879  -0.25918  -0.35959
    H60      X     0.22579   0.00286   0.00022  -0.04509  -0.24336  -0.06657
    H60      Y    -0.42789  -0.00535  -0.00041   0.08871   0.46009   0.12768
    H60      Z     0.40370   0.00515   0.00041  -0.07645  -0.43563  -0.11755
    H61      X    -0.10968  -0.00129  -0.00204   0.16135  -0.12248  -0.02334
    H61      Y     0.41147   0.00439   0.00776  -0.60623   0.46346   0.08880
    H61      Z     0.14397   0.00145   0.00268  -0.21399   0.16772   0.03268
    H62      X    -0.01295   0.81306   0.10684  -0.00240  -0.00126  -0.00231
    H62      Y     0.00170  -0.10636  -0.01386   0.00027   0.00021   0.00030
    H62      Z     0.00741  -0.46529  -0.05975   0.00127   0.00082   0.00141
    H63      X     0.00151   0.10549  -0.81543  -0.00639   0.00255   0.00170
    H63      Y     0.00027   0.02251  -0.16969  -0.00129   0.00050   0.00034
    H63      Z     0.00083   0.05910  -0.44768  -0.00364   0.00152   0.00101
    H64      X    -0.00011   0.00036  -0.00173   0.00003  -0.00006  -0.00010
    H64      Y    -0.00040   0.00083  -0.00182  -0.00039   0.00018   0.00023
    H64      Z    -0.00062   0.00118  -0.00037  -0.00061   0.00024   0.00037
    H65      X    -0.00011   0.00001   0.00003   0.00022  -0.00015  -0.00004
    H65      Y    -0.00099   0.00078  -0.00490   0.00133  -0.00081  -0.00003
    H65      Z    -0.00165   0.00087  -0.00593   0.00229  -0.00143  -0.00010
    H66      X    -0.00441   0.00034  -0.00549   0.00641  -0.00401  -0.00062
    H66      Y     0.00147  -0.00003   0.00138  -0.00207   0.00121   0.00014
    H66      Z    -0.00256   0.00019  -0.00342   0.00360  -0.00217  -0.00031
    H67      X    -0.00187  -0.00066  -0.00043   0.00206  -0.00057   0.00036
    H67      Y    -0.00051  -0.00015  -0.00051   0.00053  -0.00010   0.00016
    H67      Z     0.00129   0.00046   0.00046  -0.00142   0.00041  -0.00027
    H68      X     0.00022   0.00376   0.00037  -0.00059   0.00064   0.00023
    H68      Y    -0.00128  -0.00224   0.00000   0.00211  -0.00156  -0.00035
    H68      Z    -0.00277  -0.00833   0.00003   0.00473  -0.00378  -0.00097
    H69      X    -0.00011   0.01195   0.00115  -0.00021   0.00004   0.00002
    H69      Y     0.00023  -0.01195  -0.00123   0.00001   0.00008  -0.00001
    H69      Z     0.00053  -0.04819  -0.00488   0.00059  -0.00002   0.00001
    H70      X     0.00025  -0.00535   0.00003   0.00004  -0.00059  -0.00081
    H70      Y     0.00005  -0.00046   0.00010   0.00003  -0.00020  -0.00020
    H70      Z     0.00013  -0.00333   0.00001   0.00004  -0.00033  -0.00042
    H71      X    -0.00055   0.01461   0.00150   0.00040  -0.00063  -0.00009
    H71      Y     0.00079  -0.02095  -0.00216  -0.00063   0.00098   0.00023
    H71      Z    -0.00005   0.00117   0.00013   0.00003  -0.00007   0.00003
    H72      X    -0.00017   0.00601  -0.01668  -0.00008   0.00009   0.00018
    H72      Y    -0.00000   0.00001  -0.00098  -0.00000   0.00001   0.00001
    H72      Z    -0.00002  -0.00010  -0.00875  -0.00004   0.00004   0.00008
    H73      X     0.00003   0.00100  -0.00512  -0.00011   0.00008   0.00005
    H73      Y     0.00014   0.00409  -0.02382  -0.00033   0.00027   0.00011
    H73      Z     0.00020   0.00596  -0.03576  -0.00056   0.00044   0.00021
    H74      X    -0.00006  -0.00185   0.00637  -0.00004   0.00025   0.00060
    H74      Y    -0.00003  -0.00051   0.00237   0.00002   0.00002   0.00016
    H74      Z     0.00004   0.00174  -0.00655   0.00002  -0.00020  -0.00050
    H75      X    -0.00007  -0.00001   0.00010   0.00011  -0.00010  -0.00008
    H75      Y     0.00068   0.00133  -0.00768  -0.00091   0.00080   0.00032
    H75      Z    -0.00023  -0.00065   0.00367   0.00030  -0.00028  -0.00007
    H76      X     0.00030   0.00572   0.00054  -0.00067   0.00043   0.00004
    H76      Y    -0.00065  -0.00996  -0.00097   0.00124  -0.00079  -0.00005
    H76      Z    -0.00181  -0.02822  -0.00286   0.00369  -0.00250  -0.00021
    H77      X     0.00197  -0.00286   0.00023  -0.00164  -0.00023  -0.00066
    H77      Y     0.00036  -0.00129  -0.00004  -0.00030  -0.00005  -0.00009
    H77      Z     0.00107  -0.00139   0.00014  -0.00101   0.00011  -0.00028
    H78      X     0.00345   0.00558   0.00057  -0.00509   0.00333   0.00044
    H78      Y     0.00552   0.00884   0.00094  -0.00810   0.00512   0.00058
    H78      Z    -0.00363  -0.00571  -0.00057   0.00519  -0.00324  -0.00038
    H79      X    -0.00051   0.02932  -0.00287  -0.00009  -0.00003  -0.00005
    H79      Y    -0.00004   0.00250  -0.00052  -0.00001  -0.00000  -0.00000
    H79      Z    -0.00011   0.00668  -0.00021  -0.00002  -0.00002  -0.00004
    H80      X    -0.00001   0.00043  -0.00005   0.00000   0.00001   0.00003
    H80      Y    -0.00003   0.00103   0.00001   0.00001   0.00002   0.00005
    H80      Z    -0.00028   0.00375  -0.00366   0.00011   0.00026   0.00058
    H81      X    -0.00011   0.00519   0.00040  -0.00001  -0.00009  -0.00010
    H81      Y     0.00022  -0.01053  -0.00028   0.00002   0.00018   0.00021
    H81      Z     0.00008  -0.00330   0.00003   0.00000   0.00004   0.00002
    H82      X    -0.00063   0.03859  -0.00314  -0.00015  -0.00000  -0.00003
    H82      Y     0.00000  -0.00005   0.00029   0.00000  -0.00001  -0.00001
    H82      Z    -0.00014   0.00923  -0.00046  -0.00005  -0.00001  -0.00003
    H83      X    -0.00005   0.00552  -0.00027  -0.00010   0.00006  -0.00000
    H83      Y    -0.00009   0.01081  -0.00107  -0.00019   0.00010  -0.00002
    H83      Z     0.00008  -0.00679   0.00066   0.00010  -0.00007  -0.00002
    H84      X    -0.00003   0.00053   0.00000   0.00001   0.00000   0.00002
    H84      Y    -0.00005   0.00015  -0.00104   0.00002   0.00004   0.00009
    H84      Z    -0.00038   0.00633  -0.00364   0.00017   0.00017   0.00048
  
  Number of imaginary frequencies:   0
   
  Writing vibrational animation data to L1_PL146.vib
  Writing IR vibrational spectrum data to L1_PL146_vib.spm
  rotational symmetry number:  1

  rotational temperatures (K):      0.006168      0.004062      0.003777
   
  The Quasi-Harmonic approximation will be applied to compute
  vibrational constributions to thermodynamic properties.
  Frequencies will be adjusted to a minimum value of  100.00 cm^-1.

  vibrational temperatures:
       mode:      1        2        3        4        5        6
  temp. (K):   143.88   143.88   143.88   143.88   143.88   143.88
   
       mode:      7        8        9       10       11       12
  temp. (K):   143.88   143.88   143.88   143.88   143.88   143.88
   
       mode:     13       14       15       16       17       18
  temp. (K):   143.88   144.07   153.43   173.96   199.04   207.77
   
       mode:     19       20       21       22       23       24
  temp. (K):   213.74   222.87   240.88   267.70   283.92   290.99
   
       mode:     25       26       27       28       29       30
  temp. (K):   294.61   323.61   347.79   356.53   357.78   364.33
   
       mode:     31       32       33       34       35       36
  temp. (K):   370.28   372.97   388.76   395.71   399.12   401.54
   
       mode:     37       38       39       40       41       42
  temp. (K):   418.58   429.83   457.07   473.17   478.51   489.87
   
       mode:     43       44       45       46       47       48
  temp. (K):   517.57   536.29   554.02   564.02   595.70   618.89
   
       mode:     49       50       51       52       53       54
  temp. (K):   638.51   643.16   646.75   683.74   688.90   700.02
   
       mode:     55       56       57       58       59       60
  temp. (K):   711.75   727.90   755.21   766.64   779.48   810.86
   
       mode:     61       62       63       64       65       66
  temp. (K):   841.64   869.29   912.14   924.77   962.48   975.79
   
       mode:     67       68       69       70       71       72
  temp. (K):  1040.83  1067.33  1093.80  1104.56  1121.34  1141.82
   
       mode:     73       74       75       76       77       78
  temp. (K):  1160.38  1167.73  1205.46  1206.78  1213.07  1239.23
   
       mode:     79       80       81       82       83       84
  temp. (K):  1242.55  1254.98  1262.48  1285.49  1302.89  1304.61
   
       mode:     85       86       87       88       89       90
  temp. (K):  1309.82  1317.59  1318.70  1325.14  1353.63  1359.09
   
       mode:     91       92       93       94       95       96
  temp. (K):  1363.83  1366.55  1367.67  1384.11  1389.84  1410.71
   
       mode:     97       98       99      100      101      102
  temp. (K):  1413.04  1416.63  1419.14  1459.81  1461.41  1474.93
   
       mode:    103      104      105      106      107      108
  temp. (K):  1481.09  1524.27  1529.72  1533.45  1551.60  1552.72
   
       mode:    109      110      111      112      113      114
  temp. (K):  1566.02  1582.44  1589.29  1595.06  1597.44  1610.26
   
       mode:    115      116      117      118      119      120
  temp. (K):  1612.51  1630.93  1635.01  1643.62  1646.04  1648.70
   
       mode:    121      122      123      124      125      126
  temp. (K):  1652.64  1666.31  1674.24  1712.17  1738.92  1740.51
   
       mode:    127      128      129      130      131      132
  temp. (K):  1747.38  1751.83  1759.28  1763.67  1792.50  1814.98
   
       mode:    133      134      135      136      137      138
  temp. (K):  1837.36  1850.93  1869.19  1869.87  1879.44  1886.05
   
       mode:    139      140      141      142      143      144
  temp. (K):  1889.94  1893.15  1896.86  1912.72  1916.69  1931.57
   
       mode:    145      146      147      148      149      150
  temp. (K):  1934.60  1948.33  1954.86  1958.48  1964.04  1973.95
   
       mode:    151      152      153      154      155      156
  temp. (K):  1976.23  1989.13  1992.99  1995.16  2004.66  2007.78
   
       mode:    157      158      159      160      161      162
  temp. (K):  2012.52  2018.82  2019.70  2022.17  2023.77  2039.97
   
       mode:    163      164      165      166      167      168
  temp. (K):  2048.63  2049.65  2067.64  2073.89  2077.54  2097.93
   
       mode:    169      170      171      172      173      174
  temp. (K):  2118.77  2137.49  2159.90  2162.90  2168.04  2170.61
   
       mode:    175      176      177      178      179      180
  temp. (K):  2173.30  2173.99  2174.34  2175.39  2176.14  2178.06
   
       mode:    181      182      183      184      185      186
  temp. (K):  2181.41  2183.66  2184.56  2185.12  2187.18  2197.77
   
       mode:    187      188      189      190      191      192
  temp. (K):  2201.28  2202.14  2202.49  2204.17  2208.18  2211.00
   
       mode:    193      194      195      196      197      198
  temp. (K):  2212.57  2305.56  2334.77  2346.18  2382.00  4356.62
   
       mode:    199      200      201      202      203      204
  temp. (K):  4358.04  4358.80  4361.43  4362.59  4364.69  4365.06
   
       mode:    205      206      207      208      209      210
  temp. (K):  4367.46  4367.80  4370.90  4374.16  4375.00  4376.13
   
       mode:    211      212      213      214      215      216
  temp. (K):  4378.64  4380.07  4382.34  4386.12  4390.44  4395.88
   
       mode:    217      218      219      220      221      222
  temp. (K):  4424.78  4435.04  4435.78  4437.09  4442.54  4445.28
   
       mode:    223      224      225      226      227      228
  temp. (K):  4449.24  4452.45  4456.50  4459.89  4468.35  4480.19
   
       mode:    229      230      231      232      233      234
  temp. (K):  4481.28  4485.17  4491.70  4491.90  4492.35  4496.60
   
       mode:    235      236      237      238      239      240
  temp. (K):  4497.70  4499.29  4502.72  4506.56  4509.14  4527.54
   
       mode:    241      242      243      244      245      246
  temp. (K):  4578.27  4584.20  4589.65  4594.67  4612.73  4630.68
   
   
  Thermodynamic properties calculated assuming an ideal gas

  In the table below, the units for temperature
  are kelvins, the units for U, H, and G are
  kcal/mol and the units for Cv and S are cal/(mol K)

  The zero point energy (ZPE):    474.249 kcal/mol
  is not included in U, H, or G in the table below
  
 
  =============================================================================
  Thermodynamic properties for P = 1.00E+00 atm, calculated at   1 temperatures


  T =   298.15 K, P = 1.00E+00 atm
   
                  U         Cv          S          H          G        ln(Q)
              =========  =========  =========  =========  =========  =========
  trans.          0.889      2.981     44.969      1.481    -11.926   20.12950
  rot.            0.889      2.981     37.171      0.889    -10.194   17.20540
  vib.           21.003    139.244    127.725     21.003    -17.079   28.82541
  elec.           0.000      0.000      0.000      0.000      0.000    0.00000
  ----------------------------------------------------------------------------
  total          22.780    145.206    209.866     23.373    -39.199   66.16031
   
   Total internal energy, Utot(SCFE + ZPE + U):   -1754.072371 hartrees
   Total enthalpy, Htot (Utot + nRT), with n=1:   -1754.071427 hartrees
    Total Gibbs free energy, Gtot (Htot - T*S):   -1754.171142 hartrees
   
  end of program freq
   
 Time(freq)  user:       0.370  user+sys:       0.370  wallclock:       0.595
  
  start of program post
  
  Writing input files for PBF
  end of program post
   
 Time(post)  user:       0.162  user+sys:       0.162  wallclock:       0.116

 Total cpu seconds     user:   79274.102   user+sys:   79274.102
  
 Total elapsed time:    45664 seconds

Job L1_PL146 completed on bp1-compute089 at Fri Apr 18 17:31:38 2025
