Job L_Ar_OtBu_PL146 started on bp1-compute152 at Tue Nov 25 20:03:26 2025
jobid: bp1-compute152-0-69260b82

  +--------------------------------------------------------------------+
  |  Jaguar version 12.5, release 138                                  |
  |                                                                    |
  |  Copyright Schrodinger, Inc.                                       |
  |  All Rights Reserved.                                              |
  |                                                                    |
  |  The following have contributed to Jaguar (listed alphabetically): |
  |  Ty Balduf, Mike Beachy, Chandler Bennett, Art Bochevarov,         |
  |  Dale Braden, Yixiang Cao, Alan Chien, Chris Cortis,               |
  |  Rich Friesner, Jim Furness, Bill Goddard, Hod Greeley,            |
  |  Tom Hughes, Leif Jacobson, Jean-Marc Langlois, Daniel Levine,     |
  |  Rob Murphy, Dean Philipp, Tom Pollard, Murco Ringnalda,           |
  |  Daniel Mainz, Pablo Videla, Mark Watson, Haoyu Yu.                |
  |                                                                    |
  |  Use of this program should be acknowledged in publications as:    |
  |                                                                    |
  |  Jaguar, version 12.5, Schrodinger, Inc., New York, NY, 2024.      |
  |                                                                    |
  |  A. D. Bochevarov, E. Harder, T. F. Hughes, J. R. Greenwood,       |
  |  D. A. Braden, D. M. Philipp, D. Rinaldo, M. D. Halls,             |
  |  J. Zhang, R. A. Friesner, "Jaguar: A High-Performance Quantum     |
  |  Chemistry Software Program with Strengths in Life and Materials   |
  |  Sciences", Int. J. Quantum Chem., 2013, 113(18), 2110-2142.       |
  +--------------------------------------------------------------------+
  
  start of program pre
  
  Job name: L_Ar_OtBu_PL146
  Executables used: /software/local/apps/schrodinger2024-3/jaguar-v12.5/bin/Linux-x86_64
  Temporary files : /tmp/ar21627/L_Ar_OtBu_PL146#bp1-compute152-0-69260b82
  Basis file : using default basis file from /software/local/apps/schrodinger2024-3
  Maestro file (input):  L_Ar_OtBu_PL146.mae
  Maestro file (output): L_Ar_OtBu_PL146.01.mae
  
 Contents of input file: &gen and (if present) &atomic sections only
 ----------------Contents start----------------
&gen
dftname=b3pw91-d3
basis=6-31G*
numd=5
ip11=2
iaccg=3
isolv=2
igeopt=1
solvent=benzene
ifreq=1
&
&atomic
atom basis
Pd2 lacv3p*
&
 -----------------Contents end-----------------
 
  PS calculation requested. Using PS version of 6-31g*
  basis set:               non_standard                    
  net molecular charge:    0
  multiplicity:            1
  
  Using up to  18 threads per process
  
  This run will use ECP on 1 atom
  number of basis functions....          803
  
 Input geometry:
                                   angstroms
  atom               x                 y                 z
  P1            0.0000000000      0.0000000000      0.0000000000 
  Pd2           0.0000000000      0.0000000000      2.2804556556 
  C73           1.8455431001      4.3903735440      1.9883304743 
  C74           0.4919710731      4.1902864928      1.7573003085 
  C75          -0.0191326097      2.8952264827      1.8505197458 
  C76           0.8149083047      1.8165317394      2.1692075859 
  C77           2.1696938246      2.0551572510      2.4185863885 
  C78           2.6952543214      3.3466976167      2.3234099182 
  F79           2.3495610020      5.6400496497      1.8883566282 
  H80          -0.1434216726      5.0365853191      1.5107637374 
  H82           2.8301421354      1.2397310051      2.6988309271 
  H83           3.7459936274      3.5489115786      2.5135778257 
  H14          -1.0801742250      2.7423340102      1.6760201042 
  C3           -1.4257483730      0.9884048997     -0.7190227009 
  C4            1.5818925032      0.6681576090     -0.7106552039 
  C5           -0.1567504581     -1.7362641433     -0.5540097675 
  C6           -2.2097530311      0.3415023202     -1.8692230906 
  C7           -3.4734540464      1.1606026448     -2.1620882278 
  C8           -3.1376680052      2.6201921366     -2.4821816432 
  C9           -2.2985812315      3.2540856406     -1.3692620896 
  C10          -1.0368578425      2.4328990955     -1.0844237068 
  C11           2.6884439466     -0.3965218757     -0.6655332379 
  C12           4.0476058502      0.2350034061     -0.9839036798 
  C13           4.0304372871      0.9546769537     -2.3360465430 
  C14           2.8866124648      1.9709813923     -2.4141110298 
  C15           1.5381374568      1.3061936957     -2.1063274888 
  C16          -0.1164075359     -2.1193538436     -1.9052003901 
  C17          -0.2234803866     -3.4557622376     -2.2763720541 
  C18          -0.3875761247     -4.4353859784     -1.2966020567 
  C19          -0.4437273186     -4.0630587522      0.0428351758 
  C20          -0.3241595169     -2.7206812635      0.4362100546 
  C21          -0.4222650069     -2.4731036111      1.9178785078 
  C22           0.5673764194     -3.0414911029      2.7695235087 
  C23           0.2517151842     -3.2961906261      4.1008623098 
  C24          -0.9992020136     -2.9850687837      4.6374635252 
  C25          -1.9309734673     -2.3502327533      3.8152463438 
  C26          -1.6759871015     -2.0840031178      2.4703553658 
  C27          -2.7575754628     -1.4684384092      1.5969538814 
  C28          -3.8819394131     -2.4775233313      1.3325011587 
  C29           1.9435850758     -3.3924140790      2.2301775370 
  C30           2.9452468837     -3.6262579112      3.3691352680 
  C31          -1.3558523921     -3.3572493604      6.0638977266 
  C32          -3.2983273169     -0.1611970004      2.1860927529 
  C33           1.8914691858     -4.5967175591      1.2814631265 
  C34          -0.3742151920     -2.7885373417      7.0958436606 
  C35          -1.4681424194     -4.8844533236      6.1957185296 
  H36          -2.1030793091      1.0461235359      0.1456467997 
  H37          -1.5845438410      0.3049335799     -2.7729309564 
  H38          -2.4806737841     -0.6929346847     -1.6282116200 
  H39          -4.1330177665      1.1216794456     -1.2818070652 
  H40          -4.0288711526      0.7019956690     -2.9905602446 
  H41          -2.5717646863      2.6596211252     -3.4255279046 
  H42          -4.0581421412      3.1956582377     -2.6449057560 
  H43          -2.8921330999      3.3209637033     -0.4455386421 
  H44          -2.0174552019      4.2812188226     -1.6346487953 
  H45          -0.4630199955      2.9049951932     -0.2826088005 
  H46          -0.4013931028      2.4285135500     -1.9801186723 
  H47           1.8419617014      1.4489230592      0.0183222574 
  H48           2.7128060303     -0.8846098343      0.3152928963 
  H49           2.4620290187     -1.1810723205     -1.4020606828 
  H50           4.8290348301     -0.5352415493     -0.9676906880 
  H51           4.2988567931      0.9541765557     -0.1897160286 
  H52           4.9932153931      1.4490595448     -2.5181819248 
  H53           3.9020809916      0.2110102066     -3.1369354448 
  H54           2.8546664529      2.4351515471     -3.4082798803 
  H55           3.0623317895      2.7822676570     -1.6920804875 
  H56           1.3540195534      0.5251720693     -2.8553274638 
  H57           0.7240850121      2.0355585834     -2.1929308873 
  H58          -0.0149370243     -1.3681088891     -2.6802258919 
  H59          -0.1861588944     -3.7285855461     -3.3287412451 
  H60          -0.4786536886     -5.4831383353     -1.5744034512 
  H61          -0.5874006057     -4.8172793116      0.8132879817 
  H62           1.0077972394     -3.7430225922      4.7412233846 
  H63          -2.8912033272     -2.0632261848      4.2387293979 
  H64          -2.3060084522     -1.2235794137      0.6287530472 
  H65          -4.3717381213     -2.7702358420      2.2690928757 
  H66          -3.4884725195     -3.3833430631      0.8574193670 
  H67          -4.6428888491     -2.0449719492      0.6710540470 
  H68           2.2941292028     -2.5294480961      1.6530197070 
  H69           2.7286321215     -4.5541155110      3.9118106825 
  H70           3.9638347231     -3.7036879366      2.9696701263 
  H71           2.9107586428     -2.8093994941      4.0980390542 
  H72          -2.3455515550     -2.9288873918      6.2753591000 
  H73          -3.8483275918     -0.3276252373      3.1196237441 
  H74          -3.9828390099      0.3219325987      1.4778567563 
  H75          -2.4758344031      0.5276532823      2.4072603942 
  H76           1.5107036732     -5.4855010008      1.7995966256 
  H77           2.8933401257     -4.8313381305      0.8999431941 
  H78           1.2383354220     -4.3983219560      0.4244890156 
  H79           0.6355207718     -3.1944487435      6.9560985777 
  H92          -0.7008695827     -3.0502795550      8.1103348515 
  H81          -0.3070769414     -1.7002909410      7.0128666459 
  H94          -0.4992888623     -5.3622136521      6.0028166088 
  H95          -2.1924241231     -5.2942989224      5.4817407333 
  H84          -1.7855230731     -5.1639173045      7.2081565277 
  O3           -0.0327999077     -0.2657265772      4.3137415049 
  C105          0.4644875224      0.5808227558      5.3128822524 
  C106         -0.3708122586      0.2785419354      6.5684105024 
  C107          1.9401843581      0.2992697586      5.6555837729 
  C108          0.2770298389      2.0611501392      4.9502521490 
  H109         -0.0144728216      0.8393540763      7.4426340297 
  H110         -1.4123529958      0.5444312858      6.3833384778 
  H111         -0.3251466514     -0.7931591494      6.7940886678 
  H112          0.5786884214      2.7280447180      5.7699223577 
  H113          0.8722007921      2.3124932762      4.0658131902 
  H114         -0.7778155424      2.2444520796      4.7146055672 
  H115          2.2374995148      0.8191055790      6.5769206349 
  H116          2.0748346913     -0.7780324622      5.8041215146 
  H117          2.6127958773      0.6140497774      4.8564082705 
   
  principal moments of inertia:
        amu*angstrom^2:              6308.24875              8384.48420              9936.38743
                g*cm^2:          1.04750922E-36          1.39227618E-36          1.64997574E-36
   
  rotational constants:
               cm^(-1):      0.00267232      0.00201057      0.00169656
                   GHz:      0.08011399      0.06027550      0.05086144
   
  Molecular weight:     750.36 amu
   
  Stoichiometry: PdC43PH62OF
  Molecular Point Group: C1      
  Point Group used: C1
  
 
Number of optimization coordinates:   364
Number of independent coordinates:    364
Number of non-redundant coordinates:  321
Number of frozen coordinates:           0
Number of harmonic constraints:         0
 
Number of geometric degrees of freedom:   321
Maximum geometric degrees of freedom:     321
 " " " " " excluding dummy atoms:         321
 
 
  bond lengths (angstroms):
 
 P1      -Pd2     :   2.280456      P1      -C3      :   1.877950
 P1      -C4      :   1.858453      P1      -C5      :   1.829238
 Pd2     -C76     :   1.994051      Pd2     -O3      :   2.050838
 C73     -C74     :   1.387648      C73     -C78     :   1.386920
 C73     -F79     :   1.351192      C74     -C75     :   1.395384
 C74     -H80     :   1.086612      C75     -C76     :   1.400274
 C75     -H14     :   1.086110      C76     -C77     :   1.398061
 C77     -C78     :   1.397623      C77     -H82     :   1.086116
 C78     -H83     :   1.086788      C3      -C6      :   1.534962
 C3      -C10     :   1.539908      C3      -H36     :   1.099892
 C4      -C11     :   1.536240      C4      -C15     :   1.535222
 C4      -H47     :   1.099381      C5      -C16     :   1.405027
 C5      -C20     :   1.406285      C6      -C7      :   1.534156
 C6      -H37     :   1.099505      C6      -H38     :   1.096150
 C7      -C8      :   1.531540      C7      -H39     :   1.100652
 C7      -H40     :   1.097804      C8      -C9      :   1.531169
 C8      -H41     :   1.100774      C8      -H42     :   1.097685
 C9      -C10     :   1.532131      C9      -H43     :   1.100019
 C9      -H44     :   1.097481      C10     -H45     :   1.093193
 C10     -H46     :   1.098228      C11     -C12     :   1.532157
 C11     -H48     :   1.095830      C11     -H49     :   1.099662
 C12     -C13     :   1.531834      C12     -H50     :   1.097347
 C12     -H51     :   1.100487      C13     -C14     :   1.532091
 C13     -H52     :   1.097510      C13     -H53     :   1.100427
 C14     -C15     :   1.534620      C14     -H54     :   1.097655
 C14     -H55     :   1.100178      C15     -H56     :   1.097677
 C15     -H57     :   1.096428      C16     -C17     :   1.391122
 C16     -H58     :   1.084126      C17     -C18     :   1.395184
 C17     -H59     :   1.087799      C18     -C19     :   1.391356
 C18     -H60     :   1.087775      C19     -C20     :   1.403929
 C19     -H61     :   1.087699      C20     -C21     :   1.505411
 C21     -C22     :   1.423992      C21     -C26     :   1.424236
 C22     -C23     :   1.391753      C22     -C29     :   1.519207
 C23     -C24     :   1.396256      C23     -H62     :   1.086914
 C24     -C25     :   1.395441      C24     -C31     :   1.516718
 C25     -C26     :   1.394499      C25     -H63     :   1.088004
 C26     -C27     :   1.520389      C27     -C28     :   1.533748
 C27     -C32     :   1.532442      C27     -H64     :   1.096030
 C28     -H65     :   1.096717      C28     -H66     :   1.095914
 C28     -H67     :   1.097113      C29     -C30     :   1.534677
 C29     -C33     :   1.533989      C29     -H68     :   1.095766
 C30     -H69     :   1.096512      C30     -H70     :   1.096854
 C30     -H71     :   1.095330      C31     -C34     :   1.533609
 C31     -C35     :   1.536990      C31     -H72     :   1.098961
 C32     -H73     :   1.096211      C32     -H74     :   1.097073
 C32     -H75     :   1.095411      C33     -H76     :   1.096987
 C33     -H77     :   1.097429      C33     -H78     :   1.095604
 C34     -H79     :   1.097205      C34     -H92     :   1.097454
 C34     -H81     :   1.093468      C35     -H94     :   1.097335
 C35     -H95     :   1.096504      C35     -H84     :   1.097206
 O3      -C105    :   1.400794      C105    -C106    :   1.538002
 C105    -C107    :   1.540908      C105    -C108    :   1.535581
 C106    -H109    :   1.098069      C106    -H110    :   1.090759
 C106    -H111    :   1.096157      C107    -H115    :   1.098857
 C107    -H116    :   1.095798      C107    -H117    :   1.090951
 C108    -H112    :   1.098911      C108    -H113    :   1.095278
 C108    -H114    :   1.096279
 
  bond angles:
 
 C3      -P1      -Pd2     : 112.511966  C4      -P1      -Pd2     : 112.481843
 C4      -P1      -C3      : 108.094935  C5      -P1      -Pd2     : 107.629687
 C5      -P1      -C3      : 108.575456  C5      -P1      -C4      : 107.360184
 C76     -Pd2     -P1      :  86.801809  O3      -Pd2     -P1      : 172.498446
 O3      -Pd2     -C76     : 100.362967  C78     -C73     -C74     : 121.960449
 F79     -C73     -C74     : 119.005727  F79     -C73     -C78     : 119.033414
 C75     -C74     -C73     : 118.684688  H80     -C74     -C73     : 119.726417
 H80     -C74     -C75     : 121.588866  C76     -C75     -C74     : 120.796916
 H14     -C75     -C74     : 118.538151  H14     -C75     -C76     : 120.664003
 C75     -C76     -Pd2     : 118.102364  C77     -C76     -Pd2     : 122.789649
 C77     -C76     -C75     : 119.097737  C78     -C77     -C76     : 120.662483
 H82     -C77     -C76     : 120.473549  H82     -C77     -C78     : 118.861620
 C77     -C78     -C73     : 118.781107  H83     -C78     -C73     : 119.643208
 H83     -C78     -C77     : 121.573560  C6      -C3      -P1      : 116.927464
 C10     -C3      -P1      : 113.130774  C10     -C3      -C6      : 110.274230
 H36     -C3      -P1      : 101.195382  H36     -C3      -C6      : 107.257187
 H36     -C3      -C10     : 107.027772  C11     -C4      -P1      : 110.653322
 C15     -C4      -P1      : 118.215543  C15     -C4      -C11     : 109.588249
 H47     -C4      -P1      : 101.720038  H47     -C4      -C11     : 107.596992
 H47     -C4      -C15     : 108.324385  C16     -C5      -P1      : 123.202290
 C20     -C5      -P1      : 117.475951  C20     -C5      -C16     : 119.321744
 C7      -C6      -C3      : 109.801004  H37     -C6      -C3      : 109.845009
 H37     -C6      -C7      : 109.222659  H38     -C6      -C3      : 111.051087
 H38     -C6      -C7      : 110.013247  H38     -C6      -H37     : 106.850184
 C8      -C7      -C6      : 111.600211  H39     -C7      -C6      : 108.786986
 H39     -C7      -C8      : 109.404869  H40     -C7      -C6      : 109.740823
 H40     -C7      -C8      : 110.568279  H40     -C7      -H39     : 106.595426
 C9      -C8      -C7      : 111.271132  H41     -C8      -C7      : 109.023833
 H41     -C8      -C9      : 109.046643  H42     -C8      -C7      : 110.289044
 H42     -C8      -C9      : 110.502339  H42     -C8      -H41     : 106.575554
 C10     -C9      -C8      : 111.378219  H43     -C9      -C8      : 109.866566
 H43     -C9      -C10     : 108.712676  H44     -C9      -C8      : 110.613966
 H44     -C9      -C10     : 109.610860  H44     -C9      -H43     : 106.521615
 C9      -C10     -C3      : 109.810550  H45     -C10     -C3      : 111.322386
 H45     -C10     -C9      : 109.704621  H46     -C10     -C3      : 109.627823
 H46     -C10     -C9      : 109.088017  H46     -C10     -H45     : 107.228902
 C12     -C11     -C4      : 110.316646  H48     -C11     -C4      : 110.547696
 H48     -C11     -C12     : 110.478197  H49     -C11     -C4      : 109.054697
 H49     -C11     -C12     : 109.727202  H49     -C11     -H48     : 106.635981
 C13     -C12     -C11     : 111.538246  H50     -C12     -C11     : 109.835305
 H50     -C12     -C13     : 110.535692  H51     -C12     -C11     : 108.779997
 H51     -C12     -C13     : 109.423567  H51     -C12     -H50     : 106.586466
 C14     -C13     -C12     : 111.406996  H52     -C13     -C12     : 110.382439
 H52     -C13     -C14     : 110.344346  H53     -C13     -C12     : 109.040336
 H53     -C13     -C14     : 108.912351  H53     -C13     -H52     : 106.616338
 C15     -C14     -C13     : 111.004665  H54     -C14     -C13     : 110.388800
 H54     -C14     -C15     : 109.832060  H55     -C14     -C13     : 109.662391
 H55     -C14     -C15     : 109.157375  H55     -C14     -H54     : 106.691974
 C14     -C15     -C4      : 109.713707  H56     -C15     -C4      : 109.232256
 H56     -C15     -C14     : 108.588145  H57     -C15     -C4      : 111.680583
 H57     -C15     -C14     : 110.388883  H57     -C15     -H56     : 107.150690
 C17     -C16     -C5      : 121.085307  H58     -C16     -C5      : 120.082261
 H58     -C16     -C17     : 118.826430  C18     -C17     -C16     : 119.749735
 H59     -C17     -C16     : 119.763600  H59     -C17     -C18     : 120.485064
 C19     -C18     -C17     : 119.531273  H60     -C18     -C17     : 120.451963
 H60     -C18     -C19     : 120.015258  C20     -C19     -C18     : 121.477979
 H61     -C19     -C18     : 120.110908  H61     -C19     -C20     : 118.410568
 C19     -C20     -C5      : 118.826833  C21     -C20     -C5      : 125.850228
 C21     -C20     -C19     : 115.307407  C22     -C21     -C20     : 118.535420
 C26     -C21     -C20     : 118.952839  C26     -C21     -C22     : 119.263200
 C23     -C22     -C21     : 119.178213  C29     -C22     -C21     : 120.626238
 C29     -C22     -C23     : 120.185010  C24     -C23     -C22     : 122.009007
 H62     -C23     -C22     : 118.753478  H62     -C23     -C24     : 119.235300
 C25     -C24     -C23     : 118.238806  C31     -C24     -C23     : 121.159946
 C31     -C24     -C25     : 120.581589  C26     -C25     -C24     : 122.209379
 H63     -C25     -C24     : 118.683862  H63     -C25     -C26     : 119.104171
 C25     -C26     -C21     : 118.875873  C27     -C26     -C21     : 120.930063
 C27     -C26     -C25     : 120.082111  C28     -C27     -C26     : 110.743335
 C32     -C27     -C26     : 112.058601  C32     -C27     -C28     : 111.644131
 H64     -C27     -C26     : 107.747167  H64     -C27     -C28     : 107.259621
 H64     -C27     -C32     : 107.122485  H65     -C28     -C27     : 110.839317
 H66     -C28     -C27     : 110.814660  H66     -C28     -H65     : 108.056279
 H67     -C28     -C27     : 110.672132  H67     -C28     -H65     : 108.079675
 H67     -C28     -H66     : 108.272608  C30     -C29     -C22     : 111.282773
 C33     -C29     -C22     : 111.723959  C33     -C29     -C30     : 111.194796
 H68     -C29     -C22     : 107.149967  H68     -C29     -C30     : 107.583975
 H68     -C29     -C33     : 107.661970  H69     -C30     -C29     : 111.548978
 H70     -C30     -C29     : 110.278607  H70     -C30     -H69     : 107.695617
 H71     -C30     -C29     : 111.081041  H71     -C30     -H69     : 107.187095
 H71     -C30     -H70     : 108.919678  C34     -C31     -C24     : 113.036856
 C35     -C31     -C24     : 109.978221  C35     -C31     -C34     : 110.948230
 H72     -C31     -C24     : 107.282577  H72     -C31     -C34     : 107.603111
 H72     -C31     -C35     : 107.758695  H73     -C32     -C27     : 112.019764
 H74     -C32     -C27     : 110.343626  H74     -C32     -H73     : 107.672386
 H75     -C32     -C27     : 110.432634  H75     -C32     -H73     : 107.473021
 H75     -C32     -H74     : 108.777826  H76     -C33     -C29     : 110.839570
 H77     -C33     -C29     : 110.599598  H77     -C33     -H76     : 107.930680
 H78     -C33     -C29     : 111.213576  H78     -C33     -H76     : 108.013560
 H78     -C33     -H77     : 108.120537  H79     -C34     -C31     : 111.479233
 H92     -C34     -C31     : 110.063261  H92     -C34     -H79     : 107.663281
 H81     -C34     -C31     : 110.934511  H81     -C34     -H79     : 107.578609
 H81     -C34     -H92     : 109.013063  H94     -C35     -C31     : 110.672711
 H95     -C35     -C31     : 111.334202  H95     -C35     -H94     : 107.818247
 H84     -C35     -C31     : 110.692717  H84     -C35     -H94     : 107.861084
 H84     -C35     -H95     : 108.334443  C105    -O3      -Pd2     : 128.548852
 C106    -C105    -O3      : 105.705021  C107    -C105    -O3      : 112.841871
 C107    -C105    -C106    : 107.617180  C108    -C105    -O3      : 111.765779
 C108    -C105    -C106    : 108.418066  C108    -C105    -C107    : 110.216880
 H109    -C106    -C105    : 111.919221  H110    -C106    -C105    : 109.401162
 H110    -C106    -H109    : 108.690658  H111    -C106    -C105    : 109.730673
 H111    -C106    -H109    : 108.777906  H111    -C106    -H110    : 108.242487
 H115    -C107    -C105    : 111.048107  H116    -C107    -C105    : 109.114701
 H116    -C107    -H115    : 108.553124  H117    -C107    -C105    : 112.012146
 H117    -C107    -H115    : 108.113053  H117    -C107    -H116    : 107.890948
 H112    -C108    -C105    : 112.047636  H113    -C108    -C105    : 110.217128
 H113    -C108    -H112    : 108.293231  H114    -C108    -C105    : 109.233007
 H114    -C108    -H112    : 108.843958  H114    -C108    -H113    : 108.114458
 
  torsional angles:
 
 P1      -Pd2     -C76     -C75     :  76.787070
 P1      -Pd2     -C76     -C77     :-104.389358
 P1      -Pd2     -O3      -C105    : 159.154936
 P1      -C3      -C6      -C7      : 169.973315
 P1      -C3      -C6      -H37     : -69.896583
 P1      -C3      -C6      -H38     :  48.080523
 P1      -C3      -C10     -C9      :-167.708213
 P1      -C3      -C10     -H45     : -46.018102
 P1      -C3      -C10     -H46     :  72.456814
 P1      -C4      -C11     -C12     :-168.618673
 P1      -C4      -C11     -H48     : -46.126447
 P1      -C4      -C11     -H49     :  70.805430
 P1      -C4      -C15     -C14     : 171.725958
 P1      -C4      -C15     -H56     : -69.351251
 P1      -C4      -C15     -H57     :  48.994183
 P1      -C5      -C16     -C17     : 179.191283
 P1      -C5      -C16     -H58     :  -1.710385
 P1      -C5      -C20     -C19     :-179.827722
 P1      -C5      -C20     -C21     :   1.677597
 Pd2     -P1      -C3      -C6      :-134.368151
 Pd2     -P1      -C3      -C10     :  95.869885
 Pd2     -P1      -C3      -H36     : -18.282028
 Pd2     -P1      -C4      -C11     :  79.049342
 Pd2     -P1      -C4      -C15     :-153.444793
 Pd2     -P1      -C4      -H47     : -35.039995
 Pd2     -P1      -C5      -C16     :-176.360667
 Pd2     -P1      -C5      -C20     :   3.594298
 Pd2     -C76     -C75     -C74     :-179.976081
 Pd2     -C76     -C75     -H14     :   0.379823
 Pd2     -C76     -C77     -C78     : 179.783828
 Pd2     -C76     -C77     -H82     :  -0.779874
 Pd2     -O3      -C105    -C106    : 153.677545
 Pd2     -O3      -C105    -C107    : -88.962114
 Pd2     -O3      -C105    -C108    :  35.924279
 C73     -C74     -C75     -C76     :  -0.070835
 C73     -C74     -C75     -H14     : 179.580686
 C73     -C78     -C77     -C76     :   0.562370
 C73     -C78     -C77     -H82     :-178.882891
 C74     -C73     -C78     -C77     :   0.562796
 C74     -C73     -C78     -H83     :-178.915274
 C74     -C75     -C76     -C77     :   1.155741
 C75     -C74     -C73     -C78     :  -0.805644
 C75     -C74     -C73     -F79     : 179.429622
 C75     -C76     -Pd2     -O3      :-105.452559
 C75     -C76     -C77     -C78     :  -1.403798
 C75     -C76     -C77     -H82     : 178.032500
 C76     -Pd2     -P1      -C3      : -79.429558
 C76     -Pd2     -P1      -C4      :  42.940519
 C76     -Pd2     -P1      -C5      : 160.997372
 C76     -Pd2     -O3      -C105    :  -3.455462
 C76     -C75     -C74     -H80     : 179.991853
 C76     -C77     -C78     -H83     :-179.970069
 C77     -C76     -Pd2     -O3      :  73.371013
 C77     -C76     -C75     -H14     :-178.488355
 C77     -C78     -C73     -F79     :-179.672533
 C78     -C73     -C74     -H80     : 179.132865
 F79     -C73     -C74     -H80     :  -0.631869
 F79     -C73     -C78     -H83     :   0.849397
 H80     -C74     -C75     -H14     :  -0.356627
 H82     -C77     -C78     -H83     :   0.584670
 C3      -P1      -Pd2     -O3      : 117.695066
 C3      -P1      -C4      -C11     :-156.120085
 C3      -P1      -C4      -C15     : -28.614220
 C3      -P1      -C4      -H47     :  89.790578
 C3      -P1      -C5      -C16     :  61.591964
 C3      -P1      -C5      -C20     :-118.453071
 C3      -C6      -C7      -C8      :  56.587308
 C3      -C6      -C7      -H39     : -64.218532
 C3      -C6      -C7      -H40     : 179.511867
 C3      -C10     -C9      -C8      : -56.948860
 C3      -C10     -C9      -H43     :  64.243030
 C3      -C10     -C9      -H44     :-179.689769
 C4      -P1      -Pd2     -O3      :-119.934857
 C4      -P1      -C3      -C6      : 100.819211
 C4      -P1      -C3      -C10     : -28.942753
 C4      -P1      -C3      -H36     :-143.094665
 C4      -P1      -C5      -C16     : -55.046453
 C4      -P1      -C5      -C20     : 124.908512
 C4      -C11     -C12     -C13     : -56.057047
 C4      -C11     -C12     -H50     :-178.964151
 C4      -C11     -C12     -H51     :  64.728344
 C4      -C15     -C14     -C13     :  58.116545
 C4      -C15     -C14     -H54     :-179.526568
 C4      -C15     -C14     -H55     : -62.877262
 C5      -P1      -Pd2     -O3      :  -1.878004
 C5      -P1      -C3      -C6      : -15.346081
 C5      -P1      -C3      -C10     :-145.108046
 C5      -P1      -C3      -H36     : 100.740042
 C5      -P1      -C4      -C11     : -39.166362
 C5      -P1      -C4      -C15     :  88.339503
 C5      -P1      -C4      -H47     :-153.255699
 C5      -C16     -C17     -C18     :   0.666117
 C5      -C16     -C17     -H59     :-179.792017
 C5      -C20     -C19     -C18     :   0.604027
 C5      -C20     -C19     -H61     :-179.127706
 C5      -C20     -C21     -C22     :-118.339707
 C5      -C20     -C21     -C26     :  82.153618
 C6      -C3      -C10     -C9      :  59.231168
 C6      -C3      -C10     -H45     :-179.078720
 C6      -C3      -C10     -H46     : -60.603804
 C6      -C7      -C8      -C9      : -54.538689
 C6      -C7      -C8      -H41     :  65.769813
 C6      -C7      -C8      -H42     :-177.538481
 C7      -C6      -C3      -C10     : -58.930033
 C7      -C6      -C3      -H36     :  57.278817
 C7      -C8      -C9      -C10     :  54.707843
 C7      -C8      -C9      -H43     : -65.808010
 C7      -C8      -C9      -H44     : 176.871082
 C8      -C7      -C6      -H37     : -63.920364
 C8      -C7      -C6      -H38     : 179.097318
 C8      -C9      -C10     -H45     :-179.601271
 C8      -C9      -C10     -H46     :  63.214608
 C9      -C8      -C7      -H39     :  65.905805
 C9      -C8      -C7      -H40     :-176.989963
 C9      -C10     -C3      -H36     : -57.120984
 C10     -C3      -C6      -H37     :  61.200069
 C10     -C3      -C6      -H38     : 179.177175
 C10     -C9      -C8      -H41     : -65.587193
 C10     -C9      -C8      -H42     : 177.585227
 C11     -C4      -C15     -C14     : -60.264357
 C11     -C4      -C15     -H56     :  58.658434
 C11     -C4      -C15     -H57     : 177.003868
 C11     -C12     -C13     -C14     :  53.733786
 C11     -C12     -C13     -H52     : 176.691913
 C11     -C12     -C13     -H53     : -66.503761
 C12     -C11     -C4      -C15     :  59.280736
 C12     -C11     -C4      -H47     : -58.297162
 C12     -C13     -C14     -C15     : -54.757312
 C12     -C13     -C14     -H54     :-176.790422
 C12     -C13     -C14     -H55     :  65.938523
 C13     -C12     -C11     -H48     :-178.590069
 C13     -C12     -C11     -H49     :  64.114970
 C13     -C14     -C15     -H56     : -61.202351
 C13     -C14     -C15     -H57     :-178.390033
 C14     -C13     -C12     -H50     : 176.239906
 C14     -C13     -C12     -H51     : -66.674689
 C14     -C15     -C4      -H47     :  56.857673
 C15     -C4      -C11     -H48     :-178.227037
 C15     -C4      -C11     -H49     : -61.295161
 C15     -C14     -C13     -H52     :-177.737237
 C15     -C14     -C13     -H53     :  65.555623
 C16     -C5      -C20     -C19     :   0.129058
 C16     -C5      -C20     -C21     :-178.365623
 C16     -C17     -C18     -C19     :   0.068393
 C16     -C17     -C18     -H60     : 179.622120
 C17     -C16     -C5      -C20     :  -0.762891
 C17     -C18     -C19     -C20     :  -0.707825
 C17     -C18     -C19     -H61     : 179.019409
 C18     -C17     -C16     -H58     :-178.443309
 C18     -C19     -C20     -C21     : 179.254389
 C19     -C18     -C17     -H59     :-179.470113
 C19     -C20     -C21     -C22     :  63.119067
 C19     -C20     -C21     -C26     : -96.387608
 C20     -C5      -C16     -H58     : 178.335442
 C20     -C19     -C18     -H60     : 179.736470
 C20     -C21     -C22     -C23     :-154.669312
 C20     -C21     -C22     -C29     :  24.152004
 C20     -C21     -C26     -C25     : 155.271147
 C20     -C21     -C26     -C27     : -20.884904
 C21     -C20     -C19     -H61     :  -0.477344
 C21     -C22     -C23     -C24     :  -1.394027
 C21     -C22     -C23     -H62     : 179.151840
 C21     -C22     -C29     -C30     : 164.689864
 C21     -C22     -C29     -C33     : -70.359579
 C21     -C22     -C29     -H68     :  47.334338
 C21     -C26     -C25     -C24     :  -0.008895
 C21     -C26     -C25     -H63     :-179.415654
 C21     -C26     -C27     -C28     : 105.667941
 C21     -C26     -C27     -C32     :-128.949912
 C21     -C26     -C27     -H64     : -11.354160
 C22     -C21     -C26     -C25     :  -4.084771
 C22     -C21     -C26     -C27     : 179.759178
 C22     -C23     -C24     -C25     :  -2.651488
 C22     -C23     -C24     -C31     : 175.744582
 C22     -C29     -C30     -H69     :  70.274617
 C22     -C29     -C30     -H70     :-170.101369
 C22     -C29     -C30     -H71     : -49.244578
 C22     -C29     -C33     -H76     : -60.567034
 C22     -C29     -C33     -H77     : 179.763672
 C22     -C29     -C33     -H78     :  59.611110
 C23     -C22     -C21     -C26     :   4.772667
 C23     -C22     -C29     -C30     : -16.500687
 C23     -C22     -C29     -C33     : 108.449871
 C23     -C22     -C29     -H68     :-133.856212
 C23     -C24     -C25     -C26     :   3.371645
 C23     -C24     -C25     -H63     :-177.219199
 C23     -C24     -C31     -C34     :  56.494394
 C23     -C24     -C31     -C35     : -68.114549
 C23     -C24     -C31     -H72     : 174.949583
 C24     -C23     -C22     -C29     : 179.779342
 C24     -C25     -C26     -C27     : 176.180578
 C24     -C31     -C34     -H79     : -63.005986
 C24     -C31     -C34     -H92     : 177.597857
 C24     -C31     -C34     -H81     :  56.863362
 C24     -C31     -C35     -H94     :  63.908767
 C24     -C31     -C35     -H95     : -55.991363
 C24     -C31     -C35     -H84     :-176.556701
 C25     -C24     -C23     -H62     : 176.800095
 C25     -C24     -C31     -C34     :-125.146952
 C25     -C24     -C31     -C35     : 110.244105
 C25     -C24     -C31     -H72     :  -6.691762
 C25     -C26     -C27     -C28     : -70.442017
 C25     -C26     -C27     -C32     :  54.940130
 C25     -C26     -C27     -H64     : 172.535882
 C26     -C21     -C22     -C29     :-176.406017
 C26     -C25     -C24     -C31     :-175.034077
 C26     -C27     -C28     -H65     :  62.250771
 C26     -C27     -C28     -H66     : -57.716804
 C26     -C27     -C28     -H67     :-177.845977
 C26     -C27     -C32     -H73     : -67.083737
 C26     -C27     -C32     -H74     : 172.969347
 C26     -C27     -C32     -H75     :  52.671492
 C27     -C26     -C25     -H63     :  -3.226181
 C28     -C27     -C32     -H73     :  57.802050
 C28     -C27     -C32     -H74     : -62.144866
 C28     -C27     -C32     -H75     : 177.557279
 C29     -C22     -C23     -H62     :   0.325209
 C30     -C29     -C33     -H76     :  64.432401
 C30     -C29     -C33     -H77     : -55.236893
 C30     -C29     -C33     -H78     :-175.389455
 C31     -C24     -C23     -H62     :  -4.803834
 C31     -C24     -C25     -H63     :   4.375078
 C32     -C27     -C28     -H65     : -63.364403
 C32     -C27     -C28     -H66     : 176.668022
 C32     -C27     -C28     -H67     :  56.538849
 C33     -C29     -C30     -H69     : -54.971925
 C33     -C29     -C30     -H70     :  64.652089
 C33     -C29     -C30     -H71     :-174.491120
 C34     -C31     -C35     -H94     : -61.895765
 C34     -C31     -C35     -H95     : 178.204104
 C34     -C31     -C35     -H84     :  57.638767
 C35     -C31     -C34     -H79     :  61.073207
 C35     -C31     -C34     -H92     : -58.322950
 C35     -C31     -C34     -H81     :-179.057445
 H36     -C3      -C6      -H37     : 177.408919
 H36     -C3      -C6      -H38     : -64.613976
 H36     -C3      -C10     -H45     :  64.569128
 H36     -C3      -C10     -H46     :-176.955956
 H37     -C6      -C7      -H39     : 175.273797
 H37     -C6      -C7      -H40     :  59.004196
 H38     -C6      -C7      -H39     :  58.291478
 H38     -C6      -C7      -H40     : -57.978123
 H39     -C7      -C8      -H41     :-173.785693
 H39     -C7      -C8      -H42     : -57.093986
 H40     -C7      -C8      -H41     : -56.681461
 H40     -C7      -C8      -H42     :  60.010246
 H41     -C8      -C9      -H43     : 173.896954
 H41     -C8      -C9      -H44     :  56.576046
 H42     -C8      -C9      -H43     :  57.069374
 H42     -C8      -C9      -H44     : -60.251534
 H43     -C9      -C10     -H45     : -58.409381
 H43     -C9      -C10     -H46     :-175.593502
 H44     -C9      -C10     -H45     :  57.657820
 H44     -C9      -C10     -H46     : -59.526301
 H47     -C4      -C11     -H48     :  64.195064
 H47     -C4      -C11     -H49     :-178.873059
 H47     -C4      -C15     -H56     : 175.780464
 H47     -C4      -C15     -H57     : -65.874102
 H48     -C11     -C12     -H50     :  58.502826
 H48     -C11     -C12     -H51     : -57.804679
 H49     -C11     -C12     -H50     : -58.792135
 H49     -C11     -C12     -H51     :-175.099640
 H50     -C12     -C13     -H52     : -60.801967
 H50     -C12     -C13     -H53     :  56.002358
 H51     -C12     -C13     -H52     :  56.283438
 H51     -C12     -C13     -H53     : 173.087764
 H52     -C13     -C14     -H54     :  60.229654
 H52     -C13     -C14     -H55     : -57.041402
 H53     -C13     -C14     -H54     : -56.477486
 H53     -C13     -C14     -H55     :-173.748542
 H54     -C14     -C15     -H56     :  61.154536
 H54     -C14     -C15     -H57     : -56.033147
 H55     -C14     -C15     -H56     : 177.803842
 H55     -C14     -C15     -H57     :  60.616159
 H58     -C16     -C17     -H59     :   1.098557
 H59     -C17     -C18     -H60     :   0.083613
 H60     -C18     -C19     -H61     :  -0.536295
 H64     -C27     -C28     -H65     : 179.572407
 H64     -C27     -C28     -H66     :  59.604832
 H64     -C27     -C28     -H67     : -60.524341
 H64     -C27     -C32     -H73     : 174.948134
 H64     -C27     -C32     -H74     :  55.001217
 H64     -C27     -C32     -H75     : -65.296637
 H68     -C29     -C30     -H69     :-172.633703
 H68     -C29     -C30     -H70     : -53.009688
 H68     -C29     -C30     -H71     :  67.847103
 H68     -C29     -C33     -H76     :-177.953137
 H68     -C29     -C33     -H77     :  62.377569
 H68     -C29     -C33     -H78     : -57.774993
 H72     -C31     -C34     -H79     : 178.725385
 H72     -C31     -C34     -H92     :  59.329228
 H72     -C31     -C34     -H81     : -61.405267
 H72     -C31     -C35     -H94     :-179.453094
 H72     -C31     -C35     -H95     :  60.646776
 H72     -C31     -C35     -H84     : -59.918561
 O3      -C105    -C106    -H109    : 175.794383
 O3      -C105    -C106    -H110    : -63.679101
 O3      -C105    -C106    -H111    :  54.934236
 O3      -C105    -C107    -H115    :-167.768189
 O3      -C105    -C107    -H116    : -48.151558
 O3      -C105    -C107    -H117    :  71.241942
 O3      -C105    -C108    -H112    : 174.640472
 O3      -C105    -C108    -H113    : -64.694059
 O3      -C105    -C108    -H114    :  53.952009
 C106    -C105    -C107    -H115    : -51.541110
 C106    -C105    -C107    -H116    :  68.075521
 C106    -C105    -C107    -H117    :-172.530979
 C106    -C105    -C108    -H112    :  58.526247
 C106    -C105    -C108    -H113    : 179.191716
 C106    -C105    -C108    -H114    : -62.162215
 C107    -C105    -C106    -H109    :  54.972245
 C107    -C105    -C106    -H110    : 175.498761
 C107    -C105    -C106    -H111    : -65.887901
 C107    -C105    -C108    -H112    : -59.026999
 C107    -C105    -C108    -H113    :  61.638470
 C107    -C105    -C108    -H114    :-179.715462
 C108    -C105    -C106    -H109    : -64.230444
 C108    -C105    -C106    -H110    :  56.296072
 C108    -C105    -C106    -H111    : 174.909409
 C108    -C105    -C107    -H115    :  66.506211
 C108    -C105    -C107    -H116    :-173.877158
 C108    -C105    -C107    -H117    : -54.483659
 
  nuclear repulsion energy.......          7645.095759304 hartrees
  
  Detected an organometallic with only one TM atom. 
  
  Oxidation state on metal       2 is     2
  Formal multiplet on metal      2 is     1
  Formal charge on ligand        3 is    -1
  Formal multiplet on ligand     3 is     1
  Formal charge on ligand        4 is    -1
  Formal multiplet on ligand     4 is     1
  
 
  Will use High-Quality Initial guess for organometallics
       including d-d repulsion (iguess=30)
 
 Non-default options chosen:
   SCF calculation type: DFT(b3pw91-d3)              
   DFT=Becke_3_Parameter/HF+Slater+Becke88+PW91+PW-GGAIIC (B3PW91-D3)
   Geometry will be optimized in redundant internal coordinates
   Solvation energy will be computed using PBF
     -solute cavity energy will not be included
     -surface area terms will not be included
   Vibrational frequencies and related properties will be computed
      from analytic second derivatives
   IR intensities will be computed
   Thermochemical properties will be computed
   Maximum number of geometry steps: 100
   Scaling standard convergence criteria by a factor of   5.00
   Solvent: benzene                                                         
   Internal dielectric constant:    1.000
   Continuum dielectric constant:   2.283
   Solvent probe molecule radius:   2.600
  
 Non-default print settings:
     11=  2
  
 Temporary integer options set:
     21= -1  73=  2
  
  atom       vdw   vdw2    cov     mass  grid  daf  charge   basis
  P1        2.147  2.074  1.060   30.974    Y    Y      Y    ps_6-31g*
  Pd2       1.450  1.450  1.280  105.903    Y    Y      Y    lacv3p*
  C73       1.949  1.900  0.770   12.000    Y    Y      Y    ps_6-31g*
  C74       1.949  1.900  0.770   12.000    Y    Y      Y    ps_6-31g*
  C75       1.949  1.900  0.770   12.000    Y    Y      Y    ps_6-31g*
  C76       1.949  1.900  0.770   12.000    Y    Y      Y    ps_6-31g*
  C77       1.949  1.900  0.770   12.000    Y    Y      Y    ps_6-31g*
  C78       1.949  1.900  0.770   12.000    Y    Y      Y    ps_6-31g*
  F79       1.736  1.682  0.720   18.998    Y    Y      Y    ps_6-31g*
  H80       1.597  1.150  0.320    1.008    Y    Y      Y    ps_6-31g*
  H82       1.597  1.150  0.320    1.008    Y    Y      Y    ps_6-31g*
  H83       1.597  1.150  0.320    1.008    Y    Y      Y    ps_6-31g*
  H14       1.597  1.150  0.320    1.008    Y    Y      Y    ps_6-31g*
  C3        1.949  1.900  0.770   12.000    Y    Y      Y    ps_6-31g*
  C4        1.949  1.900  0.770   12.000    Y    Y      Y    ps_6-31g*
  C5        1.949  1.900  0.770   12.000    Y    Y      Y    ps_6-31g*
  C6        1.949  1.900  0.770   12.000    Y    Y      Y    ps_6-31g*
  C7        1.949  1.900  0.770   12.000    Y    Y      Y    ps_6-31g*
  C8        1.949  1.900  0.770   12.000    Y    Y      Y    ps_6-31g*
  C9        1.949  1.900  0.770   12.000    Y    Y      Y    ps_6-31g*
  C10       1.949  1.900  0.770   12.000    Y    Y      Y    ps_6-31g*
  C11       1.949  1.900  0.770   12.000    Y    Y      Y    ps_6-31g*
  C12       1.949  1.900  0.770   12.000    Y    Y      Y    ps_6-31g*
  C13       1.949  1.900  0.770   12.000    Y    Y      Y    ps_6-31g*
  C14       1.949  1.900  0.770   12.000    Y    Y      Y    ps_6-31g*
  C15       1.949  1.900  0.770   12.000    Y    Y      Y    ps_6-31g*
  C16       1.949  1.900  0.770   12.000    Y    Y      Y    ps_6-31g*
  C17       1.949  1.900  0.770   12.000    Y    Y      Y    ps_6-31g*
  C18       1.949  1.900  0.770   12.000    Y    Y      Y    ps_6-31g*
  C19       1.949  1.900  0.770   12.000    Y    Y      Y    ps_6-31g*
  C20       1.949  1.900  0.770   12.000    Y    Y      Y    ps_6-31g*
  C21       1.949  1.900  0.770   12.000    Y    Y      Y    ps_6-31g*
  C22       1.949  1.900  0.770   12.000    Y    Y      Y    ps_6-31g*
  C23       1.949  1.900  0.770   12.000    Y    Y      Y    ps_6-31g*
  C24       1.949  1.900  0.770   12.000    Y    Y      Y    ps_6-31g*
  C25       1.949  1.900  0.770   12.000    Y    Y      Y    ps_6-31g*
  C26       1.949  1.900  0.770   12.000    Y    Y      Y    ps_6-31g*
  C27       1.949  1.900  0.770   12.000    Y    Y      Y    ps_6-31g*
  C28       1.949  1.900  0.770   12.000    Y    Y      Y    ps_6-31g*
  C29       1.949  1.900  0.770   12.000    Y    Y      Y    ps_6-31g*
  C30       1.949  1.900  0.770   12.000    Y    Y      Y    ps_6-31g*
  C31       1.949  1.900  0.770   12.000    Y    Y      Y    ps_6-31g*
  C32       1.949  1.900  0.770   12.000    Y    Y      Y    ps_6-31g*
  C33       1.949  1.900  0.770   12.000    Y    Y      Y    ps_6-31g*
  C34       1.949  1.900  0.770   12.000    Y    Y      Y    ps_6-31g*
  C35       1.949  1.900  0.770   12.000    Y    Y      Y    ps_6-31g*
  H36       1.597  1.150  0.320    1.008    Y    Y      Y    ps_6-31g*
  H37       1.597  1.150  0.320    1.008    Y    Y      Y    ps_6-31g*
  H38       1.597  1.150  0.320    1.008    Y    Y      Y    ps_6-31g*
  H39       1.597  1.150  0.320    1.008    Y    Y      Y    ps_6-31g*
  H40       1.597  1.150  0.320    1.008    Y    Y      Y    ps_6-31g*
  H41       1.597  1.150  0.320    1.008    Y    Y      Y    ps_6-31g*
  H42       1.597  1.150  0.320    1.008    Y    Y      Y    ps_6-31g*
  H43       1.597  1.150  0.320    1.008    Y    Y      Y    ps_6-31g*
  H44       1.597  1.150  0.320    1.008    Y    Y      Y    ps_6-31g*
  H45       1.597  1.150  0.320    1.008    Y    Y      Y    ps_6-31g*
  H46       1.597  1.150  0.320    1.008    Y    Y      Y    ps_6-31g*
  H47       1.597  1.150  0.320    1.008    Y    Y      Y    ps_6-31g*
  H48       1.597  1.150  0.320    1.008    Y    Y      Y    ps_6-31g*
  H49       1.597  1.150  0.320    1.008    Y    Y      Y    ps_6-31g*
  H50       1.597  1.150  0.320    1.008    Y    Y      Y    ps_6-31g*
  H51       1.597  1.150  0.320    1.008    Y    Y      Y    ps_6-31g*
  H52       1.597  1.150  0.320    1.008    Y    Y      Y    ps_6-31g*
  H53       1.597  1.150  0.320    1.008    Y    Y      Y    ps_6-31g*
  H54       1.597  1.150  0.320    1.008    Y    Y      Y    ps_6-31g*
  H55       1.597  1.150  0.320    1.008    Y    Y      Y    ps_6-31g*
  H56       1.597  1.150  0.320    1.008    Y    Y      Y    ps_6-31g*
  H57       1.597  1.150  0.320    1.008    Y    Y      Y    ps_6-31g*
  H58       1.597  1.150  0.320    1.008    Y    Y      Y    ps_6-31g*
  H59       1.597  1.150  0.320    1.008    Y    Y      Y    ps_6-31g*
  H60       1.597  1.150  0.320    1.008    Y    Y      Y    ps_6-31g*
  H61       1.597  1.150  0.320    1.008    Y    Y      Y    ps_6-31g*
  H62       1.597  1.150  0.320    1.008    Y    Y      Y    ps_6-31g*
  H63       1.597  1.150  0.320    1.008    Y    Y      Y    ps_6-31g*
  H64       1.597  1.150  0.320    1.008    Y    Y      Y    ps_6-31g*
  H65       1.597  1.150  0.320    1.008    Y    Y      Y    ps_6-31g*
  H66       1.597  1.150  0.320    1.008    Y    Y      Y    ps_6-31g*
  H67       1.597  1.150  0.320    1.008    Y    Y      Y    ps_6-31g*
  H68       1.597  1.150  0.320    1.008    Y    Y      Y    ps_6-31g*
  H69       1.597  1.150  0.320    1.008    Y    Y      Y    ps_6-31g*
  H70       1.597  1.150  0.320    1.008    Y    Y      Y    ps_6-31g*
  H71       1.597  1.150  0.320    1.008    Y    Y      Y    ps_6-31g*
  H72       1.597  1.150  0.320    1.008    Y    Y      Y    ps_6-31g*
  H73       1.597  1.150  0.320    1.008    Y    Y      Y    ps_6-31g*
  H74       1.597  1.150  0.320    1.008    Y    Y      Y    ps_6-31g*
  H75       1.597  1.150  0.320    1.008    Y    Y      Y    ps_6-31g*
  H76       1.597  1.150  0.320    1.008    Y    Y      Y    ps_6-31g*
  H77       1.597  1.150  0.320    1.008    Y    Y      Y    ps_6-31g*
  H78       1.597  1.150  0.320    1.008    Y    Y      Y    ps_6-31g*
  H79       1.597  1.150  0.320    1.008    Y    Y      Y    ps_6-31g*
  H92       1.597  1.150  0.320    1.008    Y    Y      Y    ps_6-31g*
  H81       1.597  1.150  0.320    1.008    Y    Y      Y    ps_6-31g*
  H94       1.597  1.150  0.320    1.008    Y    Y      Y    ps_6-31g*
  H95       1.597  1.150  0.320    1.008    Y    Y      Y    ps_6-31g*
  H84       1.597  1.150  0.320    1.008    Y    Y      Y    ps_6-31g*
  O3        1.702  1.600  0.730   15.995    Y    Y      Y    ps_6-31g*
  C105      1.949  1.900  0.770   12.000    Y    Y      Y    ps_6-31g*
  C106      1.949  1.900  0.770   12.000    Y    Y      Y    ps_6-31g*
  C107      1.949  1.900  0.770   12.000    Y    Y      Y    ps_6-31g*
  C108      1.949  1.900  0.770   12.000    Y    Y      Y    ps_6-31g*
  H109      1.597  1.150  0.320    1.008    Y    Y      Y    ps_6-31g*
  H110      1.597  1.150  0.320    1.008    Y    Y      Y    ps_6-31g*
  H111      1.597  1.150  0.320    1.008    Y    Y      Y    ps_6-31g*
  H112      1.597  1.150  0.320    1.008    Y    Y      Y    ps_6-31g*
  H113      1.597  1.150  0.320    1.008    Y    Y      Y    ps_6-31g*
  H114      1.597  1.150  0.320    1.008    Y    Y      Y    ps_6-31g*
  H115      1.597  1.150  0.320    1.008    Y    Y      Y    ps_6-31g*
  H116      1.597  1.150  0.320    1.008    Y    Y      Y    ps_6-31g*
  H117      1.597  1.150  0.320    1.008    Y    Y      Y    ps_6-31g*
 
  atom      formal  2spin      esp    mulk    frag
  P1           0       0        Y    0.000       0
  Pd2          2       0        Y    0.000       0
  C73         -1       0        Y    0.000       0
  O3          -1       0        Y    0.000       0
  
  end of program pre
   
 Time(pre)  user:       4.507  user+sys:       4.507  wallclock:       1.016
  
  start of program onee
  
  smallest eigenvalue of S:    3.026E-04
  number of canonical orbitals.....          801
  end of program onee
   
 Time(onee)  user:       9.986  user+sys:       9.986  wallclock:       1.780
  
  start of program hfig
  
  initial wavefunction generated automatically from atomic wavefunctions
  Only one state below 0.010000
  Skip d-d repulsion considerations 
 
  Irreducible     Total no   No of occupied orbitals 
  representation  orbitals   Shell_1  Shell_2    ...
  No Symm          801        185
  ------------------------
  Orbital occupation/shell    1.000
 
  end of program hfig
   
 Time(hfig)  user:       3.011  user+sys:       3.011  wallclock:       1.361
  
  start of program probe
  
  end of program probe
   
 Time(probe)  user:       1.683  user+sys:       1.683  wallclock:       0.565
  
  start of program grid
  
   grid     grid set  grid #  grid sym
  ------    --------  ------  --------
  coarse        0        0        1
  medium        2        1        1
  fine          0        0        1
  ultrafine     4        2        1
  charge       -1        3        1
  gradient      4        2        1
  density       0        0        1
  DFT-fine    -11        4        1
  DFT-med.    -10        5        1
  DFT-grad    -12        6        1
  DFT-der2     -8        7        1
  DFT-cphf     -9        8        1
  LMP2-enrg     4        2        1
  LMP2-grad     2        1        1
  DFT-cphf2   -15        9        1
  PBF-dens      0        0        1
  plotting      0        0        1
  Rel-grad    -17        0        1
  
  number of gridpoints: 
     atom           P1         Pd2         C73         C74         C75         C76         C77
  grid # 1         603         350          78          92          93          97          92
  grid # 2         420         291         331         318         318         373         315
  grid # 3           6         206          30          17           7           6           6
  grid # 4        8714        8714        8714        8714        8714        8714        8714
  grid # 5        1192        1192        1192        1192        1192        1192        1192
  grid # 6        9132        9132        5922        5922        5922        5922        5922
  grid # 7       23034       32968       13950       13950       13950       13950       13950
  grid # 8         722        1150         748         748         748         748         748
  grid # 9         366        2198         394         394         394         394         394
   
  number of gridpoints: 
     atom          C78         F79         H80         H82         H83         H14          C3
  grid # 1          92         584         112         110         114         105          81
  grid # 2         319         566         457         441         462         434         330
  grid # 3          13         356         349         156         374         117           6
  grid # 4        8714        8714        8714        8714        8714        8714        8714
  grid # 5        1192        1192        1192        1192        1192        1192        1192
  grid # 6        5922        5922        5922        5922        5922        5922        5922
  grid # 7       13950       23190       15206       15206       15206       15206       13950
  grid # 8         748         770         786         786         786         786         748
  grid # 9         394         420         420         420         420         420         394
   
  number of gridpoints: 
     atom           C4          C5          C6          C7          C8          C9         C10
  grid # 1          81          93          92          92          92          92          91
  grid # 2         325         377         277         277         279         276         279
  grid # 3           6           9           6           6           6           6           6
  grid # 4        8714        8714        8714        8714        8714        8714        8714
  grid # 5        1192        1192        1192        1192        1192        1192        1192
  grid # 6        5922        5922        5922        5922        5922        5922        5922
  grid # 7       13950       13950       13950       13950       13950       13950       13950
  grid # 8         748         748         748         748         748         748         748
  grid # 9         394         394         394         394         394         394         394
   
  number of gridpoints: 
     atom          C11         C12         C13         C14         C15         C16         C17
  grid # 1          90          92          92          92          92          93          95
  grid # 2         277         277         279         279         278         322         323
  grid # 3           6           6           6           6           6          10          30
  grid # 4        8714        8714        8714        8714        8714        8714        8714
  grid # 5        1192        1192        1192        1192        1192        1192        1192
  grid # 6        5922        5922        5922        5922        5922        5922        5922
  grid # 7       13950       13950       13950       13950       13950       13950       13950
  grid # 8         748         748         748         748         748         748         748
  grid # 9         394         394         394         394         394         394         394
   
  number of gridpoints: 
     atom          C18         C19         C20         C21         C22         C23         C24
  grid # 1          95          91          98          99          96          94          99
  grid # 2         321         300         354         358         353         324         360
  grid # 3          22          10           7           7           8          18          10
  grid # 4        8714        8714        8714        8714        8714        8714        8714
  grid # 5        1192        1192        1192        1192        1192        1192        1192
  grid # 6        5922        5922        5922        5922        5922        5922        5922
  grid # 7       13950       13950       13950       13950       13950       13950       13950
  grid # 8         748         748         748         748         748         748         748
  grid # 9         394         394         394         394         394         394         394
   
  number of gridpoints: 
     atom          C25         C26         C27         C28         C29         C30         C31
  grid # 1          95          96          90          79          90          81          90
  grid # 2         325         357         303         242         303         238         300
  grid # 3          17          10           6           6           6           6           6
  grid # 4        8714        8714        8714        8714        8714        8714        8714
  grid # 5        1192        1192        1192        1192        1192        1192        1192
  grid # 6        5922        5922        5922        5922        5922        5922        5922
  grid # 7       13950       13950       13950       13950       13950       13950       13950
  grid # 8         748         748         748         748         748         748         748
  grid # 9         394         394         394         394         394         394         394
   
  number of gridpoints: 
     atom          C32         C33         C34         C35         H36         H37         H38
  grid # 1          81          81          81          81          97         105         104
  grid # 2         237         238         239         239         408         432         434
  grid # 3           6           6           6           6          22         131         136
  grid # 4        8714        8714        8714        8714        8714        8714        8714
  grid # 5        1192        1192        1192        1192        1192        1192        1192
  grid # 6        5922        5922        5922        5922        5922        5922        5922
  grid # 7       13950       13950       13950       13950       15206       15206       15206
  grid # 8         748         748         748         748         786         786         786
  grid # 9         394         394         394         394         420         420         420
   
  number of gridpoints: 
     atom          H39         H40         H41         H42         H43         H44         H45
  grid # 1         108         112         110         112         109         112         100
  grid # 2         441         455         454         456         443         452         416
  grid # 3         186         323         263         330         212         305          64
  grid # 4        8714        8714        8714        8714        8714        8714        8714
  grid # 5        1192        1192        1192        1192        1192        1192        1192
  grid # 6        5922        5922        5922        5922        5922        5922        5922
  grid # 7       15206       15206       15206       15206       15206       15206       15206
  grid # 8         786         786         786         786         786         786         786
  grid # 9         420         420         420         420         420         420         420
   
  number of gridpoints: 
     atom          H46         H47         H48         H49         H50         H51         H52
  grid # 1          91          99         102         105         112         109         112
  grid # 2         382         415         424         433         456         444         456
  grid # 3          65          43          90         138         315         197         329
  grid # 4        8714        8714        8714        8714        8714        8714        8714
  grid # 5        1192        1192        1192        1192        1192        1192        1192
  grid # 6        5922        5922        5922        5922        5922        5922        5922
  grid # 7       15206       15206       15206       15206       15206       15206       15206
  grid # 8         786         786         786         786         786         786         786
  grid # 9         420         420         420         420         420         420         420
   
  number of gridpoints: 
     atom          H53         H54         H55         H56         H57         H58         H59
  grid # 1         110         112         109         106          91         105         118
  grid # 2         453         457         446         432         382         433         465
  grid # 3         260         324         221         133          83         124         417
  grid # 4        8714        8714        8714        8714        8714        8714        8714
  grid # 5        1192        1192        1192        1192        1192        1192        1192
  grid # 6        5922        5922        5922        5922        5922        5922        5922
  grid # 7       15206       15206       15206       15206       15206       15206       15206
  grid # 8         786         786         786         786         786         786         786
  grid # 9         420         420         420         420         420         420         420
   
  number of gridpoints: 
     atom          H60         H61         H62         H63         H64         H65         H66
  grid # 1         117         109         100         105          97         108         108
  grid # 2         465         436         421         433         408         448         452
  grid # 3         399         203          69         141          27         261         256
  grid # 4        8714        8714        8714        8714        8714        8714        8714
  grid # 5        1192        1192        1192        1192        1192        1192        1192
  grid # 6        5922        5922        5922        5922        5922        5922        5922
  grid # 7       15206       15206       15206       15206       15206       15206       15206
  grid # 8         786         786         786         786         786         786         786
  grid # 9         420         420         420         420         420         420         420
   
  number of gridpoints: 
     atom          H67         H68         H69         H70         H71         H72         H73
  grid # 1         109         104         105         108         104         109         107
  grid # 2         452         429         439         452         435         442         444
  grid # 3         285          82         233         321         172         209         231
  grid # 4        8714        8714        8714        8714        8714        8714        8714
  grid # 5        1192        1192        1192        1192        1192        1192        1192
  grid # 6        5922        5922        5922        5922        5922        5922        5922
  grid # 7       15206       15206       15206       15206       15206       15206       15206
  grid # 8         786         786         786         786         786         786         786
  grid # 9         420         420         420         420         420         420         420
   
  number of gridpoints: 
     atom          H74         H75         H76         H77         H78         H79         H92
  grid # 1         104         103         110         110          98         106         108
  grid # 2         437         426         445         454         407         440         452
  grid # 3         189          85         257         308          89         207         319
  grid # 4        8714        8714        8714        8714        8714        8714        8714
  grid # 5        1192        1192        1192        1192        1192        1192        1192
  grid # 6        5922        5922        5922        5922        5922        5922        5922
  grid # 7       15206       15206       15206       15206       15206       15206       15206
  grid # 8         786         786         786         786         786         786         786
  grid # 9         420         420         420         420         420         420         420
   
  number of gridpoints: 
     atom          H81         H94         H95         H84          O3        C105        C106
  grid # 1          91         108         110         110         119          92          81
  grid # 2         366         447         458         453         472         329         240
  grid # 3          61         252         333         320          26           6           6
  grid # 4        8714        8714        8714        8714        8714        8714        8714
  grid # 5        1192        1192        1192        1192        1192        1192        1192
  grid # 6        5922        5922        5922        5922        5922        5922        5922
  grid # 7       15206       15206       15206       15206       23382       13950       13950
  grid # 8         786         786         786         786         774         748         748
  grid # 9         420         420         420         420         416         394         394
   
  number of gridpoints: 
     atom         C107        C108        H109        H110        H111        H112        H113
  grid # 1          79          81         109         110          91         109          98
  grid # 2         242         241         449         447         369         453         412
  grid # 3           6           6         275         254          44         293          56
  grid # 4        8714        8714        8714        8714        8714        8714        8714
  grid # 5        1192        1192        1192        1192        1192        1192        1192
  grid # 6        5922        5922        5922        5922        5922        5922        5922
  grid # 7       13950       13950       15206       15206       15206       15206       15206
  grid # 8         748         748         786         786         786         786         786
  grid # 9         394         394         420         420         420         420         420
   
  number of gridpoints: 
     atom         H114        H115        H116        H117       total
  grid # 1         107         108         105         105       12091
  grid # 2         445         450         439         434       41723
  grid # 3         210         282         163         166       13740
  grid # 4        8714        8714        8714        8714      949826
  grid # 5        1192        1192        1192        1192      129928
  grid # 6        5922        5922        5922        5922      651918
  grid # 7       15206       15206       15206       15206     1645196
  grid # 8         786         786         786         786       84312
  grid # 9         420         420         420         420       46382
   
  end of program grid
   
 Time(grid)  user:     907.678  user+sys:     907.678  wallclock:      60.363
  
  start of program rwr
  
  end of program rwr
   
 Time(rwr)  user:      77.981  user+sys:      77.981  wallclock:      22.675
  
  start of program scf
  
 number of electrons..........        370
 number of alpha electrons....        185
 number of beta electrons.....        185
 number of orbitals, total....        801
 number of doubly-occ'd orbs..        185
 number of open shell orbs....          0
 number of occupied orbitals..        185
 number of virtual orbitals...        616
 number of hamiltonians.......          1
 number of shells.............          1
 SCF type: DFT=Becke_3_Parameter/HF+Slater+Becke88+PW91+PW-GGAIIC (B3PW91-D3)
 Energy computed using pseudospectral method.
 Convergence Criterion:
    Energy (econv):       1.00E-05
    RMS density (dconv):  5.00E-06
  
       i  u  d  i  g                   
       t  p  i  c  r                                 RMS    maximum
       e  d  i  u  i                       energy  density   DIIS  
       r  t  s  t  d       total energy    change  change    error 
  
etot    1  N  N  5  M   -2312.30131700400           1.9E-03  1.6E-01
etot    2  Y  Y  6  M   -2316.50388428625  4.2E+00  3.7E-03  9.8E-02
etot    3  Y  Y  6  M   -2317.82367451280  1.3E+00  1.2E-03  6.2E-02
etot    4  N  Y  2  U   -2318.11224563624  2.9E-01  1.7E-03  6.5E-02
etot    5  Y  Y  6  M   -2318.24686864252  1.3E-01  1.0E-03  4.4E-02
etot    6  N  Y  2  U   -2318.27099821121  2.4E-02  1.0E-03  2.8E-02
etot    7  Y  Y  6  M   -2318.28774098413  1.7E-02  1.6E-04  6.7E-03
etot    8  N  Y  2  U   -2318.30447559672  1.7E-02  6.2E-05  1.7E-03
etot    9  Y  Y  6  M   -2318.30514449639  6.7E-04  2.0E-05  6.8E-04
etot   10  N  Y  2  U   -2318.30499836958 -1.5E-04  5.9E-06  1.2E-04
etot   11  N  Y  2  U   -2318.30500277308  4.4E-06  2.3E-06  7.9E-05
etot   12  N  N  2  U   -2318.30500345615  6.8E-07  0.0E+00  0.0E+00
 
  Computing the dispersion energy correction and its gradients...
  
  
 Energy components, in hartrees:
   (A)  Nuclear repulsion............    7645.09575930394
   (E)  Total one-electron terms.....  -18444.62589249738
   (F)    Electron-nuclear...........  -20670.31664869357
   (H)    Kinetic....................    2225.69075619620
   (I)  Total two-electron terms.....    8481.22512973729
   (J)    Coulomb....................    8792.77480710446
   (K)    Exchange+Correlation.......    -311.54967736717
   (L)  Electronic energy............   -9963.40076276009  (E+I)
   (N0) D3 correction................      -0.20992865875
   (N)  Total energy.................   -2318.51493211490  (A+L+N0)
   (O)  Gas phase energy.............   -2318.51493211490
  
 SCFE: SCF energy: DFT(b3pw91-d3)     -2318.51493211490 hartrees   iterations:  12
  
 
 HOMO energy:    -0.17437
 LUMO energy:    -0.04230
 
  Orbital energies (hartrees): 
   -77.07839   -24.67441   -19.04417   -10.24053   -10.20320   -10.19942
   -10.19318   -10.19151   -10.19092   -10.19052   -10.19005   -10.19004
   -10.18351   -10.18108   -10.17797   -10.17669   -10.17662   -10.17364
   -10.17180   -10.17076   -10.17016   -10.16912   -10.16827   -10.16797
   -10.16772   -10.16747   -10.16729   -10.16722   -10.16508   -10.16507
   -10.16409   -10.16401   -10.16382   -10.16299   -10.16233   -10.15793
   -10.15762   -10.15482   -10.15091   -10.14961   -10.14922   -10.14364
   -10.13184   -10.11265   -10.10394   -10.09716    -6.57976    -4.73791
    -4.73711    -4.73455    -3.33257    -2.06447    -2.06260    -2.03101
    -1.20684    -0.90977    -0.89116    -0.86402    -0.85495    -0.85081
    -0.84117    -0.81884    -0.81494    -0.78652    -0.78122    -0.77261
    -0.76334    -0.75483    -0.75077    -0.74836    -0.74392    -0.73436
    -0.72850    -0.72188    -0.71963    -0.68700    -0.68645    -0.68546
    -0.66986    -0.64994    -0.64598    -0.63691    -0.62964    -0.62778
    -0.62418    -0.61440    -0.61334    -0.61052    -0.59741    -0.59590
    -0.59159    -0.57462    -0.56615    -0.56123    -0.54896    -0.53746
    -0.53235    -0.52384    -0.50390    -0.49491    -0.49176    -0.48663
    -0.48026    -0.47767    -0.47305    -0.47048    -0.46535    -0.46008
    -0.45933    -0.45363    -0.45030    -0.44849    -0.44586    -0.44515
    -0.44355    -0.44012    -0.43953    -0.43637    -0.43256    -0.42810
    -0.42611    -0.41999    -0.41915    -0.41821    -0.41209    -0.40910
    -0.40665    -0.40347    -0.40109    -0.39681    -0.39473    -0.39274
    -0.39119    -0.38827    -0.38637    -0.38318    -0.38191    -0.37905
    -0.37559    -0.37272    -0.37008    -0.36849    -0.36539    -0.36496
    -0.36096    -0.36001    -0.35603    -0.35514    -0.35102    -0.34892
    -0.34607    -0.34319    -0.34201    -0.33852    -0.33549    -0.33341
    -0.33317    -0.33161    -0.33019    -0.32470    -0.32412    -0.32013
    -0.31659    -0.31251    -0.30987    -0.30853    -0.30736    -0.30571
    -0.30084    -0.29895    -0.29757    -0.28434    -0.27528    -0.26810
    -0.26545    -0.26088    -0.25836    -0.25310    -0.24536    -0.23426
    -0.22614    -0.21540    -0.20724    -0.19024    -0.17437    -0.04230
    -0.03498    -0.02667    -0.00886    -0.00529     0.01023     0.01442
     0.03816     0.05273     0.05598
 
  end of program scf
   
 Time(scf)  user:    1047.242  user+sys:    1047.242  wallclock:      96.162
  
  start of program der1a
  
  end of program der1a
   
 Time(der1a)  user:      25.476  user+sys:      25.476  wallclock:       2.409
  
  start of program rwr
  
  end of program rwr
   
 Time(rwr)  user:      68.871  user+sys:      68.871  wallclock:      26.780
  
  start of program der1b
  
   
  forces (hartrees/bohr) : total     
   
 atom  label           x              y              z
 ---- --------   -------------  -------------  -------------
    1 P1          3.491752E-03   3.990043E-03   3.133981E-03
    2 Pd2         1.320600E-02  -1.167282E-02   1.281666E-02
    3 C73         1.293131E-06   3.661415E-03   3.601356E-04
    4 C74         2.534152E-04   8.551173E-04   1.788990E-03
    5 C75         4.711365E-03   3.532254E-03   4.603703E-04
    6 C76        -9.359085E-03  -4.291248E-03  -8.141717E-03
    7 C77         7.155502E-03   1.111765E-03  -1.053793E-02
    8 C78         5.376332E-04  -2.720124E-03  -5.350136E-04
    9 F79        -5.649028E-04  -1.403614E-03   1.176845E-04
   10 H80         4.441452E-04   3.020227E-04   3.951250E-05
   11 H82        -7.525172E-04  -4.304340E-04  -6.327301E-04
   12 H83        -4.971807E-04   2.308031E-04   6.365191E-05
   13 H14        -5.644643E-04  -5.497970E-04   3.173813E-03
   14 C3          2.119282E-04  -1.449343E-04  -6.472358E-04
   15 C4          1.191519E-03  -1.953588E-04  -4.674572E-03
   16 C5         -1.098552E-03  -2.645970E-03  -7.383958E-04
   17 C6         -7.560145E-04   8.642544E-04   1.886790E-04
   18 C7          2.315952E-04  -2.831151E-04  -2.537961E-04
   19 C8         -5.625441E-04   1.351066E-04   3.722545E-04
   20 C9          3.323275E-04  -4.629190E-04   1.589791E-03
   21 C10        -1.493773E-02   5.594582E-03  -1.348445E-03
   22 C11         4.844222E-04   4.545230E-04  -2.485045E-04
   23 C12         1.519756E-04   7.773727E-04   1.425854E-03
   24 C13         4.885071E-04   5.059412E-04  -7.106455E-06
   25 C14         1.693949E-04  -2.225721E-03  -1.333225E-04
   26 C15         1.030533E-02  -2.713705E-03  -4.558864E-03
   27 C16         2.382574E-04  -1.031642E-03  -3.072765E-04
   28 C17         4.906830E-04   7.989190E-04   9.057134E-04
   29 C18        -6.315445E-03   2.164534E-03  -2.096171E-03
   30 C19        -2.058496E-02   2.984935E-03  -8.646074E-03
   31 C20        -4.501565E-03   8.040807E-03   3.565885E-04
   32 C21        -4.475983E-03  -1.433848E-03  -1.502030E-03
   33 C22        -1.808276E-03  -4.898434E-03   5.236052E-03
   34 C23         2.121705E-03   1.697404E-03  -6.652088E-03
   35 C24        -7.974570E-03   5.304597E-03  -2.069400E-03
   36 C25         9.825447E-04  -5.695290E-03   5.706272E-03
   37 C26         1.976184E-03   1.837033E-03  -3.427773E-03
   38 C27        -4.514879E-03  -2.375104E-03   4.517403E-04
   39 C28         1.306261E-04   5.575017E-04  -6.127904E-04
   40 C29        -1.086686E-03  -2.121751E-03   4.636990E-03
   41 C30         2.303657E-03   6.895364E-04  -3.817195E-03
   42 C31         1.207665E-03   2.798119E-04   1.582432E-04
   43 C32        -2.959236E-03  -9.270260E-04   2.529494E-05
   44 C33         1.568261E-02  -3.687233E-03   1.159923E-03
   45 C34         2.896038E-04  -2.453156E-02   2.480069E-03
   46 C35        -4.228588E-04  -5.722297E-06  -1.831660E-05
   47 H36         7.626889E-05   9.285534E-04  -1.734178E-03
   48 H37         3.047448E-04   8.424986E-05   1.544755E-04
   49 H38         3.741025E-05   1.566426E-05  -2.246420E-04
   50 H39         7.071345E-05   1.911217E-06  -1.247832E-05
   51 H40        -8.165070E-05   1.690009E-04  -1.815781E-05
   52 H41         1.385785E-04   4.362964E-05   9.405226E-05
   53 H42         4.326182E-05  -5.242121E-05  -5.448370E-05
   54 H43        -1.658572E-03   3.853346E-04   2.094945E-05
   55 H44        -6.897719E-05   9.982244E-05  -2.341010E-04
   56 H45         1.823832E-03  -1.968885E-03  -5.442068E-03
   57 H46        -2.699739E-02   8.527969E-03   8.822557E-03
   58 H47        -8.922719E-04  -3.282515E-04  -2.555858E-03
   59 H48         9.004736E-05   4.052275E-04   1.635294E-03
   60 H49         4.446693E-04  -1.765798E-04   7.186470E-04
   61 H50         2.548286E-04  -2.071581E-04  -3.302032E-04
   62 H51        -2.463189E-04   6.220558E-05  -1.791580E-04
   63 H52         3.347721E-04  -2.179862E-04   1.210015E-04
   64 H53        -7.400889E-05  -1.642600E-04  -1.981505E-04
   65 H54         9.747540E-05   5.423606E-05  -2.182421E-04
   66 H55        -3.597229E-04  -2.202335E-04   2.924369E-04
   67 H56        -1.568043E-03  -1.288012E-03  -2.144427E-03
   68 H57         2.934322E-02  -1.338690E-02  -4.721667E-03
   69 H58         1.595634E-03   1.500008E-03  -1.339564E-04
   70 H59         7.591301E-05  -1.734762E-04   4.753877E-04
   71 H60         2.092606E-04   4.872018E-04   3.186992E-04
   72 H61        -5.355572E-03   1.795746E-03  -1.966649E-03
   73 H62        -3.516397E-03   1.005405E-03   9.144234E-05
   74 H63         4.714889E-04   3.081092E-04  -2.083963E-04
   75 H64        -2.594097E-03  -1.737961E-03   1.342114E-03
   76 H65         5.954629E-05   1.995214E-06  -1.490571E-04
   77 H66         8.858833E-05  -1.303428E-04  -1.542176E-05
   78 H67        -1.602972E-04  -1.306165E-04  -2.214050E-06
   79 H68        -4.683910E-04   2.262362E-03  -1.218617E-03
   80 H69         1.015831E-03  -1.407083E-03  -1.484397E-03
   81 H70        -6.620608E-04  -7.715180E-05   5.204602E-04
   82 H71         2.306699E-03   1.733032E-03  -1.342730E-03
   83 H72        -1.203920E-04   2.799489E-04   1.049622E-04
   84 H73         2.455822E-04  -4.921884E-05  -9.980756E-06
   85 H74        -7.396025E-04  -2.646665E-04  -1.193417E-04
   86 H75         6.876044E-04   1.181940E-03   8.583963E-04
   87 H76        -4.914875E-06  -3.715679E-04   9.294114E-04
   88 H77         1.428437E-03  -3.883818E-04   1.358467E-03
   89 H78         2.304255E-02  -5.649864E-03   9.456504E-03
   90 H79         2.181908E-04  -8.577014E-04   1.211060E-04
   91 H92         3.074708E-04   1.420816E-04   3.126058E-04
   92 H81         9.905005E-04  -6.698162E-02   1.563253E-02
   93 H94        -1.288925E-04  -2.980124E-05   1.041337E-04
   94 H95         1.898702E-05   1.551530E-05  -9.930080E-07
   95 H84         1.953183E-04   8.891943E-06  -1.786780E-04
   96 O3          8.309029E-03   1.186815E-02  -9.098564E-03
   97 C105       -6.352896E-03   4.079646E-03   2.513290E-03
   98 C106        1.767768E-03   1.766918E-02  -3.161120E-03
   99 C107       -2.190287E-03  -2.573565E-03  -1.053843E-03
  100 C108        3.775759E-03   1.865296E-03   7.257996E-03
  101 H109       -4.681063E-04   8.235039E-05   4.839905E-04
  102 H110       -4.322496E-03  -2.990656E-04  -2.387106E-04
  103 H111       -4.501012E-04   7.300671E-02  -1.629561E-02
  104 H112       -1.077066E-03  -8.632334E-04   1.681947E-03
  105 H113       -6.937536E-03   8.681229E-04   1.985113E-02
  106 H114       -4.586827E-05   5.731442E-04  -4.851489E-04
  107 H115        7.107290E-04  -3.084330E-04  -1.422035E-03
  108 H116        2.726951E-04  -9.261608E-04   5.745036E-04
  109 H117        8.234442E-04   7.111869E-04  -3.102796E-03
 -------------   -------------  -------------  -------------
     total       -8.108889E-04   9.161513E-04   1.133934E-03
   
  end of program der1b
   
 Time(der1b)  user:     346.603  user+sys:     346.603  wallclock:      28.376
  
  start of program geopt
  
 ----------------------------------------------------------------------------
  Geometry optimization step  1
  Total energy:     -2318.51493211490 hartrees
 ----------------------------------------------------------------------------
  
  
  Level shifts adjusted to satisfy step-size constraints
   Step size:    0.3000772
   Cos(theta):   0.2384370
   Final level shift:  -3.8854815E-01
  
  gradient maximum:        9.4935E-01 .  (  2.2500E-03 )
  gradient rms:            1.2784E-01 .  (  1.5000E-03 )
  displacement maximum:    1.0228E-01 .  (  9.0000E-03 )
  displacement rms:        1.5727E-02 .  (  6.0000E-03 )
  
  predicted energy change:  -1.0475E-01
  step size:     0.30006
  trust radius:  0.30000
  
  molecular structure not yet converged...
  
  center of mass moved by:
     x:     5.3782E-02     y:     8.7063E-02     z:    -2.7631E-02
  
  new geometry: 
                                   angstroms
  atom               x                 y                 z
  P1            0.0117253694      0.0775317011     -0.0054552995 
  Pd2           0.1102593205      0.1218619314      2.2871155920 
  C73           2.0494100199      4.4679015904      1.8404450715 
  C74           0.6802304095      4.3066491334      1.6864290972 
  C75           0.1361035508      3.0276578980      1.8226145045 
  C76           0.9493014433      1.9253453538      2.1142986779 
[...]
    C25      Z     0.00005   0.00026  -0.00002
    C26      X    -0.00004   0.00001   0.00002
    C26      Y     0.00002  -0.00005  -0.00000
    C26      Z     0.00003   0.00010   0.00002
    C27      X     0.00002  -0.00001  -0.00000
    C27      Y     0.00001   0.00000   0.00000
    C27      Z    -0.00003   0.00005   0.00000
    C28      X    -0.00002   0.00000   0.00002
    C28      Y    -0.00001  -0.00003   0.00000
    C28      Z    -0.00001   0.00007   0.00002
    C29      X     0.00000  -0.00027   0.00000
    C29      Y     0.00001   0.00030   0.00001
    C29      Z    -0.00002  -0.00060  -0.00002
    C30      X     0.00005  -0.00021  -0.00003
    C30      Y    -0.00005   0.00147   0.00000
    C30      Z    -0.00005  -0.00196   0.00001
    C31      X    -0.00000  -0.00036  -0.00000
    C31      Y     0.00001   0.00013  -0.00000
    C31      Z     0.00001  -0.00031  -0.00001
    C32      X     0.00005  -0.00002   0.00002
    C32      Y     0.00005  -0.00004  -0.00002
    C32      Z     0.00001   0.00008   0.00002
    C33      X     0.00002  -0.00017   0.00001
    C33      Y    -0.00000   0.00031   0.00002
    C33      Z    -0.00002  -0.00123   0.00003
    C34      X    -0.00001  -0.00106   0.00001
    C34      Y    -0.00000   0.00024   0.00001
    C34      Z     0.00002   0.00099  -0.00001
    C35      X    -0.00000  -0.00017   0.00000
    C35      Y    -0.00001   0.00028   0.00001
    C35      Z     0.00002  -0.00009  -0.00002
    H36      X     0.00033  -0.00001   0.00096
    H36      Y     0.00007  -0.00001  -0.00042
    H36      Z    -0.00050   0.00001  -0.00156
    H37      X    -0.00003  -0.00001   0.01357
    H37      Y    -0.00001  -0.00000  -0.00335
    H37      Z     0.00002   0.00001  -0.01999
    H38      X    -0.00002   0.00008  -0.00107
    H38      Y    -0.00006   0.00015   0.00106
    H38      Z     0.00002  -0.00003   0.00144
    H39      X     0.00002   0.00001   0.00159
    H39      Y     0.00000  -0.00000  -0.00045
    H39      Z    -0.00001  -0.00001  -0.00200
    H40      X     0.00003  -0.00005  -0.00052
    H40      Y    -0.00001  -0.00002  -0.00004
    H40      Z     0.00002  -0.00006  -0.00045
    H41      X    -0.00001   0.00002   0.00011
    H41      Y    -0.00002  -0.00000   0.00008
    H41      Z    -0.00009  -0.00003  -0.00026
    H42      X     0.00012  -0.00008   0.00015
    H42      Y    -0.00008   0.00007  -0.00028
    H42      Z     0.00003  -0.00001   0.00001
    H43      X     0.00064  -0.00000   0.00009
    H43      Y    -0.00017  -0.00000  -0.00005
    H43      Z    -0.00099   0.00000  -0.00015
    H44      X    -0.00009   0.00004  -0.00013
    H44      Y    -0.00028   0.00011  -0.00006
    H44      Z     0.00007  -0.00003  -0.00001
    H45      X    -0.00423   0.00007  -0.00024
    H45      Y    -0.00223   0.00004  -0.00024
    H45      Z    -0.00523   0.00009  -0.00022
    H46      X     0.00045   0.00004   0.00033
    H46      Y    -0.00000  -0.00000   0.00009
    H46      Z    -0.00023  -0.00007  -0.00042
    H47      X     0.00040   0.00003  -0.00008
    H47      Y    -0.00180   0.00005  -0.00268
    H47      Z     0.00027   0.00000  -0.00120
    H48      X    -0.00023  -0.00004  -0.00001
    H48      Y    -0.00100   0.00001  -0.00014
    H48      Z    -0.00301  -0.00003  -0.00096
    H49      X    -0.00006  -0.00001  -0.00007
    H49      Y    -0.00089   0.00014  -0.00098
    H49      Z    -0.00004   0.00006  -0.00006
    H50      X     0.00079   0.00023  -0.00006
    H50      Y    -0.00074  -0.00016   0.00005
    H50      Z     0.00042   0.00011  -0.00008
    H51      X    -0.00057   0.00001  -0.00004
    H51      Y    -0.00207   0.00002  -0.00026
    H51      Z    -0.00075  -0.00000  -0.00012
    H52      X    -0.00022   0.00011  -0.00044
    H52      Y    -0.00007   0.00005  -0.00021
    H52      Z     0.00011  -0.00004   0.00005
    H53      X    -0.00000  -0.00001   0.00014
    H53      Y    -0.00061  -0.00003  -0.00070
    H53      Z    -0.00030  -0.00001  -0.00022
    H54      X    -0.00001   0.00001   0.00013
    H54      Y    -0.00009  -0.00000   0.00008
    H54      Z    -0.00043  -0.00006  -0.00027
    H55      X    -0.00004   0.00001  -0.00071
    H55      Y    -0.00083   0.00002  -0.00276
    H55      Z    -0.00012   0.00001  -0.00052
    H56      X    -0.00002  -0.00001  -0.00334
    H56      Y    -0.00035   0.00012  -0.02756
    H56      Z    -0.00024   0.00004  -0.00863
    H57      X    -0.00028   0.00003   0.00696
    H57      Y     0.00019  -0.00002  -0.00579
    H57      Z    -0.00018   0.00002   0.00479
    H58      X     0.00022  -0.00030   0.13117
    H58      Y     0.00097  -0.00151   0.65464
    H58      Z    -0.00096   0.00143  -0.65043
    H59      X     0.00005  -0.00006  -0.01418
    H59      Y     0.00015  -0.00013  -0.04542
    H59      Z     0.00067  -0.00069  -0.18335
    H60      X     0.00022  -0.00063  -0.00946
    H60      Y     0.00088  -0.00253  -0.03826
    H60      Z     0.00025  -0.00078  -0.00935
    H61      X    -0.00011  -0.00034  -0.00443
    H61      Y    -0.00046  -0.00100  -0.01753
    H61      Z     0.00040   0.00117   0.01818
    H62      X     0.00343   0.71887   0.00131
    H62      Y    -0.00180  -0.37951  -0.00072
    H62      Z     0.00237   0.49873   0.00096
    H63      X     0.00102  -0.00356  -0.00067
    H63      Y    -0.00028   0.00119   0.00017
    H63      Z    -0.00054   0.00085   0.00040
    H64      X    -0.00011   0.00022   0.00011
    H64      Y    -0.00010   0.00019  -0.00007
    H64      Z     0.00028  -0.00081  -0.00003
    H65      X    -0.00001   0.00027  -0.00002
    H65      Y     0.00000   0.00019  -0.00002
    H65      Z    -0.00002  -0.00052   0.00003
    H66      X    -0.00004   0.00004   0.00007
    H66      Y     0.00012  -0.00008  -0.00011
    H66      Z     0.00005  -0.00006  -0.00008
    H67      X     0.00023  -0.00028  -0.00032
    H67      Y    -0.00011   0.00020   0.00013
    H67      Z     0.00015  -0.00024  -0.00021
    H68      X     0.00002   0.00193  -0.00007
    H68      Y    -0.00007  -0.00166  -0.00013
    H68      Z     0.00017   0.00166   0.00025
    H69      X     0.00003   0.00372   0.00002
    H69      Y    -0.00004  -0.01438  -0.00002
    H69      Z     0.00009   0.02541   0.00008
    H70      X    -0.00059  -0.00392   0.00038
    H70      Y     0.00003   0.00074  -0.00002
    H70      Z     0.00035   0.00321  -0.00022
    H71      X    -0.00009   0.00134  -0.00003
    H71      Y     0.00071  -0.00493  -0.00002
    H71      Z     0.00014  -0.00212   0.00001
    H72      X     0.00003  -0.00089  -0.00001
    H72      Y    -0.00007   0.00096   0.00003
    H72      Z    -0.00008   0.00211   0.00005
    H73      X     0.00005   0.00037  -0.00001
    H73      Y     0.00007   0.00009   0.00002
    H73      Z     0.00004  -0.00067   0.00004
    H74      X     0.00010  -0.00032  -0.00035
    H74      Y    -0.00002   0.00022   0.00021
    H74      Z     0.00003  -0.00033  -0.00026
    H75      X    -0.00098   0.00020   0.00002
    H75      Y    -0.00106   0.00019  -0.00002
    H75      Z    -0.00013   0.00003   0.00001
    H76      X     0.00001   0.00008  -0.00001
    H76      Y    -0.00007  -0.00679  -0.00001
    H76      Z     0.00011   0.01149  -0.00001
    H77      X    -0.00035  -0.00108   0.00020
    H77      Y     0.00010  -0.00038  -0.00007
    H77      Z     0.00016   0.00059  -0.00010
    H78      X     0.00000   0.00364  -0.00035
    H78      Y    -0.00001   0.00220  -0.00020
    H78      Z    -0.00002   0.00322  -0.00028
    H79      X     0.00002   0.00467   0.00001
    H79      Y    -0.00008  -0.01192  -0.00001
    H79      Z    -0.00003  -0.00703  -0.00003
    H92      X     0.00008   0.00420  -0.00004
    H92      Y     0.00006   0.00144  -0.00004
    H92      Z    -0.00031  -0.01015   0.00019
    H81      X     0.00008   0.00955  -0.00004
    H81      Y     0.00007   0.00758  -0.00003
    H81      Z     0.00001  -0.00097  -0.00002
    H94      X    -0.00000   0.00046   0.00001
    H94      Y    -0.00001  -0.00180  -0.00001
    H94      Z     0.00001  -0.00116  -0.00002
    H95      X    -0.00005   0.00237   0.00003
    H95      Y     0.00001  -0.00092  -0.00000
    H95      Z    -0.00001   0.00107  -0.00000
    H84      X     0.00009  -0.00079  -0.00007
    H84      Y     0.00008  -0.00085  -0.00007
    H84      Z    -0.00030   0.00244   0.00023
    O3       X    -0.00002   0.00004   0.00000
    O3       Y    -0.00004  -0.00004  -0.00001
    O3       Z    -0.00003   0.00006   0.00003
    C105     X    -0.00003  -0.00000   0.00001
    C105     Y     0.00006   0.00000  -0.00002
    C105     Z     0.00002  -0.00003  -0.00002
    C106     X     0.00006  -0.00004  -0.00001
    C106     Y     0.00005   0.00029  -0.00002
    C106     Z     0.00003   0.00011  -0.00002
    C107     X     0.00008  -0.00006  -0.00001
    C107     Y     0.00020   0.00005  -0.00000
    C107     Z    -0.00044  -0.00005  -0.00002
    C108     X    -0.00001  -0.00003  -0.00000
    C108     Y     0.00024  -0.00006  -0.00002
    C108     Z    -0.00018  -0.00004  -0.00002
    H109     X     0.00008   0.00033  -0.00005
    H109     Y    -0.00020  -0.00090   0.00015
    H109     Z    -0.00053  -0.00120   0.00032
    H110     X    -0.00041  -0.00187   0.00010
    H110     Y    -0.00064  -0.00233   0.00017
    H110     Z     0.00002   0.00007  -0.00002
    H111     X    -0.00030   0.00198   0.00004
    H111     Y     0.00009  -0.00017  -0.00001
    H111     Z     0.00005   0.00001  -0.00002
    H112     X     0.00012  -0.00007  -0.00008
    H112     Y    -0.00010   0.00025   0.00015
    H112     Z    -0.00030   0.00034   0.00024
    H113     X     0.00087   0.00013   0.00001
    H113     Y    -0.00166  -0.00022  -0.00003
    H113     Z     0.00258   0.00028   0.00002
    H114     X    -0.00084   0.00037   0.00007
    H114     Y    -0.00137   0.00054   0.00009
    H114     Z    -0.00002  -0.00007  -0.00001
    H115     X    -0.00032  -0.00002  -0.00002
    H115     Y     0.00050   0.00014   0.00012
    H115     Z     0.00065   0.00021   0.00020
    H116     X    -0.00258   0.00057   0.00005
    H116     Y     0.00073  -0.00008  -0.00002
    H116     Z     0.00005  -0.00011  -0.00001
    H117     X     0.00193   0.00026   0.00002
    H117     Y    -0.00385  -0.00061  -0.00003
    H117     Z     0.00489   0.00064   0.00003
  
  Number of imaginary frequencies:   0
   
  Writing vibrational animation data to L_Ar_OtBu_PL146.vib
  Writing IR vibrational spectrum data to L_Ar_OtBu_PL146_vib.spm
  rotational symmetry number:  1

  rotational temperatures (K):      0.003792      0.002879      0.002461
   
  The Quasi-Harmonic approximation will be applied to compute
  vibrational constributions to thermodynamic properties.
  Frequencies will be adjusted to a minimum value of  100.00 cm^-1.

  vibrational temperatures:
       mode:      1        2        3        4        5        6
  temp. (K):   143.88   143.88   143.88   143.88   143.88   143.88
   
       mode:      7        8        9       10       11       12
  temp. (K):   143.88   143.88   143.88   143.88   143.88   143.88
   
       mode:     13       14       15       16       17       18
  temp. (K):   143.88   143.88   143.88   143.88   143.88   143.88
   
       mode:     19       20       21       22       23       24
  temp. (K):   148.85   151.57   159.80   166.83   188.44   195.84
   
       mode:     25       26       27       28       29       30
  temp. (K):   216.59   219.09   228.17   237.33   256.67   266.97
   
       mode:     31       32       33       34       35       36
  temp. (K):   271.24   276.09   291.62   296.18   310.78   329.24
   
       mode:     37       38       39       40       41       42
  temp. (K):   341.93   347.65   357.83   363.87   367.76   375.22
   
       mode:     43       44       45       46       47       48
  temp. (K):   378.84   386.63   395.22   403.44   408.72   414.13
   
       mode:     49       50       51       52       53       54
  temp. (K):   417.71   420.15   428.33   435.74   453.47   471.81
   
       mode:     55       56       57       58       59       60
  temp. (K):   478.97   481.97   496.86   498.51   527.47   536.12
   
       mode:     61       62       63       64       65       66
  temp. (K):   550.08   560.26   565.84   590.87   592.90   612.01
   
       mode:     67       68       69       70       71       72
  temp. (K):   621.32   633.87   649.36   653.67   654.92   673.85
   
       mode:     73       74       75       76       77       78
  temp. (K):   678.39   683.16   689.23   713.08   735.38   751.61
   
       mode:     79       80       81       82       83       84
  temp. (K):   757.55   764.08   780.43   784.28   805.99   826.98
   
       mode:     85       86       87       88       89       90
  temp. (K):   832.54   842.92   877.06   899.73   915.62   942.29
   
       mode:     91       92       93       94       95       96
  temp. (K):   952.58   984.61  1026.48  1053.66  1081.42  1095.70
   
       mode:     97       98       99      100      101      102
  temp. (K):  1113.05  1116.12  1124.97  1147.25  1177.66  1183.63
   
       mode:    103      104      105      106      107      108
  temp. (K):  1200.32  1201.48  1203.95  1210.43  1213.41  1213.87
   
       mode:    109      110      111      112      113      114
  temp. (K):  1237.94  1262.52  1265.61  1300.89  1305.19  1310.17
   
       mode:    115      116      117      118      119      120
  temp. (K):  1312.90  1313.59  1317.37  1323.62  1324.25  1329.56
   
       mode:    121      122      123      124      125      126
  temp. (K):  1333.35  1359.65  1363.20  1365.01  1367.67  1370.20
   
       mode:    127      128      129      130      131      132
  temp. (K):  1374.24  1377.92  1386.71  1392.87  1402.59  1417.49
   
       mode:    133      134      135      136      137      138
  temp. (K):  1419.90  1422.03  1431.73  1453.43  1471.26  1473.42
   
       mode:    139      140      141      142      143      144
  temp. (K):  1481.57  1482.27  1487.57  1512.42  1514.61  1519.83
   
       mode:    145      146      147      148      149      150
  temp. (K):  1525.58  1546.08  1550.72  1555.75  1562.02  1581.18
   
       mode:    151      152      153      154      155      156
  temp. (K):  1593.66  1594.44  1596.34  1599.04  1603.09  1604.85
   
       mode:    157      158      159      160      161      162
  temp. (K):  1620.72  1637.22  1645.48  1652.12  1654.21  1660.18
   
       mode:    163      164      165      166      167      168
  temp. (K):  1665.88  1673.72  1687.43  1720.11  1722.61  1741.81
   
       mode:    169      170      171      172      173      174
  temp. (K):  1742.71  1747.55  1757.47  1764.30  1793.61  1804.92
   
       mode:    175      176      177      178      179      180
  temp. (K):  1806.62  1813.53  1814.01  1828.86  1842.22  1863.98
   
       mode:    181      182      183      184      185      186
  temp. (K):  1868.41  1877.01  1880.05  1884.82  1887.58  1894.13
   
       mode:    187      188      189      190      191      192
  temp. (K):  1898.62  1900.61  1907.17  1918.67  1924.35  1927.60
   
       mode:    193      194      195      196      197      198
  temp. (K):  1929.30  1939.35  1949.95  1951.75  1956.81  1966.88
   
       mode:    199      200      201      202      203      204
  temp. (K):  1974.71  1975.09  1992.12  1995.39  1996.38  2006.66
   
       mode:    205      206      207      208      209      210
  temp. (K):  2009.11  2014.74  2015.15  2018.27  2018.56  2019.02
   
       mode:    211      212      213      214      215      216
  temp. (K):  2021.78  2022.59  2044.01  2052.33  2052.66  2053.46
   
       mode:    217      218      219      220      221      222
  temp. (K):  2056.04  2072.91  2083.32  2083.80  2123.72  2128.09
   
       mode:    223      224      225      226      227      228
  temp. (K):  2151.07  2157.32  2162.06  2168.76  2169.35  2170.67
   
       mode:    229      230      231      232      233      234
  temp. (K):  2173.13  2173.93  2176.09  2176.37  2178.20  2181.15
   
       mode:    235      236      237      238      239      240
  temp. (K):  2183.11  2184.39  2185.35  2185.81  2186.91  2189.23
   
       mode:    241      242      243      244      245      246
  temp. (K):  2190.37  2193.22  2196.99  2198.04  2201.05  2202.40
   
       mode:    247      248      249      250      251      252
  temp. (K):  2206.32  2206.76  2209.41  2211.12  2214.44  2221.18
   
       mode:    253      254      255      256      257      258
  temp. (K):  2225.49  2317.08  2346.11  2358.94  2375.04  2381.78
   
       mode:    259      260      261      262      263      264
  temp. (K):  2404.40  4355.54  4355.60  4357.67  4360.24  4361.53
   
       mode:    265      266      267      268      269      270
  temp. (K):  4365.67  4368.38  4368.86  4370.91  4371.77  4372.76
   
       mode:    271      272      273      274      275      276
  temp. (K):  4376.94  4378.08  4379.20  4381.24  4382.12  4383.93
   
       mode:    277      278      279      280      281      282
  temp. (K):  4385.81  4386.91  4387.65  4398.85  4407.22  4435.10
   
       mode:    283      284      285      286      287      288
  temp. (K):  4436.63  4437.66  4438.76  4440.26  4440.27  4447.68
   
       mode:    289      290      291      292      293      294
  temp. (K):  4450.52  4463.47  4467.15  4470.68  4474.51  4480.13
   
       mode:    295      296      297      298      299      300
  temp. (K):  4483.30  4484.57  4485.92  4490.82  4491.62  4492.70
   
       mode:    301      302      303      304      305      306
  temp. (K):  4495.33  4504.28  4506.57  4507.44  4514.85  4518.62
   
       mode:    307      308      309      310      311      312
  temp. (K):  4519.48  4519.72  4523.83  4562.02  4569.37  4578.33
   
       mode:    313      314      315      316      317      318
  temp. (K):  4585.67  4597.03  4603.33  4604.50  4620.35  4624.03
   
       mode:    319      320      321
  temp. (K):  4626.44  4637.71  4663.76
   
   
  Thermodynamic properties calculated assuming an ideal gas

  In the table below, the units for temperature
  are kelvins, the units for U, H, and G are
  kcal/mol and the units for Cv and S are cal/(mol K)

  The zero point energy (ZPE):    607.633 kcal/mol
  is not included in U, H, or G in the table below
  
 
  =============================================================================
  Thermodynamic properties for P = 1.00E+00 atm, calculated at   1 temperatures


  T =   298.15 K, P = 1.00E+00 atm
   
                  U         Cv          S          H          G        ln(Q)
              =========  =========  =========  =========  =========  =========
  trans.          0.889      2.981     45.726      1.481    -12.152   20.50994
  rot.            0.889      2.981     38.423      0.889    -10.567   17.83499
  vib.           28.820    189.904    175.281     28.820    -23.440   39.56239
  elec.           0.000      0.000      0.000      0.000      0.000    0.00000
  ----------------------------------------------------------------------------
  total          30.597    195.866    259.429     31.190    -46.159   77.90732
   
   Total internal energy, Utot(SCFE + ZPE + U):   -2317.630566 hartrees
   Total enthalpy, Htot (Utot + nRT), with n=1:   -2317.629622 hartrees
    Total Gibbs free energy, Gtot (Htot - T*S):   -2317.752885 hartrees
   
  end of program freq
   
 Time(freq)  user:       1.086  user+sys:       1.086  wallclock:       0.724
  
  start of program post
  
  Writing input files for PBF
  end of program post
   
 Time(post)  user:       0.278  user+sys:       0.278  wallclock:       0.117

 Total cpu seconds     user:  226702.500   user+sys:  226702.500
  
 Total elapsed time:    26924 seconds

Job L_Ar_OtBu_PL146 completed on bp1-compute152 at Wed Nov 26 03:32:10 2025
