Job ox_add_TS_L1_PL146 started on bp1-compute062.data.bp.acrc.priv at Fri Mar 28 04:21:45 2025
jobid: bp1-compute062-0-67e623d5

  +--------------------------------------------------------------------+
  |  Jaguar version 12.5, release 138                                  |
  |                                                                    |
  |  Copyright Schrodinger, Inc.                                       |
  |  All Rights Reserved.                                              |
  |                                                                    |
  |  The following have contributed to Jaguar (listed alphabetically): |
  |  Ty Balduf, Mike Beachy, Chandler Bennett, Art Bochevarov,         |
  |  Dale Braden, Yixiang Cao, Alan Chien, Chris Cortis,               |
  |  Rich Friesner, Jim Furness, Bill Goddard, Hod Greeley,            |
  |  Tom Hughes, Leif Jacobson, Jean-Marc Langlois, Daniel Levine,     |
  |  Rob Murphy, Dean Philipp, Tom Pollard, Murco Ringnalda,           |
  |  Daniel Mainz, Pablo Videla, Mark Watson, Haoyu Yu.                |
  |                                                                    |
  |  Use of this program should be acknowledged in publications as:    |
  |                                                                    |
  |  Jaguar, version 12.5, Schrodinger, Inc., New York, NY, 2024.      |
  |                                                                    |
  |  A. D. Bochevarov, E. Harder, T. F. Hughes, J. R. Greenwood,       |
  |  D. A. Braden, D. M. Philipp, D. Rinaldo, M. D. Halls,             |
  |  J. Zhang, R. A. Friesner, "Jaguar: A High-Performance Quantum     |
  |  Chemistry Software Program with Strengths in Life and Materials   |
  |  Sciences", Int. J. Quantum Chem., 2013, 113(18), 2110-2142.       |
  +--------------------------------------------------------------------+
  
  start of program pre
  
  Job name: ox_add_TS_L1_PL146
  Executables used: /software/local/apps/schrodinger2024-3/jaguar-v12.5/bin/Linux-x86_64
  Temporary files : /tmp/ar21627/ox_add_TS_L1_PL146#bp1-compute062-0-67e623d5
  Basis file : using default basis file from /software/local/apps/schrodinger2024-3
  Maestro file (input):  ox_add_TS_L1_PL146.mae
  Maestro file (output): ox_add_TS_L1_PL146.01.mae
  
 Contents of input file: &gen and (if present) &atomic sections only
 ----------------Contents start----------------
&gen
dftname=b3pw91-d3
basis=6-31G*
numd=5
ip11=2
iaccg=3
isolv=2
igeopt=2
solvent=benzene
ifreq=1
&
&atomic
atom basis
Pd2 lacv3p*
Br3 lacv3p*
&
 -----------------Contents end-----------------
 
  PS calculation requested. Using PS version of 6-31g*
  basis set:               non_standard                    
  net molecular charge:    0
  multiplicity:            1
  
  Using up to   4 threads per process
  
  This run will use ECP on            2  atoms
  number of basis functions....          724
  
 Input geometry:
                                   angstroms
  atom               x                 y                 z
  P1            0.0000000000      0.0000000000      0.0000000000 
  Pd2           0.0000000000      0.0000000000      2.3517789536 
  Br3          -0.4777223420     -0.6575283945      4.9970488136 
  C73           3.9088747382     -0.9698776110      2.9838813386 
  C74           3.0506392770     -2.0580653563      2.8759596220 
  C75           1.7323362083     -1.9224632494      3.3004588046 
  C76           1.2960092696     -0.6671862523      3.7707512531 
  C77           2.1963862084      0.3993546853      3.9580624655 
  C78           3.5148315633      0.2456743412      3.5256903057 
  F79           5.1832827290     -1.1033133864      2.5427602649 
  H80           3.4049143593     -2.9837951273      2.4348642989 
  H81           1.0383998584     -2.7514802474      3.2230842146 
  H82           1.8623079957      1.3262023772      4.4118783462 
  H83           4.2320860002      1.0577675400      3.6051745638 
  C3            1.7314260000      0.0000000000     -0.7803510000 
  C4           -0.8389310000     -1.6125100000     -0.4671430000 
  C5           -0.9848230000      1.4026410000     -0.7940230000 
  C6            1.8547750000      0.7516540000     -2.1227420000 
  C7            3.3180330000      0.9088290000     -2.5641460000 
  C8            3.9857420000     -0.4642000000     -2.7094370000 
  C9            3.8697970000     -1.2539880000     -1.4001690000 
  C10           2.4046590000     -1.3782340000     -0.9523140000 
  C11          -0.5056190000     -2.7173740000      0.5550030000 
  C12          -1.0578700000     -4.0832580000      0.1240010000 
  C13          -2.5787210000     -4.0214240000     -0.0639300000 
  C14          -2.9499870000     -2.9127210000     -1.0567430000 
  C15          -2.3764560000     -1.5612970000     -0.6035480000 
  C16          -1.2326260000      1.0727740000     -2.1445640000 
  C17          -2.0074230000      1.8467040000     -3.0133740000 
  C18          -2.5762550000      3.0149250000     -2.5108640000 
  C19          -2.3457000000      3.3486970000     -1.1711310000 
  C20          -1.5716150000      2.5946540000     -0.2583740000 
  C21          -1.4845710000      3.1859880000      1.0425790000 
  C22          -2.5948983962      3.0882038678      1.9457253205 
  C23          -2.5078409530      3.6591114930      3.2289923677 
  C24          -1.3795686444      4.3344066652      3.6980946485 
  C25          -0.3140525194      4.4420563976      2.8017598772 
  C26          -0.3392145328      3.9003360495      1.5022078741 
  C27           0.8291387222      4.2609383680      0.6023296643 
  C28           0.3621181654      5.2294091000     -0.5001115855 
  C29          -3.8877885596      2.2971524402      1.7198978620 
  C30          -4.0959075394      1.1860063120      2.7763115038 
  C31          -1.3155502821      4.9236682338      5.0922828416 
  C32           2.0902629805      4.8575132756      1.2642621839 
  C33          -5.1355088176      3.2037855588      1.7057501371 
  C34          -1.3716828236      3.8092158105      6.1493457110 
  C35          -2.4240172166      5.9655302764      5.3149598951 
  H36           2.3867450000      0.5770350000     -0.0919280000 
  H37           1.3141700000      0.1937620000     -2.9206610000 
  H38           1.4022340000      1.7673630000     -2.0399630000 
  H39           3.8741960000      1.5227350000     -1.8158020000 
  H40           3.3667480000      1.4574500000     -3.5356390000 
  H41           3.4933720000     -1.0343290000     -3.5330210000 
  H42           5.0594910000     -0.3409120000     -2.9901210000 
  H43           4.4602150000     -0.7409420000     -0.6036040000 
  H44           4.3155280000     -2.2694410000     -1.5316230000 
  H45           2.3928530000     -1.9481030000      0.0023690000 
  H46           1.8435120000     -1.9816870000     -1.7025810000 
  H47          -0.4389790000     -1.9178500000     -1.4612040000 
  H48           0.5926800000     -2.8081600000      0.7031910000 
  H49          -0.9307450000     -2.4449230000      1.5495160000 
  H50          -0.8025950000     -4.8567340000      0.8878940000 
  H51          -0.5737560000     -4.3948660000     -0.8321230000 
  H52          -2.9612600000     -5.0058110000     -0.4263340000 
  H53          -3.0671780000     -3.8197310000      0.9193380000 
  H54          -4.0610290000     -2.8453320000     -1.1480450000 
  H55          -2.5540330000     -3.1666150000     -2.0689060000 
  H56          -2.8409550000     -1.2901760000      0.3698920000 
  H57          -2.6950660000     -0.7836810000     -1.3332440000 
  H58          -0.8269830000      0.1490770000     -2.5831970000 
  H59          -2.1683160000      1.5442320000     -4.0620710000 
  H60          -3.1860710000      3.6639080000     -3.1622960000 
  H61          -2.7801850000      4.3120260000     -0.8732000000 
  H62          -3.3515546939      3.5693515537      3.9272251783 
  H63           0.5552538373      5.0055090412      3.1643656325 
  H64           1.1704667188      3.3354304452      0.1278028634 
  H65          -0.0054673051      6.1827125404     -0.0561742708 
  H66          -0.4645227520      4.8082053770     -1.1150100482 
  H67           1.1916421339      5.4762262032     -1.2022147479 
  H68          -3.8473834393      1.7030596048      0.7799754502 
  H69          -4.2646010643      1.5790821148      3.8033613217 
  H70          -4.9868841736      0.5620253550      2.5311594589 
  H71          -3.2221367345      0.4981190014      2.8217584091 
  H72          -0.3392728145      5.4516527053      5.2203208282 
  H73           1.9172750280      5.8913512023      1.6414005967 
  H74           2.9268823431      4.9299352509      0.5310403018 
  H75           2.4535059953      4.2261358520      2.1067044345 
  H76          -5.3379426910      3.6485751667      2.7061309981 
  H77          -6.0438970965      2.6282286083      1.4135849845 
  H78          -5.0373077494      4.0532248847      0.9938443982 
  H79          -2.3385582112      3.2574546409      6.1182694662 
  H92          -1.2565548992      4.2242869151      7.1771765607 
  H93          -0.5530059115      3.0695798479      5.9898711159 
  H94          -3.4397236064      5.5117027889      5.2691174639 
  H95          -2.3736333573      6.7687145937      4.5438986261 
  H84          -2.3230173972      6.4498066601      6.3135990685 
   
  principal moments of inertia:
        amu*angstrom^2:              7144.86880              8540.28892              9786.19758
                g*cm^2:          1.18643323E-36          1.41814816E-36          1.62503614E-36
   
  rotational constants:
               cm^(-1):      0.00235940      0.00197389      0.00172259
                   GHz:      0.07073314      0.05917587      0.05164202
   
  Molecular weight:     756.21 amu
   
  Stoichiometry: PdC39PH53BrF
  Molecular Point Group: C1      
  Point Group used: C1
  
 
Number of optimization coordinates:   332
Number of independent coordinates:    332
Number of non-redundant coordinates:  282
Number of frozen coordinates:           0
Number of harmonic constraints:         0
 
Number of geometric degrees of freedom:   282
Maximum geometric degrees of freedom:     282
 " " " " " excluding dummy atoms:         282
 
 
  bond lengths (angstroms):
 
 P1      -Pd2     :   2.351779      P1      -C3      :   1.899153
 P1      -C4      :   1.876757      P1      -C5      :   1.888849
 Pd2     -Br3     :   2.767312      Pd2     -C76     :   2.034271
 Br3     -C76     :   2.156391      C73     -C74     :   1.390096
 C73     -C78     :   1.387946      C73     -F79     :   1.355178
 C74     -C75     :   1.391586      C74     -H80     :   1.084920
 C75     -C76     :   1.409708      C75     -H81     :   1.083884
 C76     -C77     :   1.408288      C77     -C78     :   1.396016
 C77     -H82     :   1.084714      C78     -H83     :   1.086401
 C3      -C6      :   1.543442      C3      -C10     :   1.543484
 C3      -H36     :   1.111908      C4      -C11     :   1.541624
 C4      -C15     :   1.544413      C4      -H47     :   1.114159
 C5      -C16     :   1.412154      C5      -C20     :   1.432529
 C6      -C7      :   1.536446      C6      -H37     :   1.113630
 C6      -H38     :   1.115038      C7      -C8      :   1.533673
 C7      -H39     :   1.116341      C7      -H40     :   1.116762
 C8      -C9      :   1.533425      C8      -H41     :   1.116139
 C8      -H42     :   1.116656      C9      -C10     :   1.537088
 C9      -H43     :   1.116389      C9      -H44     :   1.116737
 C10     -H45     :   1.111895      C10     -H46     :   1.114425
 C11     -C12     :   1.535051      C11     -H48     :   1.111963
 C11     -H49     :   1.115355      C12     -C13     :   1.533665
 C12     -H50     :   1.116675      C12     -H51     :   1.116082
 C13     -C14     :   1.533864      C13     -H52     :   1.116553
 C13     -H53     :   1.116282      C14     -C15     :   1.536447
 C14     -H54     :   1.116822      C14     -H55     :   1.116116
 C15     -H56     :   1.112138      C15     -H57     :   1.112949
 C16     -C17     :   1.397894      C16     -H58     :   1.100073
 C17     -C18     :   1.393135      C17     -H59     :   1.103241
 C18     -C19     :   1.399801      C18     -H60     :   1.103367
 C19     -C20     :   1.414537      C19     -H61     :   1.097972
 C20     -C21     :   1.431688      C21     -C22     :   1.434595
 C21     -C26     :   1.425971      C22     -C23     :   1.407227
 C22     -C29     :   1.532425      C23     -C24     :   1.396094
 C23     -H62     :   1.098835      C24     -C25     :   1.396542
 C24     -C31     :   1.514955      C25     -C26     :   1.408165
 C25     -H63     :   1.097568      C26     -C27     :   1.518178
 C27     -C28     :   1.539942      C27     -C32     :   1.544180
 C27     -H64     :   1.094644      C28     -H65     :   1.113996
 C28     -H66     :   1.113035      C28     -H67     :   1.114440
 C29     -C30     :   1.547246      C29     -C33     :   1.542397
 C29     -H68     :   1.112669      C30     -H69     :   1.112563
 C30     -H70     :   1.115030      C30     -H71     :   1.112982
 C31     -C34     :   1.537055      C31     -C35     :   1.537453
 C31     -H72     :   1.117264      C32     -H73     :   1.113992
 C32     -H74     :   1.114805      C32     -H75     :   1.113684
 C33     -H76     :   1.113364      C33     -H77     :   1.114359
 C33     -H78     :   1.112655      C34     -H79     :   1.113667
 C34     -H92     :   1.114439      C34     -H93     :   1.114776
 C35     -H94     :   1.113427      C35     -H95     :   1.114531
 C35     -H84     :   1.114453
 
  bond angles:
 
 C3      -P1      -Pd2     : 114.261015  C4      -P1      -Pd2     : 104.413004
 C4      -P1      -C3      : 107.773617  C5      -P1      -Pd2     : 114.858201
 C5      -P1      -C3      : 107.614511  C5      -P1      -C4      : 107.477575
 Br3     -Pd2     -P1      : 162.920610  C76     -Pd2     -P1      : 134.229445
 C76     -Pd2     -Br3     :  50.600870  C76     -Br3     -Pd2     :  46.801082
 C78     -C73     -C74     : 122.725126  F79     -C73     -C74     : 118.570871
 F79     -C73     -C78     : 118.703960  C75     -C74     -C73     : 119.007012
 H80     -C74     -C73     : 119.861843  H80     -C74     -C75     : 121.098960
 C76     -C75     -C74     : 118.799927  H81     -C75     -C74     : 120.677739
 H81     -C75     -C76     : 120.445769  Br3     -C76     -Pd2     :  82.598047
 C75     -C76     -Pd2     : 104.864201  C75     -C76     -Br3     : 116.634448
 C77     -C76     -Pd2     : 104.578646  C77     -C76     -Br3     : 116.542285
 C77     -C76     -C75     : 121.389509  C78     -C77     -C76     : 118.636478
 H82     -C77     -C76     : 120.387739  H82     -C77     -C78     : 120.965076
 C77     -C78     -C73     : 119.041570  H83     -C78     -C73     : 119.721544
 H83     -C78     -C77     : 121.236849  C6      -C3      -P1      : 115.482193
 C10     -C3      -P1      : 116.323207  C10     -C3      -C6      : 107.643956
 H36     -C3      -P1      : 106.434200  H36     -C3      -C6      : 103.807101
 H36     -C3      -C10     : 105.980486  C11     -C4      -P1      : 110.738068
 C15     -C4      -P1      : 116.008863  C15     -C4      -C11     : 107.311688
 H47     -C4      -P1      : 107.282423  H47     -C4      -C11     : 108.514083
 H47     -C4      -C15     : 106.717762  C16     -C5      -P1      : 108.666711
 C20     -C5      -P1      : 132.399612  C20     -C5      -C16     : 118.691726
 C7      -C6      -C3      : 112.073554  H37     -C6      -C3      : 109.901496
 H37     -C6      -C7      : 107.922155  H38     -C6      -C3      : 110.280278
 H38     -C6      -C7      : 108.340464  H38     -C6      -H37     : 108.210788
 C8      -C7      -C6      : 110.503273  H39     -C7      -C6      : 109.763661
 H39     -C7      -C8      : 109.811721  H40     -C7      -C6      : 109.981518
 H40     -C7      -C8      : 109.779500  H40     -C7      -H39     : 106.933685
 C9      -C8      -C7      : 110.321973  H41     -C8      -C7      : 109.581516
 H41     -C8      -C9      : 109.486077  H42     -C8      -C7      : 110.096731
 H42     -C8      -C9      : 110.132310  H42     -C8      -H41     : 107.163976
 C10     -C9      -C8      : 111.252501  H43     -C9      -C8      : 109.422610
 H43     -C9      -C10     : 109.472841  H44     -C9      -C8      : 109.733808
 H44     -C9      -C10     : 109.953059  H44     -C9      -H43     : 106.904606
 C9      -C10     -C3      : 112.088856  H45     -C10     -C3      : 110.938019
 H45     -C10     -C9      : 107.560842  H46     -C10     -C3      : 109.809666
 H46     -C10     -C9      : 109.121575  H46     -C10     -H45     : 107.167792
 C12     -C11     -C4      : 111.947817  H48     -C11     -C4      : 111.126341
 H48     -C11     -C12     : 108.669593  H49     -C11     -C4      : 109.494682
 H49     -C11     -C12     : 109.304054  H49     -C11     -H48     : 106.116356
 C13     -C12     -C11     : 110.810925  H50     -C12     -C11     : 109.999579
 H50     -C12     -C13     : 109.782118  H51     -C12     -C11     : 109.445619
 H51     -C12     -C13     : 109.658877  H51     -C12     -H50     : 107.066825
 C14     -C13     -C12     : 110.394373  H52     -C13     -C12     : 110.119025
 H52     -C13     -C14     : 110.135780  H53     -C13     -C12     : 109.467225
 H53     -C13     -C14     : 109.488770  H53     -C13     -H52     : 107.174175
 C15     -C14     -C13     : 110.762982  H54     -C14     -C13     : 109.713864
 H54     -C14     -C15     : 110.022673  H55     -C14     -C13     : 109.674910
 H55     -C14     -C15     : 109.581676  H55     -C14     -H54     : 107.008477
 C14     -C15     -C4      : 111.623363  H56     -C15     -C4      : 110.278116
 H56     -C15     -C14     : 108.463277  H57     -C15     -C4      : 111.473754
 H57     -C15     -C14     : 108.319006  H57     -C15     -H56     : 106.497701
 C17     -C16     -C5      : 124.217200  H58     -C16     -C5      : 120.848301
 H58     -C16     -C17     : 114.925303  C18     -C17     -C16     : 117.799910
 H59     -C17     -C16     : 121.320683  H59     -C17     -C18     : 120.879109
 C19     -C18     -C17     : 118.549764  H60     -C18     -C17     : 120.393212
 H60     -C18     -C19     : 121.054346  C20     -C19     -C18     : 125.493203
 H61     -C19     -C18     : 113.811468  H61     -C19     -C20     : 120.607624
 C19     -C20     -C5      : 115.242330  C21     -C20     -C5      : 131.189824
 C21     -C20     -C19     : 113.543362  C22     -C21     -C20     : 119.791946
 C26     -C21     -C20     : 123.273644  C26     -C21     -C22     : 116.928869
 C23     -C22     -C21     : 119.904664  C29     -C22     -C21     : 126.541026
 C29     -C22     -C23     : 113.328583  C24     -C23     -C22     : 123.548685
 H62     -C23     -C22     : 119.921626  H62     -C23     -C24     : 116.521233
 C25     -C24     -C23     : 115.990880  C31     -C24     -C23     : 122.108125
 C31     -C24     -C25     : 121.899906  C26     -C25     -C24     : 123.300690
 H63     -C25     -C24     : 115.583359  H63     -C25     -C26     : 121.100024
 C25     -C26     -C21     : 120.300498  C27     -C26     -C21     : 123.097554
 C27     -C26     -C25     : 116.224601  C28     -C27     -C26     : 109.896754
 C32     -C27     -C26     : 117.787228  C32     -C27     -C28     : 108.155152
 H64     -C27     -C26     : 107.223138  H64     -C27     -C28     : 108.418300
 H64     -C27     -C32     : 104.940131  H65     -C28     -C27     : 110.668567
 H66     -C28     -C27     : 112.503659  H66     -C28     -H65     : 107.393434
 H67     -C28     -C27     : 111.380856  H67     -C28     -H65     : 107.887459
 H67     -C28     -H66     : 106.772892  C30     -C29     -C22     : 112.555587
 C33     -C29     -C22     : 112.359782  C33     -C29     -C30     : 108.637683
 H68     -C29     -C22     : 111.683017  H68     -C29     -C30     : 101.432272
 H68     -C29     -C33     : 109.601633  H69     -C30     -C29     : 113.388366
 H70     -C30     -C29     : 111.053937  H70     -C30     -H69     : 106.231420
 H71     -C30     -C29     : 111.477463  H71     -C30     -H69     : 107.439950
 H71     -C30     -H70     : 106.883515  C34     -C31     -C24     : 110.446558
 C35     -C31     -C24     : 111.494094  C35     -C31     -C34     : 111.432369
 H72     -C31     -C24     : 109.038366  H72     -C31     -C34     : 107.201819
 H72     -C31     -C35     : 107.047248  H73     -C32     -C27     : 112.138112
 H74     -C32     -C27     : 110.858412  H74     -C32     -H73     : 106.195378
 H75     -C32     -C27     : 111.815032  H75     -C32     -H73     : 108.704750
 H75     -C32     -H74     : 106.832867  H76     -C33     -C29     : 111.942282
 H77     -C33     -C29     : 110.991852  H77     -C33     -H76     : 107.079595
 H78     -C33     -C29     : 112.533607  H78     -C33     -H76     : 106.615761
 H78     -C33     -H77     : 107.367641  H79     -C34     -C31     : 111.823074
 H92     -C34     -C31     : 111.128127  H92     -C34     -H79     : 107.454765
 H93     -C34     -C31     : 110.846305  H93     -C34     -H79     : 107.750706
 H93     -C34     -H92     : 107.649001  H94     -C35     -C31     : 112.056905
 H95     -C35     -C31     : 110.827592  H95     -C35     -H94     : 107.847659
 H84     -C35     -C31     : 111.033461  H84     -C35     -H94     : 107.258556
 H84     -C35     -H95     : 107.618818
 
  torsional angles:
 
 P1      -Pd2     -Br3     -C76     : 113.585282
 P1      -Pd2     -C76     -Br3     :-157.936381
 P1      -Pd2     -C76     -C75     : -42.263337
 P1      -Pd2     -C76     -C77     :  86.480728
 P1      -C3      -C6      -C7      : 170.312141
 P1      -C3      -C6      -H37     : -69.690300
 P1      -C3      -C6      -H38     :  49.525700
 P1      -C3      -C10     -C9      :-171.775272
 P1      -C3      -C10     -H45     : -51.515570
 P1      -C3      -C10     -H46     :  66.762044
 P1      -C4      -C11     -C12     :-174.123033
 P1      -C4      -C11     -H48     : -52.407923
 P1      -C4      -C11     -H49     :  64.494853
 P1      -C4      -C15     -C14     : 177.116189
 P1      -C4      -C15     -H56     : -62.243884
 P1      -C4      -C15     -H57     :  55.833774
 P1      -C5      -C16     -C17     : 175.890179
 P1      -C5      -C16     -H58     :  -2.949598
 P1      -C5      -C20     -C19     :-174.503172
 P1      -C5      -C20     -C21     :   7.440696
 Pd2     -P1      -C3      -C6      :-147.351771
 Pd2     -P1      -C3      -C10     :  85.030040
 Pd2     -P1      -C3      -H36     : -32.756134
 Pd2     -P1      -C4      -C11     : -33.971857
 Pd2     -P1      -C4      -C15     :  88.628897
 Pd2     -P1      -C4      -H47     :-152.226625
 Pd2     -P1      -C5      -C16     :-162.946211
 Pd2     -P1      -C5      -C20     :  11.158518
 Pd2     -Br3     -C76     -C75     :-102.958243
 Pd2     -Br3     -C76     -C77     : 102.640667
 Pd2     -C76     -C75     -C74     : 110.681618
 Pd2     -C76     -C75     -H81     : -66.158207
 Pd2     -C76     -C77     -C78     :-110.762977
 Pd2     -C76     -C77     -H82     :  68.058233
 Br3     -Pd2     -P1      -C3      :-126.000000
 Br3     -Pd2     -P1      -C4      :  -8.513660
 Br3     -Pd2     -P1      -C5      : 108.926520
 Br3     -Pd2     -C76     -C75     : 115.673044
 Br3     -Pd2     -C76     -C77     :-115.582891
 Br3     -C76     -C75     -C74     :-160.235470
 Br3     -C76     -C75     -H81     :  22.924705
 Br3     -C76     -C77     -C78     : 160.319162
 Br3     -C76     -C77     -H82     : -20.859629
 C73     -C74     -C75     -C76     :   2.788945
 C73     -C74     -C75     -H81     : 179.621198
 C73     -C78     -C77     -C76     :  -2.927155
 C73     -C78     -C77     -H82     : 178.258704
 C74     -C73     -C78     -C77     :  -1.328160
 C74     -C73     -C78     -H83     : 178.741364
 C74     -C75     -C76     -C77     :  -7.158916
 C75     -C74     -C73     -C78     :   1.400090
 C75     -C74     -C73     -F79     :-178.676353
 C75     -C76     -C77     -C78     :   7.219193
 C75     -C76     -C77     -H82     :-173.959597
 C76     -Pd2     -P1      -C3      : -27.239433
 C76     -Pd2     -P1      -C4      :  90.246906
 C76     -Pd2     -P1      -C5      :-152.312913
 C76     -C75     -C74     -H80     :-175.144442
 C76     -C77     -C78     -H83     : 177.002230
 C77     -C76     -C75     -H81     : 176.001259
 C77     -C78     -C73     -F79     : 178.748380
 C78     -C73     -C74     -H80     : 179.359586
 F79     -C73     -C74     -H80     :  -0.716857
 F79     -C73     -C78     -H83     :  -1.182096
 H80     -C74     -C75     -H81     :   1.687812
 H82     -C77     -C78     -H83     :  -1.811911
 C3      -P1      -C4      -C11     :  87.891372
 C3      -P1      -C4      -C15     :-149.507873
 C3      -P1      -C4      -H47     : -30.363395
 C3      -P1      -C5      -C16     :  68.575132
 C3      -P1      -C5      -C20     :-117.320139
 C3      -C6      -C7      -C8      :  58.739691
 C3      -C6      -C7      -H39     : -62.516410
 C3      -C6      -C7      -H40     :-179.901248
 C3      -C10     -C9      -C8      : -57.176607
 C3      -C10     -C9      -H43     :  63.885387
 C3      -C10     -C9      -H44     :-178.954189
 C4      -P1      -C3      -C6      :  97.105682
 C4      -P1      -C3      -C10     : -30.512507
 C4      -P1      -C3      -H36     :-148.298681
 C4      -P1      -C5      -C16     : -47.257531
 C4      -P1      -C5      -C20     : 126.847198
 C4      -C11     -C12     -C13     : -58.164312
 C4      -C11     -C12     -H50     :-179.740867
 C4      -C11     -C12     -H51     :  62.890635
 C4      -C15     -C14     -C13     :  58.611595
 C4      -C15     -C14     -H54     :-179.913842
 C4      -C15     -C14     -H55     : -62.521935
 C5      -P1      -C3      -C6      : -18.531854
 C5      -P1      -C3      -C10     :-146.150043
 C5      -P1      -C3      -H36     :  96.063783
 C5      -P1      -C4      -C11     :-156.381057
 C5      -P1      -C4      -C15     : -33.780303
 C5      -P1      -C4      -H47     :  85.364175
 C5      -C16     -C17     -C18     :  -0.326790
 C5      -C16     -C17     -H59     : 179.870300
 C5      -C20     -C19     -C18     :   0.486073
 C5      -C20     -C19     -H61     :-175.891602
 C5      -C20     -C21     -C22     :-104.952873
 C5      -C20     -C21     -C26     :  75.930427
 C6      -C3      -C10     -C9      :  56.844316
 C6      -C3      -C10     -H45     : 177.104018
 C6      -C3      -C10     -H46     : -64.618369
 C6      -C7      -C8      -C9      : -55.963191
 C6      -C7      -C8      -H41     :  64.653691
 C6      -C7      -C8      -H42     :-177.721356
 C7      -C6      -C3      -C10     : -57.847589
 C7      -C6      -C3      -H36     :  54.217656
 C7      -C8      -C9      -C10     :  55.413848
 C7      -C8      -C9      -H43     : -65.677574
 C7      -C8      -C9      -H44     : 177.318838
 C8      -C7      -C6      -H37     : -62.405908
 C8      -C7      -C6      -H38     :-179.357826
 C8      -C9      -C10     -H45     :-179.381508
 C8      -C9      -C10     -H46     :  64.680474
 C9      -C8      -C7      -H39     :  65.264405
 C9      -C8      -C7      -H40     :-177.441842
 C9      -C10     -C3      -H36     : -53.740132
 C10     -C3      -C6      -H37     :  62.149969
 C10     -C3      -C6      -H38     :-178.634030
 C10     -C9      -C8      -H41     : -65.260185
 C10     -C9      -C8      -H42     : 177.150954
 C11     -C4      -C15     -C14     : -58.497245
 C11     -C4      -C15     -H56     :  62.142682
 C11     -C4      -C15     -H57     :-179.779661
 C11     -C12     -C13     -C14     :  55.349695
 C11     -C12     -C13     -H52     : 177.174843
 C11     -C12     -C13     -H53     : -65.242998
 C12     -C11     -C4      -C15     :  58.348698
 C12     -C11     -C4      -H47     : -56.620220
 C12     -C13     -C14     -C15     : -55.661573
 C12     -C13     -C14     -H54     :-177.317776
 C12     -C13     -C14     -H55     :  65.416849
 C13     -C12     -C11     -H48     : 178.720059
 C13     -C12     -C11     -H49     :  63.327616
 C13     -C14     -C15     -H56     : -63.083311
 C13     -C14     -C15     -H57     :-178.291834
 C14     -C13     -C12     -H50     : 177.053943
 C14     -C13     -C12     -H51     : -65.579163
 C14     -C15     -C4      -H47     :  57.664056
 C15     -C4      -C11     -H48     :-179.936192
 C15     -C4      -C11     -H49     : -63.033416
 C15     -C14     -C13     -H52     :-177.476826
 C15     -C14     -C13     -H53     :  64.918228
 C16     -C5      -C20     -C19     :  -0.871968
 C16     -C5      -C20     -C21     :-178.928100
 C16     -C17     -C18     -C19     :  -0.115384
 C16     -C17     -C18     -H60     : 179.295595
 C17     -C16     -C5      -C20     :   0.850394
 C17     -C18     -C19     -C20     :   0.015970
 C17     -C18     -C19     -H61     : 176.608522
 C18     -C17     -C16     -H58     : 178.574828
 C18     -C19     -C20     -C21     : 178.890526
 C19     -C18     -C17     -H59     : 179.688440
 C19     -C20     -C21     -C22     :  76.965019
 C19     -C20     -C21     -C26     :-102.151681
 C20     -C5      -C16     -H58     :-177.989384
 C20     -C19     -C18     -H60     :-179.390956
 C20     -C21     -C22     -C23     : 179.481969
 C20     -C21     -C22     -C29     :   5.321845
 C20     -C21     -C26     -C25     :-179.160890
 C20     -C21     -C26     -C27     :   8.161320
 C21     -C20     -C19     -H61     :   2.512850
 C21     -C22     -C23     -C24     :  -0.039720
 C21     -C22     -C23     -H62     :-178.944142
 C21     -C22     -C29     -C30     : 118.541309
 C21     -C22     -C29     -C33     :-118.431226
 C21     -C22     -C29     -H68     :   5.205769
 C21     -C26     -C25     -C24     :  -0.703109
 C21     -C26     -C25     -H63     :-179.186516
 C21     -C26     -C27     -C28     :  64.015094
 C21     -C26     -C27     -C32     :-171.562749
 C21     -C26     -C27     -H64     : -53.629150
 C22     -C21     -C26     -C25     :   1.698894
 C22     -C21     -C26     -C27     :-170.978896
 C22     -C23     -C24     -C25     :   1.063186
 C22     -C23     -C24     -C31     :-179.309854
 C22     -C29     -C30     -H69     :  66.147975
 C22     -C29     -C30     -H70     :-174.326432
 C22     -C29     -C30     -H71     : -55.256123
 C22     -C29     -C33     -H76     : -67.563930
 C22     -C29     -C33     -H77     : 172.850607
 C22     -C29     -C33     -H78     :  52.496295
 C23     -C22     -C21     -C26     :  -1.346332
 C23     -C22     -C29     -C30     : -55.946705
 C23     -C22     -C29     -C33     :  67.080760
 C23     -C22     -C29     -H68     :-169.282245
 C23     -C24     -C25     -C26     :  -0.691187
 C23     -C24     -C25     -H63     : 177.869064
 C23     -C24     -C31     -C34     :  65.047922
 C23     -C24     -C31     -C35     : -59.419190
 C23     -C24     -C31     -H72     :-177.401025
 C24     -C23     -C22     -C29     : 174.852705
 C24     -C25     -C26     -C27     : 172.461322
 C24     -C31     -C34     -H79     : -63.734219
 C24     -C31     -C34     -H92     : 176.190600
 C24     -C31     -C34     -H93     :  56.524026
 C24     -C31     -C35     -H94     :  64.402819
 C24     -C31     -C35     -H95     : -56.124379
 C24     -C31     -C35     -H84     :-175.678488
 C25     -C24     -C23     -H62     :-179.998031
 C25     -C24     -C31     -C34     :-115.347039
 C25     -C24     -C31     -C35     : 120.185849
 C25     -C24     -C31     -H72     :   2.204013
 C25     -C26     -C27     -C28     :-108.939006
 C25     -C26     -C27     -C32     :  15.483150
 C25     -C26     -C27     -H64     : 133.416749
 C26     -C21     -C22     -C29     :-175.506457
 C26     -C25     -C24     -C31     : 179.681006
 C26     -C27     -C28     -H65     :  62.443561
 C26     -C27     -C28     -H66     : -57.696446
 C26     -C27     -C28     -H67     :-177.540986
 C26     -C27     -C32     -H73     : -70.360721
 C26     -C27     -C32     -H74     : 171.133573
 C26     -C27     -C32     -H75     :  52.035152
 C27     -C26     -C25     -H63     :  -6.022085
 C28     -C27     -C32     -H73     :  54.923868
 C28     -C27     -C32     -H74     : -63.581837
 C28     -C27     -C32     -H75     : 177.319741
 C29     -C22     -C23     -H62     :  -4.051717
 C30     -C29     -C33     -H76     :  57.637632
 C30     -C29     -C33     -H77     : -61.947831
 C30     -C29     -C33     -H78     : 177.697857
 C31     -C24     -C23     -H62     :  -0.371070
 C31     -C24     -C25     -H63     :  -1.758744
 C32     -C27     -C28     -H65     : -67.381240
 C32     -C27     -C28     -H66     : 172.478754
 C32     -C27     -C28     -H67     :  52.634213
 C33     -C29     -C30     -H69     : -58.938616
 C33     -C29     -C30     -H70     :  60.586977
 C33     -C29     -C30     -H71     : 179.657286
 C34     -C31     -C35     -H94     : -59.508997
 C34     -C31     -C35     -H95     : 179.963805
 C34     -C31     -C35     -H84     :  60.409695
 C35     -C31     -C34     -H79     :  60.768224
 C35     -C31     -C34     -H92     : -59.306957
 C35     -C31     -C34     -H93     :-178.973532
 H36     -C3      -C6      -H37     : 174.215214
 H36     -C3      -C6      -H38     : -66.568786
 H36     -C3      -C10     -H45     :  66.519570
 H36     -C3      -C10     -H46     :-175.202817
 H37     -C6      -C7      -H39     : 176.337991
 H37     -C6      -C7      -H40     :  58.953153
 H38     -C6      -C7      -H39     :  59.386074
 H38     -C6      -C7      -H40     : -57.998765
 H39     -C7      -C8      -H41     :-174.118713
 H39     -C7      -C8      -H42     : -56.493760
 H40     -C7      -C8      -H41     : -56.824960
 H40     -C7      -C8      -H42     :  60.799993
 H41     -C8      -C9      -H43     : 173.648392
 H41     -C8      -C9      -H44     :  56.644805
 H42     -C8      -C9      -H43     :  56.059532
 H42     -C8      -C9      -H44     : -60.944056
 H43     -C9      -C10     -H45     : -58.319514
 H43     -C9      -C10     -H46     :-174.257532
 H44     -C9      -C10     -H45     :  58.840909
 H44     -C9      -C10     -H46     : -57.097108
 H47     -C4      -C11     -H48     :  65.094890
 H47     -C4      -C11     -H49     :-178.002334
 H47     -C4      -C15     -H56     : 178.303983
 H47     -C4      -C15     -H57     : -63.618359
 H48     -C11     -C12     -H50     :  57.143503
 H48     -C11     -C12     -H51     : -60.224995
 H49     -C11     -C12     -H50     : -58.248939
 H49     -C11     -C12     -H51     :-175.617437
 H50     -C12     -C13     -H52     : -61.120909
 H50     -C12     -C13     -H53     :  56.461249
 H51     -C12     -C13     -H52     :  56.245985
 H51     -C12     -C13     -H53     : 173.828144
 H52     -C13     -C14     -H54     :  60.866972
 H52     -C13     -C14     -H55     : -56.398403
 H53     -C13     -C14     -H54     : -56.737974
 H53     -C13     -C14     -H55     :-174.003349
 H54     -C14     -C15     -H56     :  58.391252
 H54     -C14     -C15     -H57     : -56.817271
 H55     -C14     -C15     -H56     : 175.783159
 H55     -C14     -C15     -H57     :  60.574636
 H58     -C16     -C17     -H59     :  -1.228082
 H59     -C17     -C18     -H60     :  -0.900581
 H60     -C18     -C19     -H61     :  -2.798404
 H64     -C27     -C28     -H65     : 179.342506
 H64     -C27     -C28     -H66     :  59.202500
 H64     -C27     -C28     -H67     : -60.642041
 H64     -C27     -C32     -H73     : 170.495332
 H64     -C27     -C32     -H74     :  51.989627
 H64     -C27     -C32     -H75     : -67.108794
 H68     -C29     -C30     -H69     :-174.369046
 H68     -C29     -C30     -H70     : -54.843453
 H68     -C29     -C30     -H71     :  64.226856
 H68     -C29     -C33     -H76     : 167.645815
 H68     -C29     -C33     -H77     :  48.060352
 H68     -C29     -C33     -H78     : -72.293960
 H72     -C31     -C34     -H79     : 177.589756
 H72     -C31     -C34     -H92     :  57.514575
 H72     -C31     -C34     -H93     : -62.152000
 H72     -C31     -C35     -H94     :-176.424530
 H72     -C31     -C35     -H95     :  63.048272
 H72     -C31     -C35     -H84     : -56.505837
 
  nuclear repulsion energy.......          6191.275658128 hartrees
  
  Detected an organometallic with only one TM atom. 
  
  
 
  Will use High-Quality Initial guess for organometallics
       including d-d repulsion (iguess=30)
 
 Non-default options chosen:
   SCF calculation type: DFT(b3pw91-d3)              
   DFT=Becke_3_Parameter/HF+Slater+Becke88+PW91+PW-GGAIIC (B3PW91-D3)
   Transition state optimization
   Geometry will be optimized in redundant internal coordinates
   Culot/Fletcher trust radius adjustment
      initial trust radius:  0.100
   P-RFO level-shifting used
   Solvation energy will be computed using PBF
     -solute cavity energy will not be included
     -surface area terms will not be included
   Vibrational frequencies and related properties will be computed
      from analytic second derivatives
   IR intensities will be computed
   Thermochemical properties will be computed
   Maximum number of geometry steps: 100
   Scaling standard convergence criteria by a factor of   5.00
   Mixed Murtagh-Sargent/Powell Hessian-updating used
   Solvent: benzene                                                         
   Internal dielectric constant:    1.000
   Continuum dielectric constant:   2.283
   Solvent probe molecule radius:   2.600
  
 Non-default print settings:
     11=  2
  
 Temporary integer options set:
     21= -1  73=  2
  
  atom       vdw   vdw2    cov     mass  grid  daf  charge   basis
  P1        2.147  2.074  1.060   30.974    Y    Y      Y    ps_6-31g*
  Pd2       1.450  1.450  1.280  105.903    Y    Y      Y    lacv3p*
  Br3       2.095  2.095  1.140   78.918    Y    Y      Y    lav3p*
  C73       1.949  1.900  0.770   12.000    Y    Y      Y    ps_6-31g*
  C74       1.949  1.900  0.770   12.000    Y    Y      Y    ps_6-31g*
  C75       1.949  1.900  0.770   12.000    Y    Y      Y    ps_6-31g*
  C76       1.949  1.900  0.770   12.000    Y    Y      Y    ps_6-31g*
  C77       1.949  1.900  0.770   12.000    Y    Y      Y    ps_6-31g*
  C78       1.949  1.900  0.770   12.000    Y    Y      Y    ps_6-31g*
  F79       1.736  1.682  0.720   18.998    Y    Y      Y    ps_6-31g*
  H80       1.597  1.150  0.320    1.008    Y    Y      Y    ps_6-31g*
  H81       1.597  1.150  0.320    1.008    Y    Y      Y    ps_6-31g*
  H82       1.597  1.150  0.320    1.008    Y    Y      Y    ps_6-31g*
  H83       1.597  1.150  0.320    1.008    Y    Y      Y    ps_6-31g*
  C3        1.949  1.900  0.770   12.000    Y    Y      Y    ps_6-31g*
  C4        1.949  1.900  0.770   12.000    Y    Y      Y    ps_6-31g*
  C5        1.949  1.900  0.770   12.000    Y    Y      Y    ps_6-31g*
  C6        1.949  1.900  0.770   12.000    Y    Y      Y    ps_6-31g*
  C7        1.949  1.900  0.770   12.000    Y    Y      Y    ps_6-31g*
  C8        1.949  1.900  0.770   12.000    Y    Y      Y    ps_6-31g*
  C9        1.949  1.900  0.770   12.000    Y    Y      Y    ps_6-31g*
  C10       1.949  1.900  0.770   12.000    Y    Y      Y    ps_6-31g*
  C11       1.949  1.900  0.770   12.000    Y    Y      Y    ps_6-31g*
  C12       1.949  1.900  0.770   12.000    Y    Y      Y    ps_6-31g*
  C13       1.949  1.900  0.770   12.000    Y    Y      Y    ps_6-31g*
  C14       1.949  1.900  0.770   12.000    Y    Y      Y    ps_6-31g*
  C15       1.949  1.900  0.770   12.000    Y    Y      Y    ps_6-31g*
  C16       1.949  1.900  0.770   12.000    Y    Y      Y    ps_6-31g*
  C17       1.949  1.900  0.770   12.000    Y    Y      Y    ps_6-31g*
  C18       1.949  1.900  0.770   12.000    Y    Y      Y    ps_6-31g*
  C19       1.949  1.900  0.770   12.000    Y    Y      Y    ps_6-31g*
  C20       1.949  1.900  0.770   12.000    Y    Y      Y    ps_6-31g*
  C21       1.949  1.900  0.770   12.000    Y    Y      Y    ps_6-31g*
  C22       1.949  1.900  0.770   12.000    Y    Y      Y    ps_6-31g*
  C23       1.949  1.900  0.770   12.000    Y    Y      Y    ps_6-31g*
  C24       1.949  1.900  0.770   12.000    Y    Y      Y    ps_6-31g*
  C25       1.949  1.900  0.770   12.000    Y    Y      Y    ps_6-31g*
  C26       1.949  1.900  0.770   12.000    Y    Y      Y    ps_6-31g*
  C27       1.949  1.900  0.770   12.000    Y    Y      Y    ps_6-31g*
  C28       1.949  1.900  0.770   12.000    Y    Y      Y    ps_6-31g*
  C29       1.949  1.900  0.770   12.000    Y    Y      Y    ps_6-31g*
  C30       1.949  1.900  0.770   12.000    Y    Y      Y    ps_6-31g*
  C31       1.949  1.900  0.770   12.000    Y    Y      Y    ps_6-31g*
  C32       1.949  1.900  0.770   12.000    Y    Y      Y    ps_6-31g*
  C33       1.949  1.900  0.770   12.000    Y    Y      Y    ps_6-31g*
  C34       1.949  1.900  0.770   12.000    Y    Y      Y    ps_6-31g*
  C35       1.949  1.900  0.770   12.000    Y    Y      Y    ps_6-31g*
  H36       1.597  1.150  0.320    1.008    Y    Y      Y    ps_6-31g*
  H37       1.597  1.150  0.320    1.008    Y    Y      Y    ps_6-31g*
  H38       1.597  1.150  0.320    1.008    Y    Y      Y    ps_6-31g*
  H39       1.597  1.150  0.320    1.008    Y    Y      Y    ps_6-31g*
  H40       1.597  1.150  0.320    1.008    Y    Y      Y    ps_6-31g*
  H41       1.597  1.150  0.320    1.008    Y    Y      Y    ps_6-31g*
  H42       1.597  1.150  0.320    1.008    Y    Y      Y    ps_6-31g*
  H43       1.597  1.150  0.320    1.008    Y    Y      Y    ps_6-31g*
  H44       1.597  1.150  0.320    1.008    Y    Y      Y    ps_6-31g*
  H45       1.597  1.150  0.320    1.008    Y    Y      Y    ps_6-31g*
  H46       1.597  1.150  0.320    1.008    Y    Y      Y    ps_6-31g*
  H47       1.597  1.150  0.320    1.008    Y    Y      Y    ps_6-31g*
  H48       1.597  1.150  0.320    1.008    Y    Y      Y    ps_6-31g*
  H49       1.597  1.150  0.320    1.008    Y    Y      Y    ps_6-31g*
  H50       1.597  1.150  0.320    1.008    Y    Y      Y    ps_6-31g*
  H51       1.597  1.150  0.320    1.008    Y    Y      Y    ps_6-31g*
  H52       1.597  1.150  0.320    1.008    Y    Y      Y    ps_6-31g*
  H53       1.597  1.150  0.320    1.008    Y    Y      Y    ps_6-31g*
  H54       1.597  1.150  0.320    1.008    Y    Y      Y    ps_6-31g*
  H55       1.597  1.150  0.320    1.008    Y    Y      Y    ps_6-31g*
  H56       1.597  1.150  0.320    1.008    Y    Y      Y    ps_6-31g*
  H57       1.597  1.150  0.320    1.008    Y    Y      Y    ps_6-31g*
  H58       1.597  1.150  0.320    1.008    Y    Y      Y    ps_6-31g*
  H59       1.597  1.150  0.320    1.008    Y    Y      Y    ps_6-31g*
  H60       1.597  1.150  0.320    1.008    Y    Y      Y    ps_6-31g*
  H61       1.597  1.150  0.320    1.008    Y    Y      Y    ps_6-31g*
  H62       1.597  1.150  0.320    1.008    Y    Y      Y    ps_6-31g*
  H63       1.597  1.150  0.320    1.008    Y    Y      Y    ps_6-31g*
  H64       1.597  1.150  0.320    1.008    Y    Y      Y    ps_6-31g*
  H65       1.597  1.150  0.320    1.008    Y    Y      Y    ps_6-31g*
  H66       1.597  1.150  0.320    1.008    Y    Y      Y    ps_6-31g*
  H67       1.597  1.150  0.320    1.008    Y    Y      Y    ps_6-31g*
  H68       1.597  1.150  0.320    1.008    Y    Y      Y    ps_6-31g*
  H69       1.597  1.150  0.320    1.008    Y    Y      Y    ps_6-31g*
  H70       1.597  1.150  0.320    1.008    Y    Y      Y    ps_6-31g*
  H71       1.597  1.150  0.320    1.008    Y    Y      Y    ps_6-31g*
  H72       1.597  1.150  0.320    1.008    Y    Y      Y    ps_6-31g*
  H73       1.597  1.150  0.320    1.008    Y    Y      Y    ps_6-31g*
  H74       1.597  1.150  0.320    1.008    Y    Y      Y    ps_6-31g*
  H75       1.597  1.150  0.320    1.008    Y    Y      Y    ps_6-31g*
  H76       1.597  1.150  0.320    1.008    Y    Y      Y    ps_6-31g*
  H77       1.597  1.150  0.320    1.008    Y    Y      Y    ps_6-31g*
  H78       1.597  1.150  0.320    1.008    Y    Y      Y    ps_6-31g*
  H79       1.597  1.150  0.320    1.008    Y    Y      Y    ps_6-31g*
  H92       1.597  1.150  0.320    1.008    Y    Y      Y    ps_6-31g*
  H93       1.597  1.150  0.320    1.008    Y    Y      Y    ps_6-31g*
  H94       1.597  1.150  0.320    1.008    Y    Y      Y    ps_6-31g*
  H95       1.597  1.150  0.320    1.008    Y    Y      Y    ps_6-31g*
  H84       1.597  1.150  0.320    1.008    Y    Y      Y    ps_6-31g*
 
  atom      formal  2spin      esp    mulk    frag
  P1           0       0        Y    0.000       0
  Pd2          0       0        Y    0.000       0
  Br3          0       0        Y    0.000       0
  
  end of program pre
   
 Time(pre)  user:       1.052  user+sys:       1.052  wallclock:       1.166
  
  start of program onee
  
  smallest eigenvalue of S:    3.055E-04
  number of canonical orbitals.....          722
  end of program onee
   
 Time(onee)  user:      10.799  user+sys:      10.799  wallclock:       7.498
  
  start of program hfig
  
  initial wavefunction generated automatically from atomic wavefunctions
  Only one possible d-orb occupation 
  Skip d-d repulsion considerations 
 
  Irreducible     Total no   No of occupied orbitals 
  representation  orbitals   Shell_1  Shell_2    ...
  No Symm          722        168
  ------------------------
  Orbital occupation/shell    1.000
 
  end of program hfig
   
 Time(hfig)  user:       1.377  user+sys:       1.377  wallclock:       1.534
  
  start of program probe
  
  end of program probe
   
 Time(probe)  user:       0.671  user+sys:       0.671  wallclock:       0.558
  
  start of program grid
  
   grid     grid set  grid #  grid sym
  ------    --------  ------  --------
  coarse        0        0        1
  medium        2        1        1
  fine          0        0        1
  ultrafine     4        2        1
  charge       -1        3        1
  gradient      4        2        1
  density       0        0        1
  DFT-fine    -11        4        1
  DFT-med.    -10        5        1
  DFT-grad    -12        6        1
  DFT-der2     -8        7        1
  DFT-cphf     -9        8        1
  LMP2-enrg     4        2        1
  LMP2-grad     2        1        1
  DFT-cphf2   -15        9        1
  PBF-dens      0        0        1
  plotting      0        0        1
  Rel-grad    -17        0        1
  
  number of gridpoints: 
     atom           P1         Pd2         Br3         C73         C74         C75         C76
  grid # 1         613         364         501          79          94          96          95
  grid # 2         428         337         475         331         321         325         391
  grid # 3          10         289         340          35          32          30          20
  grid # 4        8714        8714        8714        8714        8714        8714        8714
  grid # 5        1192        1192        1192        1192        1192        1192        1192
  grid # 6        9132        9132        9132        5922        5922        5922        5922
  grid # 7       23034       32968       11582       13950       13950       13950       13950
  grid # 8         722        1150         694         748         748         748         748
  grid # 9         366        2198         358         394         394         394         394
   
  number of gridpoints: 
     atom          C77         C78         F79         H80         H81         H82         H83
  grid # 1          96          94         581         113         110         112         114
  grid # 2         324         323         562         456         448         460         465
  grid # 3          32          34         286         329         220         248         374
  grid # 4        8714        8714        8714        8714        8714        8714        8714
  grid # 5        1192        1192        1192        1192        1192        1192        1192
  grid # 6        5922        5922        5922        5922        5922        5922        5922
  grid # 7       13950       13950       23190       15206       15206       15206       15206
  grid # 8         748         748         770         786         786         786         786
  grid # 9         394         394         420         420         420         420         420
   
  number of gridpoints: 
     atom           C3          C4          C5          C6          C7          C8          C9
  grid # 1          79          80          91          92          92          92          92
  grid # 2         334         331         385         276         280         278         283
  grid # 3           6           6           8           6           6           6           6
  grid # 4        8714        8714        8714        8714        8714        8714        8714
  grid # 5        1192        1192        1192        1192        1192        1192        1192
  grid # 6        5922        5922        5922        5922        5922        5922        5922
  grid # 7       13950       13950       13950       13950       13950       13950       13950
  grid # 8         748         748         748         748         748         748         748
  grid # 9         394         394         394         394         394         394         394
   
  number of gridpoints: 
     atom          C10         C11         C12         C13         C14         C15         C16
  grid # 1          92          90          92          92          92          92          91
  grid # 2         276         278         283         278         283         277         319
  grid # 3           6           6           6           6           6           6           9
  grid # 4        8714        8714        8714        8714        8714        8714        8714
  grid # 5        1192        1192        1192        1192        1192        1192        1192
  grid # 6        5922        5922        5922        5922        5922        5922        5922
  grid # 7       13950       13950       13950       13950       13950       13950       13950
  grid # 8         748         748         748         748         748         748         748
  grid # 9         394         394         394         394         394         394         394
   
  number of gridpoints: 
     atom          C17         C18         C19         C20         C21         C22         C23
  grid # 1          95          95          93          98          98          98          93
  grid # 2         323         322         320         352         360         362         329
  grid # 3          25          26          10           6           8          13          25
  grid # 4        8714        8714        8714        8714        8714        8714        8714
  grid # 5        1192        1192        1192        1192        1192        1192        1192
  grid # 6        5922        5922        5922        5922        5922        5922        5922
  grid # 7       13950       13950       13950       13950       13950       13950       13950
  grid # 8         748         748         748         748         748         748         748
  grid # 9         394         394         394         394         394         394         394
   
  number of gridpoints: 
     atom          C24         C25         C26         C27         C28         C29         C30
  grid # 1         100          93          98          89          81          91          80
  grid # 2         361         326         361         303         244         310         245
  grid # 3          12          19          10           6           6           6           6
  grid # 4        8714        8714        8714        8714        8714        8714        8714
  grid # 5        1192        1192        1192        1192        1192        1192        1192
  grid # 6        5922        5922        5922        5922        5922        5922        5922
  grid # 7       13950       13950       13950       13950       13950       13950       13950
  grid # 8         748         748         748         748         748         748         748
  grid # 9         394         394         394         394         394         394         394
   
  number of gridpoints: 
     atom          C31         C32         C33         C34         C35         H36         H37
  grid # 1          90          82          80          83          81         100         106
  grid # 2         305         244         246         242         247         435         430
  grid # 3           6           6           6           6           6         108         141
  grid # 4        8714        8714        8714        8714        8714        8714        8714
  grid # 5        1192        1192        1192        1192        1192        1192        1192
  grid # 6        5922        5922        5922        5922        5922        5922        5922
  grid # 7       13950       13950       13950       13950       13950       15206       15206
  grid # 8         748         748         748         748         748         786         786
  grid # 9         394         394         394         394         394         420         420
   
  number of gridpoints: 
     atom          H38         H39         H40         H41         H42         H43         H44
  grid # 1         105         110         112         110         112         107         112
  grid # 2         435         448         459         454         458         445         456
  grid # 3         133         230         326         268         332         188         316
  grid # 4        8714        8714        8714        8714        8714        8714        8714
  grid # 5        1192        1192        1192        1192        1192        1192        1192
  grid # 6        5922        5922        5922        5922        5922        5922        5922
  grid # 7       15206       15206       15206       15206       15206       15206       15206
  grid # 8         786         786         786         786         786         786         786
  grid # 9         420         420         420         420         420         420         420
   
  number of gridpoints: 
     atom          H45         H46         H47         H48         H49         H50         H51
  grid # 1         100         106          99         100         102         112         110
  grid # 2         423         433         422         422         431         457         454
  grid # 3          79         142          74          73          80         313         255
  grid # 4        8714        8714        8714        8714        8714        8714        8714
  grid # 5        1192        1192        1192        1192        1192        1192        1192
  grid # 6        5922        5922        5922        5922        5922        5922        5922
  grid # 7       15206       15206       15206       15206       15206       15206       15206
  grid # 8         786         786         786         786         786         786         786
  grid # 9         420         420         420         420         420         420         420
   
  number of gridpoints: 
     atom          H52         H53         H54         H55         H56         H57         H58
  grid # 1         112         110         112         110         107         108         103
  grid # 2         458         456         457         452         433         435         425
  grid # 3         332         258         325         264         118         147         100
  grid # 4        8714        8714        8714        8714        8714        8714        8714
  grid # 5        1192        1192        1192        1192        1192        1192        1192
  grid # 6        5922        5922        5922        5922        5922        5922        5922
  grid # 7       15206       15206       15206       15206       15206       15206       15206
  grid # 8         786         786         786         786         786         786         786
  grid # 9         420         420         420         420         420         420         420
   
  number of gridpoints: 
     atom          H59         H60         H61         H62         H63         H64         H65
  grid # 1         118         118         112         105         103         102         110
  grid # 2         467         467         440         419         431         431         455
  grid # 3         406         408         211          66         137          85         304
  grid # 4        8714        8714        8714        8714        8714        8714        8714
  grid # 5        1192        1192        1192        1192        1192        1192        1192
  grid # 6        5922        5922        5922        5922        5922        5922        5922
  grid # 7       15206       15206       15206       15206       15206       15206       15206
  grid # 8         786         786         786         786         786         786         786
  grid # 9         420         420         420         420         420         420         420
   
  number of gridpoints: 
     atom          H66         H67         H68         H69         H70         H71         H72
  grid # 1         105         109         107         104         108         105         110
  grid # 2         430         450         436         442         451         444         442
  grid # 3         140         299         147         214         288         120         219
  grid # 4        8714        8714        8714        8714        8714        8714        8714
  grid # 5        1192        1192        1192        1192        1192        1192        1192
  grid # 6        5922        5922        5922        5922        5922        5922        5922
  grid # 7       15206       15206       15206       15206       15206       15206       15206
  grid # 8         786         786         786         786         786         786         786
  grid # 9         420         420         420         420         420         420         420
   
  number of gridpoints: 
     atom          H73         H74         H75         H76         H77         H78         H79
  grid # 1         107         109         108         105         110         108         107
  grid # 2         441         452         441         444         454         451         446
  grid # 3         258         292         221         240         321         292         224
  grid # 4        8714        8714        8714        8714        8714        8714        8714
  grid # 5        1192        1192        1192        1192        1192        1192        1192
  grid # 6        5922        5922        5922        5922        5922        5922        5922
  grid # 7       15206       15206       15206       15206       15206       15206       15206
  grid # 8         786         786         786         786         786         786         786
  grid # 9         420         420         420         420         420         420         420
   
  number of gridpoints: 
     atom          H92         H93         H94         H95         H84       total
  grid # 1         110         108         106         111         110       11319
  grid # 2         455         450         447         460         456       37389
  grid # 3         326         217         243         345         324       13525
  grid # 4        8714        8714        8714        8714        8714      836544
  grid # 5        1192        1192        1192        1192        1192      114432
  grid # 6        5922        5922        5922        5922        5922      578142
  grid # 7       15206       15206       15206       15206       15206     1440742
  grid # 8         786         786         786         786         786       74166
  grid # 9         420         420         420         420         420       40968
   
  end of program grid
   
 Time(grid)  user:     590.137  user+sys:     590.137  wallclock:     298.732
  
  start of program rwr
  
  end of program rwr
   
 Time(rwr)  user:      20.101  user+sys:      20.101  wallclock:      25.737
  
  start of program scf
  
 number of electrons..........        336
 number of alpha electrons....        168
 number of beta electrons.....        168
 number of orbitals, total....        722
 number of doubly-occ'd orbs..        168
 number of open shell orbs....          0
 number of occupied orbitals..        168
 number of virtual orbitals...        554
 number of hamiltonians.......          1
 number of shells.............          1
 SCF type: DFT=Becke_3_Parameter/HF+Slater+Becke88+PW91+PW-GGAIIC (B3PW91-D3)
 Energy computed using pseudospectral method.
 Convergence Criterion:
    Energy (econv):       1.00E-05
    RMS density (dconv):  5.00E-06
  
       i  u  d  i  g                   
       t  p  i  c  r                                 RMS    maximum
       e  d  i  u  i                       energy  density   DIIS  
       r  t  s  t  d       total energy    change  change    error 
  
etot    1  N  N  5  M   -2093.55844233106           1.8E-03  1.4E-01
etot    2  Y  Y  6  M   -2097.24026320997  3.7E+00  2.6E-03  9.3E-02
etot    3  Y  Y  6  M   -2098.07530873626  8.4E-01  1.2E-03  7.8E-02
etot    4  N  Y  2  U   -2098.53078796774  4.6E-01  7.8E-04  3.4E-02
etot    5  Y  Y  6  M   -2098.59653400036  6.6E-02  4.6E-04  1.9E-02
etot    6  N  Y  2  U   -2098.60002699980  3.5E-03  3.9E-04  8.6E-03
etot    7  Y  Y  6  M   -2098.60664253904  6.6E-03  9.0E-05  5.4E-03
etot    8  N  Y  2  U   -2098.61021732943  3.6E-03  2.4E-05  9.6E-04
etot    9  N  Y  2  U   -2098.61045673881  2.4E-04  7.8E-06  3.1E-04
etot   10  N  Y  2  U   -2098.61046612785  9.4E-06  3.3E-06  7.2E-05
etot   11  N  N  2  U   -2098.61046798915  1.9E-06  0.0E+00  0.0E+00
 
  Computing the dispersion energy correction and its gradients...
  
  
 Energy components, in hartrees:
   (A)  Nuclear repulsion............    6191.27565812836
   (E)  Total one-electron terms.....  -15247.28680127894
   (F)    Electron-nuclear...........  -17244.00072707900
   (H)    Kinetic....................    1996.71392580007
   (I)  Total two-electron terms.....    6957.40067516143
   (J)    Coulomb....................    7237.37177528507
   (K)    Exchange+Correlation.......    -279.97110012363
   (L)  Electronic energy............   -8289.88612611751  (E+I)
   (N0) D3 correction................      -0.16241316241
   (N)  Total energy.................   -2098.77288115155  (A+L+N0)
   (O)  Gas phase energy.............   -2098.77288115155
  
 SCFE: SCF energy: DFT(b3pw91-d3)     -2098.77288115155 hartrees   iterations:  11
  
 
 HOMO energy:    -0.16601
 LUMO energy:    -0.04875
 
  Orbital energies (hartrees): 
   -77.06665   -24.68363   -10.25028   -10.23535   -10.19984   -10.19966
   -10.19017   -10.18763   -10.18704   -10.18668   -10.18604   -10.18459
   -10.18241   -10.18085   -10.17977   -10.17953   -10.17858   -10.17694
   -10.17684   -10.17496   -10.17469   -10.17383   -10.17249   -10.17104
   -10.16938   -10.16897   -10.16726   -10.16697   -10.16672   -10.16671
   -10.16635   -10.16620   -10.16349   -10.15888   -10.15645   -10.15599
   -10.15561   -10.15438   -10.15231   -10.15184   -10.14684    -6.56700
    -4.72526    -4.72464    -4.72137    -3.27614    -2.01416    -1.99499
    -1.98984    -1.21437    -0.87737    -0.87153    -0.85411    -0.84227
    -0.83557    -0.81215    -0.80631    -0.77818    -0.77395    -0.77251
    -0.76410    -0.76379    -0.74978    -0.74433    -0.74124    -0.74038
    -0.71607    -0.71231    -0.71150    -0.67632    -0.67562    -0.67005
    -0.65497    -0.63208    -0.62995    -0.62022    -0.61186    -0.60788
    -0.60556    -0.60427    -0.60344    -0.59035    -0.58874    -0.56286
    -0.55817    -0.54896    -0.54225    -0.53935    -0.53158    -0.51455
    -0.49037    -0.48567    -0.48139    -0.47762    -0.47648    -0.47222
    -0.46428    -0.45632    -0.45565    -0.44833    -0.44580    -0.44571
    -0.44337    -0.44100    -0.43796    -0.43680    -0.43567    -0.43246
    -0.43066    -0.42506    -0.42262    -0.42159    -0.41591    -0.40865
    -0.40554    -0.39873    -0.39822    -0.39417    -0.39037    -0.38849
    -0.38789    -0.38025    -0.37905    -0.37732    -0.37648    -0.37461
    -0.37092    -0.36874    -0.36624    -0.36338    -0.35895    -0.35505
    -0.35333    -0.35193    -0.34959    -0.34774    -0.34696    -0.34483
    -0.34075    -0.33740    -0.33695    -0.33189    -0.33110    -0.32879
    -0.32443    -0.31989    -0.31868    -0.31648    -0.31247    -0.30725
    -0.30181    -0.30090    -0.29843    -0.29566    -0.29046    -0.28372
    -0.28162    -0.27013    -0.26852    -0.26007    -0.25313    -0.22884
    -0.22679    -0.21631    -0.21028    -0.20479    -0.19682    -0.16601
    -0.04875    -0.03422    -0.01996    -0.01712    -0.00374     0.00266
     0.00655     0.02423     0.03479     0.04860
 
  end of program scf
   
 Time(scf)  user:     528.702  user+sys:     528.702  wallclock:     279.706
  
  start of program der1a
  
  end of program der1a
   
 Time(der1a)  user:      34.055  user+sys:      34.055  wallclock:      17.798
  
  start of program rwr
  
  end of program rwr
   
 Time(rwr)  user:      24.770  user+sys:      24.770  wallclock:      32.584
  
  start of program der1b
  
   
  forces (hartrees/bohr) : total     
   
 atom  label           x              y              z
 ---- --------   -------------  -------------  -------------
    1 P1         -8.927312E-03   1.675878E-02   3.594050E-02
    2 Pd2         3.414433E-04   8.117294E-03  -6.223240E-03
    3 Br3         3.890357E-03   1.197898E-03  -4.604305E-03
    4 C73         6.521271E-03   2.869873E-04  -1.966919E-03
    5 C74        -1.961680E-03   9.827862E-04  -3.590987E-04
    6 C75         5.292670E-04  -3.115543E-05  -5.764382E-05
    7 C76        -3.183604E-04  -2.445042E-03   7.469263E-03
    8 C77        -8.639200E-04   1.518595E-04   4.747569E-04
    9 C78        -1.005064E-03  -4.844699E-04  -7.118200E-05
   10 F79        -4.003800E-03   3.339486E-04   1.176855E-03
   11 H80         1.040807E-03  -6.430642E-04   9.262936E-04
   12 H81        -3.012243E-04   2.369506E-04   1.354046E-03
   13 H82        -3.906325E-04  -1.462347E-04  -3.912516E-04
   14 H83        -2.635919E-04  -6.791180E-04   7.808703E-05
   15 C3          1.434786E-02   9.330037E-03  -1.106268E-02
   16 C4         -5.607509E-03  -7.399152E-03  -1.741269E-02
   17 C5          3.262911E-03  -1.585610E-02  -1.336778E-02
   18 C6         -6.981848E-03   1.088165E-02  -6.331452E-03
   19 C7          3.789876E-03   2.880485E-03  -4.330538E-03
   20 C8          9.398802E-03   1.216145E-04  -4.157311E-03
   21 C9          6.642125E-03  -1.937773E-03  -2.514519E-04
   22 C10        -6.507771E-03  -1.383407E-02   1.080634E-02
   23 C11         1.411323E-02  -3.872870E-03   7.150182E-03
   24 C12         8.641977E-04  -6.747334E-03   2.836205E-04
   25 C13        -4.673795E-03  -9.229963E-03  -1.301678E-03
   26 C14        -5.140210E-03  -2.949365E-03  -2.101026E-03
   27 C15        -8.989043E-03   1.347208E-02  -4.643850E-03
   28 C16        -6.960619E-03   1.560630E-03  -1.526064E-02
   29 C17        -7.236301E-04  -8.573120E-05  -6.162487E-04
   30 C18         5.362382E-04  -2.016674E-03  -3.301122E-04
   31 C19        -9.729254E-03   9.758505E-03  -1.364289E-02
   32 C20        -2.723314E-03  -1.606306E-02  -5.177505E-02
   33 C21         2.660674E-03   5.604159E-03   6.202459E-02
   34 C22         3.747898E-03  -5.022346E-03   1.179641E-02
   35 C23        -1.605602E-04   3.965113E-03   4.397407E-03
   36 C24        -1.712739E-04  -3.541354E-03  -1.290299E-02
   37 C25        -1.538664E-03   1.791957E-03   3.365542E-03
   38 C26         2.542934E-03   1.152153E-02   1.337884E-02
   39 C27         7.138417E-03  -1.539853E-03  -1.261513E-02
   40 C28        -4.583945E-03   6.141932E-03  -1.204259E-02
   41 C29        -4.450502E-03  -1.463487E-02  -7.347202E-03
   42 C30         1.956112E-03  -9.717757E-03   9.582902E-03
   43 C31         3.651035E-03   2.634527E-03   4.120074E-03
   44 C32         4.749576E-03   3.159754E-04   7.676302E-03
   45 C33        -6.849821E-03   7.233724E-03  -5.559588E-03
   46 C34         2.390144E-03  -7.505244E-03   8.829993E-03
   47 C35        -5.774404E-03   9.138212E-03   1.576376E-03
   48 H36        -1.135646E-02  -4.881589E-03   3.071217E-03
   49 H37         2.946200E-03   6.414544E-03   6.272303E-03
   50 H38         1.776642E-03  -1.181196E-02  -2.440802E-03
   51 H39        -4.915953E-03  -5.577176E-03  -6.506020E-03
   52 H40        -1.533453E-03  -4.268965E-03   1.087613E-02
   53 H41         4.342511E-03   5.289731E-03   7.019402E-03
   54 H42        -1.112367E-02  -2.288219E-03   1.722805E-03
   55 H43        -5.771673E-03  -5.414596E-03  -6.421419E-03
   56 H44        -5.507432E-03   1.009368E-02   3.296585E-03
   57 H45        -2.508719E-03   5.545702E-03  -7.488706E-03
   58 H46         4.267821E-03   4.806378E-03   6.428444E-03
   59 H47        -2.353013E-03   1.056880E-04   6.582183E-03
   60 H48        -1.017126E-02   2.663965E-03  -6.281278E-04
   61 H49         3.452104E-03   4.158384E-04  -9.367675E-03
   62 H50        -9.076658E-04   8.441045E-03  -8.019388E-03
   63 H51        -4.221490E-03   2.012133E-03   8.285714E-03
   64 H52         3.019134E-03   9.719566E-03   4.844491E-03
   65 H53         4.504806E-03  -1.765771E-03  -9.008702E-03
   66 H54         1.182919E-02   8.746318E-04  -1.342709E-04
   67 H55        -3.587659E-03   2.019594E-03   8.633280E-03
   68 H56         6.029772E-03   2.841245E-04  -5.619369E-03
   69 H57         4.145326E-03  -5.971509E-03   8.360928E-03
   70 H58        -6.673522E-04   6.589805E-03   8.025558E-03
   71 H59         2.596090E-03   1.423710E-03   1.032010E-02
   72 H60         5.601644E-03  -4.876235E-03   8.414369E-03
   73 H61         3.435496E-03  -8.155844E-03   8.450470E-03
   74 H62         3.491070E-03  -1.704233E-03  -8.038595E-03
   75 H63        -3.373021E-03  -4.864398E-03  -7.142557E-03
   76 H64        -1.200774E-03  -3.805569E-03  -5.126764E-03
   77 H65         4.139462E-03  -9.147934E-03  -2.902142E-03
   78 H66         1.061493E-02   4.900263E-03   7.743418E-03
   79 H67        -6.637200E-03  -2.099756E-03   7.848777E-03
   80 H68         3.127360E-03   1.466008E-02   1.279078E-03
   81 H69         2.768193E-03  -2.047243E-03  -9.515671E-03
   82 H70         7.691821E-03   7.903368E-03  -1.546489E-04
   83 H71        -5.976901E-03   7.990880E-03  -6.447521E-04
   84 H72        -8.507713E-03  -5.824379E-03  -3.972685E-03
   85 H73         6.400672E-04  -1.038801E-02  -2.069189E-03
   86 H74        -1.101502E-02  -2.115701E-03   4.985521E-03
   87 H75        -3.988708E-03   6.633354E-03  -7.234079E-03
   88 H76         3.664796E-03  -5.134788E-03  -8.487934E-03
   89 H77         9.586009E-03   4.471838E-03   3.289733E-03
   90 H78         6.730602E-04  -8.482552E-03   5.236653E-03
   91 H79         9.422356E-03   5.314517E-03  -8.187540E-04
   92 H92        -1.566985E-03  -3.187060E-03  -9.747795E-03
   93 H93        -9.582894E-03   6.898722E-03   1.254444E-03
   94 H94         9.997990E-03   3.515439E-03  -2.625065E-04
   95 H95        -1.142435E-03  -8.582778E-03   7.593555E-03
   96 H84        -6.553534E-04  -5.458942E-03  -9.234291E-03
 -------------   -------------  -------------  -------------
     total        4.477164E-06  -8.305777E-04   5.301474E-04
   
  end of program der1b
   
 Time(der1b)  user:     184.346  user+sys:     184.346  wallclock:      95.774
  
  start of program geopt
  
 ----------------------------------------------------------------------------
  Geometry optimization step  1
  Total energy:     -2098.77288115155 hartrees
 ----------------------------------------------------------------------------
  
  Hessian eigenvalues: 
    0.00000E+00    0.00000E+00    0.00000E+00    0.00000E+00    0.00000E+00
    0.00000E+00    0.00000E+00    0.00000E+00    0.00000E+00    0.00000E+00
    0.00000E+00    0.00000E+00    0.00000E+00    0.00000E+00    0.00000E+00
    0.00000E+00    0.00000E+00    0.00000E+00    0.00000E+00    0.00000E+00
    0.00000E+00    0.00000E+00    0.00000E+00    0.00000E+00    0.00000E+00
    0.00000E+00    0.00000E+00    0.00000E+00    0.00000E+00    0.00000E+00
    0.00000E+00    0.00000E+00    0.00000E+00    0.00000E+00    0.00000E+00
    0.00000E+00    0.00000E+00    0.00000E+00    0.00000E+00    0.00000E+00
    0.00000E+00    0.00000E+00    0.00000E+00    0.00000E+00    0.00000E+00
    0.00000E+00    0.00000E+00    0.00000E+00    0.00000E+00    0.00000E+00
    3.27740E-03    5.18380E-03    5.32075E-03    8.15892E-03    9.91962E-03
    1.41777E-02    1.56682E-02    1.67120E-02    1.71981E-02    1.72157E-02
    1.78687E-02    1.79634E-02    1.88899E-02    1.93038E-02    2.02366E-02
    2.15828E-02    2.17015E-02    2.19090E-02    2.30214E-02    2.32219E-02
    2.79809E-02    3.03788E-02    3.11866E-02    3.19523E-02    3.28195E-02
    3.53996E-02    3.73929E-02    4.07040E-02    4.24140E-02    4.54668E-02
    5.16438E-02    5.52561E-02    6.28391E-02    6.36169E-02    6.93425E-02
    7.13238E-02    7.14246E-02    7.14548E-02    7.21896E-02    7.31892E-02
    7.42610E-02    7.45312E-02    7.46068E-02    7.97361E-02    8.05835E-02
    8.38708E-02    8.47420E-02    8.88309E-02    9.75159E-02    1.04012E-01
    1.08061E-01    1.08810E-01    1.09323E-01    1.11470E-01    1.18771E-01
    1.19898E-01    1.20224E-01    1.24709E-01    1.27860E-01    1.27961E-01
    1.29751E-01    1.29817E-01    1.30670E-01    1.30803E-01    1.34227E-01
    1.35901E-01    1.36949E-01    1.38901E-01    1.41022E-01    1.42293E-01
    1.43340E-01    1.44520E-01    1.45618E-01    1.47182E-01    1.48400E-01
    1.50469E-01    1.59834E-01    1.60134E-01    1.60960E-01    1.61657E-01
    1.63884E-01    1.64779E-01    1.71115E-01    1.71944E-01    1.74582E-01
    1.75242E-01    1.77207E-01    1.80162E-01    1.85641E-01    1.98961E-01
    1.99328E-01    2.00323E-01    2.04767E-01    2.08998E-01    2.10217E-01
    2.15237E-01    2.17688E-01    2.18915E-01    2.19386E-01    2.20338E-01
    2.25757E-01    2.27042E-01    2.27627E-01    2.28795E-01    2.29873E-01
    2.31167E-01    2.32776E-01    2.32991E-01    2.34347E-01    2.34585E-01
    2.34796E-01    2.35358E-01    2.36375E-01    2.36590E-01    2.37147E-01
    2.37678E-01    2.37993E-01    2.38338E-01    2.38757E-01    2.39426E-01
    2.39758E-01    2.40129E-01    2.40974E-01    2.41267E-01    2.42140E-01
    2.42241E-01    2.42495E-01    2.43752E-01    2.44665E-01    2.47033E-01
    2.49591E-01    2.51192E-01    2.52779E-01    2.54510E-01    2.54707E-01
    2.55753E-01    2.58361E-01    2.63266E-01    2.82101E-01    2.83233E-01
    2.85173E-01    2.85863E-01    2.87776E-01    2.89419E-01    2.90388E-01
    2.93684E-01    2.93946E-01    2.98525E-01    2.99782E-01    3.00652E-01
    3.03763E-01    3.07729E-01    3.08309E-01    3.12066E-01    3.12496E-01
    3.12556E-01    3.12581E-01    3.12643E-01    3.12662E-01    3.12765E-01
    3.12942E-01    3.12991E-01    3.13051E-01    3.13079E-01    3.13195E-01
    3.13217E-01    3.13251E-01    3.13999E-01    3.14118E-01    3.14296E-01
    3.14305E-01    3.14531E-01    3.14562E-01    3.14809E-01    3.14885E-01
    3.14899E-01    3.14904E-01    3.14925E-01    3.14982E-01    3.15193E-01
    3.15358E-01    3.15358E-01    3.15661E-01    3.15688E-01    3.15733E-01
    3.15930E-01    3.15996E-01    3.16351E-01    3.16377E-01    3.16532E-01
    3.16698E-01    3.16710E-01    3.16808E-01    3.17251E-01    3.17421E-01
    3.17486E-01    3.17488E-01    3.18001E-01    3.19659E-01    3.21210E-01
    3.22744E-01    3.26356E-01    3.26489E-01    3.27548E-01    3.29885E-01
    3.30704E-01    3.31240E-01    3.32178E-01    3.32631E-01    3.35789E-01
    3.37050E-01    3.37575E-01    3.41633E-01    3.41983E-01    3.42415E-01
    3.43572E-01    3.45061E-01    3.45491E-01    3.46252E-01    3.46757E-01
    3.46963E-01    3.47920E-01    3.48438E-01    3.49974E-01    3.52821E-01
    3.56185E-01    3.57045E-01    3.57394E-01    3.57536E-01    3.58352E-01
    3.63852E-01    3.67550E-01    3.69480E-01    3.69504E-01    3.74780E-01
    3.75163E-01    3.75395E-01    3.79056E-01    3.79059E-01    3.79292E-01
    3.81229E-01    3.81945E-01    3.83354E-01    3.83671E-01    3.83958E-01
    4.03252E-01    4.09795E-01    4.10758E-01    4.15355E-01    4.17872E-01
    4.26901E-01    4.30578E-01    4.41041E-01    4.49337E-01    4.64681E-01
    4.79494E-01    4.84245E-01    4.90613E-01    5.00168E-01    5.03371E-01
    5.09823E-01    5.14296E-01    5.30042E-01    5.32174E-01    5.33755E-01
    5.38593E-01    5.41469E-01    5.55370E-01    5.56832E-01    5.65311E-01
    5.79961E-01    5.95920E-01    6.03657E-01    6.18706E-01    6.45351E-01
    6.78373E-01    6.78815E-01    6.94398E-01    7.07472E-01    7.25089E-01
    7.87871E-01    1.02616E+00
  
 WARNING: Hessian has wrong number of negative eigenvalues:           0
  
  TS search will follow eigenvector  51 on this iteration
  
  Selected vector:  eigenvalue     3.27740E-03

 51)  C76-Pd2-P1-C3( 68)  0.51443
      C76-Pd2-P1-C4( 69)  0.51054
      C76-Pd2-P1-C5( 70)  0.51031
      Br3-Pd2-P1-C3( 41)  0.42903
  
  
  Level shifts adjusted to satisfy step-size constraints
   Step size:    0.1003046
   Cos(theta):   0.9962600
   Final level shift:  -1.5786446E+00
  
  gradient maximum:        8.9917E-02 .  (  2.2500E-03 )
  gradient rms:            1.0776E-02 .  (  1.5000E-03 )
  displacement maximum:    4.4043E-02 .  (  9.0000E-03 )
  displacement rms:        5.5049E-03 *  (  6.0000E-03 )
  
  predicted energy change:  -1.7749E-02
  step size:     0.10030
  trust radius:  0.10000
  
  molecular structure not yet converged...
  
  center of mass moved by:
     x:    -5.5915E-02     y:     1.1084E-01     z:    -1.3206E-02
  
  new geometry: 
                                   angstroms
  atom               x                 y                 z
  P1           -0.0142304150      0.0010106528     -0.0219905969 
  Pd2          -0.0501826830      0.0938195381      2.3254488586 
  Br3          -0.5629534401     -0.4609695308      4.9868834522 
  C73           3.8551296280     -0.8250543194      3.0541694292 
  C74           3.0051876964     -1.9227130254      2.9782262047 
  C75           1.6796725960     -1.7789656251      3.3771622606 
  C76           1.2283332922     -0.5089746263      3.7895503402 
  C77           2.1186696654      0.5703341671      3.9467046306 
  C78           3.4443802406      0.4084310727      3.5401673518 
  F79           5.1357268018     -0.9676562224      2.6379068771 
  H80           3.3727369550     -2.8634451932      2.5816297305 
  H81           0.9917493271     -2.6148812122      3.3247750531 
  H82           1.7714622481      1.5122277679      4.3575401046 
  H83           4.1547721794      1.2281600174      3.5973182217 
  C3            1.7315614305     -0.0133826118     -0.7630771626 
  C4           -0.8331682600     -1.6287866670     -0.4641281807 
  C5           -0.9954780919      1.3657393553     -0.8674737998 
  C6            1.8799939359      0.6931146275     -2.1273374742 
  C7            3.3529138055      0.8363524204     -2.5380253932 
  C8            4.0262606792     -0.5389351056     -2.6174183674 
  C9            3.8792141422     -1.2821859233     -1.2846058752 
  C10           2.4055105642     -1.3964235314     -0.8659731480 
  C11          -0.5105308943     -2.7023727178      0.5925423163 
  C12          -1.0537168775     -4.0791848883      0.1896279888 
  C13          -2.5709997971     -4.0251870929     -0.0231424209 
  C14          -2.9300553674     -2.9434032336     -1.0486977857 
  C15          -2.3671933595     -1.5782066062     -0.6243044624 
  C16          -1.2509887983      1.0483448200     -2.2179410673 
  C17          -2.0352744087      1.8397231829     -3.0609922375 
  C18          -2.5994982052      2.9995307868     -2.5299894819 
  C19          -2.3558401869      3.3127549912     -1.1890252661 
  C20          -1.5707459781      2.5396665188     -0.3055059622 
[...]
    H37      X     0.00280   0.00116   0.00005  -0.00006   0.00001  -0.00001
    H37      Y     0.00709   0.00279   0.00008  -0.00016   0.00002  -0.00002
    H37      Z     0.00527   0.00204   0.00009  -0.00014   0.00001  -0.00003
    H38      X     0.00147   0.00094  -0.00015   0.00014   0.00003   0.00006
    H38      Y    -0.00363  -0.00175   0.00026  -0.00019  -0.00007  -0.00010
    H38      Z     0.00022   0.00012  -0.00014   0.00008   0.00002   0.00005
    H39      X     0.00065   0.00017   0.00002  -0.00013   0.00003  -0.00001
    H39      Y     0.00138   0.00036   0.00006  -0.00040   0.00010  -0.00004
    H39      Z     0.00095   0.00022   0.00005  -0.00023   0.00005  -0.00002
    H40      X    -0.00021  -0.00021  -0.00003  -0.00002   0.00000  -0.00000
    H40      Y    -0.00019  -0.00022   0.00007   0.00001  -0.00001  -0.00002
    H40      Z     0.00057   0.00081  -0.00017  -0.00013   0.00006   0.00004
    H41      X     0.00002   0.00004  -0.00004  -0.00006   0.00001  -0.00000
    H41      Y     0.00030   0.00015  -0.00011  -0.00026   0.00004  -0.00002
    H41      Z     0.00022   0.00012  -0.00013  -0.00027   0.00004  -0.00003
    H42      X     0.00045  -0.00027   0.00011  -0.00022   0.00001  -0.00008
    H42      Y     0.00004  -0.00009   0.00005  -0.00005  -0.00000  -0.00003
    H42      Z    -0.00002   0.00006  -0.00003   0.00006  -0.00001   0.00003
    H43      X     0.00011   0.00002   0.00009  -0.00044   0.00005  -0.00010
    H43      Y     0.00026   0.00003  -0.00011  -0.00110   0.00017  -0.00023
    H43      Z     0.00022   0.00003   0.00001  -0.00090   0.00016  -0.00015
    H44      X     0.00005  -0.00016  -0.00146   0.00048  -0.00000   0.00023
    H44      Y    -0.00016   0.00011   0.00195  -0.00073   0.00004  -0.00027
    H44      Z     0.00006  -0.00001  -0.00028   0.00011   0.00000   0.00005
    H45      X    -0.00003  -0.00002   0.00090  -0.00027   0.00004  -0.00040
    H45      Y    -0.00029  -0.00015  -0.00002  -0.00019   0.00018  -0.00045
    H45      Z     0.00074   0.00042  -0.00206   0.00080  -0.00046   0.00312
    H46      X     0.00018   0.00013  -0.00019  -0.00010  -0.00001   0.00001
    H46      Y     0.00076   0.00046  -0.00046  -0.00015  -0.00004   0.00003
    H46      Z     0.00049   0.00031  -0.00029  -0.00006  -0.00006  -0.00012
    H47      X    -0.00146  -0.00042  -0.00006  -0.00002   0.00001  -0.00005
    H47      Y     0.00023  -0.00011   0.00012   0.00010   0.00003  -0.00002
    H47      Z     0.00537   0.00194   0.00042   0.00017   0.00002   0.00029
    H48      X     0.00101   0.00001  -0.00017  -0.00004  -0.00018   0.00360
    H48      Y    -0.00011  -0.00005   0.00000   0.00001   0.00000  -0.00017
    H48      Z     0.00008   0.00001  -0.00008  -0.00001  -0.00000  -0.00021
    H49      X     0.00024   0.00012  -0.00051  -0.00001  -0.00005  -0.00096
    H49      Y    -0.00040  -0.00018   0.00013  -0.00003   0.00000   0.00021
    H49      Z    -0.00056  -0.00032   0.00104   0.00003   0.00012   0.00159
    H50      X     0.00018   0.00001  -0.00006  -0.00001   0.00000  -0.00010
    H50      Y    -0.00031   0.00014   0.00018   0.00002   0.00000   0.00014
    H50      Z     0.00032  -0.00004  -0.00013  -0.00002  -0.00001  -0.00011
    H51      X    -0.00006  -0.00006  -0.00002  -0.00003   0.00001  -0.00001
    H51      Y     0.00010   0.00006   0.00006   0.00003   0.00001   0.00007
    H51      Z     0.00014   0.00019   0.00012   0.00009   0.00000   0.00008
    H52      X    -0.00007   0.00013   0.00002   0.00004   0.00001   0.00006
    H52      Y    -0.00034   0.00026   0.00007   0.00010   0.00001   0.00007
    H52      Z    -0.00008   0.00011   0.00003   0.00004   0.00001   0.00003
    H53      X    -0.00010  -0.00002  -0.00001  -0.00003  -0.00000   0.00011
    H53      Y     0.00003  -0.00001  -0.00001  -0.00000  -0.00000  -0.00005
    H53      Z     0.00035   0.00008   0.00002   0.00004  -0.00000  -0.00024
    H54      X    -0.00014   0.00061   0.00004   0.00011   0.00008   0.00008
    H54      Y     0.00002   0.00003   0.00001   0.00000   0.00000  -0.00000
    H54      Z    -0.00002  -0.00002  -0.00000  -0.00000   0.00000   0.00001
    H55      X    -0.00020  -0.00014  -0.00001  -0.00002   0.00001   0.00000
    H55      Y     0.00025   0.00013   0.00002   0.00002  -0.00001  -0.00000
    H55      Z     0.00063   0.00035   0.00005   0.00005  -0.00002  -0.00004
    H56      X    -0.00050  -0.00011  -0.00008  -0.00006   0.00002   0.00005
    H56      Y    -0.00000  -0.00005   0.00001   0.00001   0.00000  -0.00001
    H56      Z     0.00201   0.00057   0.00016   0.00008  -0.00007  -0.00012
    H57      X     0.00233   0.00097   0.00002   0.00007   0.00007   0.00010
    H57      Y    -0.00276  -0.00148  -0.00004  -0.00013  -0.00013  -0.00011
    H57      Z     0.00175   0.00091   0.00002   0.00012   0.00012   0.00009
    H58      X    -0.18897  -0.09032  -0.00299  -0.00037   0.00009   0.00006
    H58      Y     0.50474   0.23958   0.00794   0.00096  -0.00027  -0.00014
    H58      Z     0.26083   0.12173   0.00405   0.00047  -0.00016  -0.00008
    H59      X     0.09577   0.10301   0.00298   0.00033  -0.00002  -0.00003
    H59      Y     0.08125   0.09591   0.00274   0.00029  -0.00003  -0.00002
    H59      Z     0.43493   0.48201   0.01386   0.00152  -0.00011  -0.00014
    H60      X    -0.17445   0.34774   0.00924   0.00081  -0.00011  -0.00005
    H60      Y     0.21718  -0.43826  -0.01166  -0.00102   0.00013   0.00007
    H60      Z    -0.17410   0.33861   0.00900   0.00078  -0.00011  -0.00006
    H61      X    -0.14756   0.11332   0.00302   0.00050   0.00012  -0.00004
    H61      Y     0.40966  -0.31688  -0.00843  -0.00136  -0.00031   0.00012
    H61      Z     0.21437  -0.16834  -0.00449  -0.00070  -0.00012   0.00007
    H62      X     0.00064   0.00242  -0.00047  -0.00097  -0.00138  -0.00009
    H62      Y     0.00016   0.00040  -0.00007  -0.00017  -0.00026  -0.00002
    H62      Z    -0.00057  -0.00251   0.00045   0.00094   0.00133   0.00008
    H63      X     0.00031  -0.00256  -0.00101  -0.00370  -0.00395  -0.00025
    H63      Y     0.00021  -0.00158  -0.00065  -0.00247  -0.00290  -0.00018
    H63      Z     0.00014  -0.00079  -0.00026  -0.00093  -0.00073  -0.00006
    H64      X     0.00010   0.00010   0.00003  -0.00002   0.00002  -0.00000
    H64      Y     0.00054  -0.00039   0.00006  -0.00025  -0.00016  -0.00002
    H64      Z     0.00049  -0.00037   0.00006  -0.00026  -0.00020  -0.00002
    H65      X    -0.00020   0.00012   0.00001   0.00001  -0.00004   0.00000
    H65      Y    -0.00098   0.00054   0.00006  -0.00002  -0.00015  -0.00002
    H65      Z    -0.00103   0.00060   0.00005  -0.00000  -0.00009  -0.00001
    H66      X    -0.00368   0.00238  -0.00003  -0.00052   0.00041  -0.00002
    H66      Y     0.00059  -0.00026   0.00002   0.00014  -0.00011  -0.00000
    H66      Z    -0.00199   0.00121  -0.00002  -0.00028   0.00022  -0.00001
    H67      X    -0.00152   0.00013  -0.00013  -0.00007   0.00023   0.00001
    H67      Y    -0.00022  -0.00007  -0.00004  -0.00004   0.00010   0.00000
    H67      Z     0.00127   0.00002   0.00014   0.00010  -0.00029  -0.00001
    H68      X     0.00015  -0.00017  -0.00002  -0.00001  -0.00001   0.00000
    H68      Y    -0.00045   0.00013  -0.00000  -0.00007  -0.00010   0.00001
    H68      Z    -0.00087   0.00046  -0.00001  -0.00015  -0.00017   0.00004
    H69      X    -0.00002   0.00001  -0.00002  -0.00001  -0.00002  -0.00001
    H69      Y     0.00008  -0.00007   0.00003   0.00001   0.00001  -0.00003
    H69      Z     0.00016  -0.00026   0.00007   0.00002   0.00004  -0.00012
    H70      X     0.00033   0.00058   0.00027   0.00007  -0.00015  -0.00004
    H70      Y     0.00016   0.00036   0.00012  -0.00000  -0.00012  -0.00002
    H70      Z     0.00008   0.00017   0.00009   0.00004  -0.00001  -0.00000
    H71      X    -0.00054   0.00027   0.00014   0.00008   0.00013   0.00011
    H71      Y     0.00046  -0.00031  -0.00019  -0.00013  -0.00012  -0.00006
    H71      Z    -0.00006   0.00003  -0.00001  -0.00001  -0.00004  -0.00003
    H72      X    -0.00007  -0.00020  -0.00018  -0.00047  -0.00070  -0.00006
    H72      Y    -0.00005  -0.00014  -0.00012  -0.00033  -0.00047  -0.00004
    H72      Z    -0.00000  -0.00002   0.00001   0.00001   0.00003   0.00000
    H73      X     0.00014  -0.00016   0.00012   0.00054  -0.00036  -0.00004
    H73      Y     0.00044  -0.00040   0.00044   0.00182  -0.00112  -0.00015
    H73      Z     0.00040  -0.00041   0.00039   0.00180  -0.00114  -0.00012
    H74      X    -0.00029  -0.00045   0.00003   0.00153  -0.00072   0.00001
    H74      Y    -0.00007   0.00002  -0.00004  -0.00008  -0.00019   0.00001
    H74      Z     0.00031   0.00047  -0.00005  -0.00184   0.00116  -0.00001
    H75      X    -0.00018   0.00016  -0.00006  -0.00017   0.00058   0.00002
    H75      Y     0.00104  -0.00088   0.00117   0.00666  -0.00417  -0.00022
    H75      Z    -0.00066   0.00052  -0.00067  -0.00351   0.00172   0.00012
    H76      X     0.00036  -0.00019  -0.00001   0.00001   0.00002  -0.00000
    H76      Y    -0.00123   0.00067   0.00003  -0.00001  -0.00000   0.00000
    H76      Z    -0.00287   0.00169   0.00005  -0.00003  -0.00003   0.00001
    H77      X     0.00200  -0.00029   0.00001  -0.00015  -0.00030  -0.00001
    H77      Y     0.00119  -0.00021   0.00001  -0.00006  -0.00013  -0.00000
    H77      Z     0.00065  -0.00018  -0.00000  -0.00004  -0.00007  -0.00000
    H78      X     0.00147  -0.00104  -0.00004  -0.00001   0.00001   0.00000
    H78      Y     0.00797  -0.00505  -0.00024  -0.00014  -0.00005   0.00003
    H78      Z    -0.00695   0.00439   0.00020   0.00013   0.00005  -0.00002
    H79      X    -0.00004  -0.00003  -0.00028  -0.00003   0.00030  -0.00015
    H79      Y    -0.00003  -0.00000  -0.00009   0.00024   0.00078  -0.00008
    H79      Z     0.00001   0.00003   0.00005   0.00010   0.00019   0.00002
    H92      X    -0.00004  -0.00008  -0.00009  -0.00022  -0.00044  -0.00000
    H92      Y    -0.00009  -0.00021  -0.00019  -0.00029   0.00007   0.00004
    H92      Z    -0.00021  -0.00048  -0.00036  -0.00056   0.00002   0.00008
    H93      X    -0.00004   0.00020   0.00078   0.00314   0.00634  -0.00006
    H93      Y     0.00004  -0.00014  -0.00051  -0.00217  -0.00436   0.00008
    H93      Z     0.00002  -0.00002  -0.00028  -0.00121  -0.00312  -0.00003
    H94      X    -0.00001   0.00005  -0.00011  -0.00025  -0.00032  -0.00002
    H94      Y    -0.00001   0.00004  -0.00005  -0.00011  -0.00013  -0.00001
    H94      Z     0.00002   0.00001   0.00001   0.00003   0.00003  -0.00000
    H95      X    -0.00002   0.00001   0.00001   0.00002   0.00001   0.00000
    H95      Y     0.00014  -0.00005  -0.00006  -0.00010  -0.00007  -0.00001
    H95      Z    -0.00012   0.00007   0.00006   0.00010   0.00007   0.00001
    H84      X    -0.00005  -0.00004  -0.00002  -0.00000   0.00001   0.00001
    H84      Y    -0.00014  -0.00019  -0.00004   0.00001   0.00014   0.00002
    H84      Z    -0.00026  -0.00033  -0.00009   0.00001   0.00022   0.00004
  
  Number of imaginary frequencies:   1
   
  Writing vibrational animation data to ox_add_TS_L1_PL146.vib
  Writing IR vibrational spectrum data to ox_add_TS_L1_PL146_vib.spm
  rotational symmetry number:  1

  rotational temperatures (K):      0.003585      0.003173      0.002831
   
  The Quasi-Harmonic approximation will be applied to compute
  vibrational constributions to thermodynamic properties.
  Frequencies will be adjusted to a minimum value of  100.00 cm^-1.

    1 vibrational frequencies below    0.0 cm-1 not included in zero-point
  energy or thermochemical analysis.  Set freqcut to change the frequency
  cutoff value.

  vibrational temperatures:
       mode:      2        3        4        5        6        7
  temp. (K):   143.88   143.88   143.88   143.88   143.88   143.88
   
       mode:      8        9       10       11       12       13
  temp. (K):   143.88   143.88   143.88   143.88   143.88   143.88
   
       mode:     14       15       16       17       18       19
  temp. (K):   143.88   143.88   143.88   143.88   143.88   143.88
   
       mode:     20       21       22       23       24       25
  temp. (K):   143.88   160.35   167.47   189.01   204.41   210.02
   
       mode:     26       27       28       29       30       31
  temp. (K):   217.14   230.13   250.96   264.98   268.73   273.59
   
       mode:     32       33       34       35       36       37
  temp. (K):   288.02   302.52   308.06   333.87   352.70   364.65
   
       mode:     38       39       40       41       42       43
  temp. (K):   369.37   372.93   374.98   388.03   388.79   397.33
   
       mode:     44       45       46       47       48       49
  temp. (K):   411.82   413.12   416.30   432.95   446.98   455.44
   
       mode:     50       51       52       53       54       55
  temp. (K):   477.23   483.24   486.59   522.05   542.75   546.09
   
       mode:     56       57       58       59       60       61
  temp. (K):   556.07   589.15   590.75   630.52   636.02   639.67
   
       mode:     62       63       64       65       66       67
  temp. (K):   647.86   660.15   685.97   690.60   704.83   709.19
   
       mode:     68       69       70       71       72       73
  temp. (K):   715.73   739.55   756.07   769.36   771.35   787.84
   
       mode:     74       75       76       77       78       79
  temp. (K):   807.13   848.10   874.42   895.57   921.03   928.22
   
       mode:     80       81       82       83       84       85
  temp. (K):   959.87   982.59   985.88  1041.96  1079.33  1098.81
   
       mode:     86       87       88       89       90       91
  temp. (K):  1118.20  1137.00  1146.74  1162.02  1162.90  1166.09
   
       mode:     92       93       94       95       96       97
  temp. (K):  1179.65  1188.06  1199.17  1213.09  1215.66  1245.09
   
       mode:     98       99      100      101      102      103
  temp. (K):  1260.44  1264.94  1304.41  1304.65  1310.79  1311.86
   
       mode:    104      105      106      107      108      109
  temp. (K):  1316.25  1325.85  1326.43  1328.75  1345.63  1359.51
   
       mode:    110      111      112      113      114      115
  temp. (K):  1364.87  1365.66  1366.35  1367.45  1372.18  1389.84
   
       mode:    116      117      118      119      120      121
  temp. (K):  1403.97  1412.72  1415.61  1417.83  1426.96  1428.09
   
       mode:    122      123      124      125      126      127
  temp. (K):  1464.72  1473.64  1474.85  1478.28  1483.37  1524.48
   
       mode:    128      129      130      131      132      133
  temp. (K):  1533.45  1534.36  1540.45  1558.98  1571.17  1592.43
   
       mode:    134      135      136      137      138      139
  temp. (K):  1596.96  1599.84  1601.39  1603.05  1608.33  1617.00
   
       mode:    140      141      142      143      144      145
  temp. (K):  1631.98  1638.89  1646.21  1649.00  1656.10  1662.80
   
       mode:    146      147      148      149      150      151
  temp. (K):  1673.13  1682.71  1705.42  1720.61  1738.62  1742.85
   
       mode:    152      153      154      155      156      157
  temp. (K):  1750.09  1757.12  1759.66  1766.42  1802.92  1832.51
   
       mode:    158      159      160      161      162      163
  temp. (K):  1839.38  1858.00  1866.11  1870.77  1879.07  1884.47
   
       mode:    164      165      166      167      168      169
  temp. (K):  1886.97  1892.65  1897.30  1897.56  1900.45  1906.01
   
       mode:    170      171      172      173      174      175
  temp. (K):  1930.53  1934.43  1940.36  1948.95  1954.43  1956.22
   
       mode:    176      177      178      179      180      181
  temp. (K):  1957.42  1969.24  1973.08  1978.36  1990.97  1997.86
   
       mode:    182      183      184      185      186      187
  temp. (K):  1999.48  2007.83  2008.99  2018.81  2020.42  2022.23
   
       mode:    188      189      190      191      192      193
  temp. (K):  2025.52  2028.36  2044.92  2047.49  2053.71  2056.54
   
       mode:    194      195      196      197      198      199
  temp. (K):  2074.73  2075.81  2082.02  2120.55  2135.11  2163.07
   
       mode:    200      201      202      203      204      205
  temp. (K):  2163.57  2164.80  2168.02  2170.13  2172.36  2173.06
   
       mode:    206      207      208      209      210      211
  temp. (K):  2173.49  2175.38  2176.82  2178.39  2179.81  2183.30
   
       mode:    212      213      214      215      216      217
  temp. (K):  2185.49  2186.04  2188.32  2196.34  2199.82  2203.89
   
       mode:    218      219      220      221      222      223
  temp. (K):  2203.93  2206.13  2207.54  2208.47  2211.40  2216.07
   
       mode:    224      225      226      227      228      229
  temp. (K):  2332.01  2336.17  2341.51  2363.68  2380.22  2405.92
   
       mode:    230      231      232      233      234      235
  temp. (K):  4343.03  4350.26  4352.47  4352.96  4354.57  4362.06
   
       mode:    236      237      238      239      240      241
  temp. (K):  4363.07  4364.08  4366.62  4367.40  4367.43  4375.49
   
       mode:    242      243      244      245      246      247
  temp. (K):  4375.63  4378.00  4380.14  4380.81  4387.30  4389.46
   
       mode:    248      249      250      251      252      253
  temp. (K):  4414.35  4427.02  4430.84  4431.90  4433.15  4436.45
   
       mode:    254      255      256      257      258      259
  temp. (K):  4442.98  4447.18  4448.05  4475.45  4476.16  4481.04
   
       mode:    260      261      262      263      264      265
  temp. (K):  4484.73  4486.23  4486.31  4491.24  4493.97  4495.54
   
       mode:    266      267      268      269      270      271
  temp. (K):  4496.96  4498.80  4503.83  4519.09  4519.66  4521.43
   
       mode:    272      273      274      275      276      277
  temp. (K):  4523.49  4575.44  4578.29  4587.65  4590.95  4604.70
   
       mode:    278      279      280      281      282
  temp. (K):  4620.00  4621.27  4627.63  4657.09  4659.95
   
   
  Thermodynamic properties calculated assuming an ideal gas

  In the table below, the units for temperature
  are kelvins, the units for U, H, and G are
  kcal/mol and the units for Cv and S are cal/(mol K)

  The zero point energy (ZPE):    527.003 kcal/mol
  is not included in U, H, or G in the table below
  
 
  =============================================================================
  Thermodynamic properties for P = 1.00E+00 atm, calculated at   1 temperatures


  T =   298.15 K, P = 1.00E+00 atm
   
                  U         Cv          S          H          G        ln(Q)
              =========  =========  =========  =========  =========  =========
  trans.          0.889      2.981     45.749      1.481    -12.159   20.52160
  rot.            0.889      2.981     38.242      0.889    -10.513   17.74428
  vib.           25.653    167.361    157.606     25.653    -21.337   36.01283
  elec.           0.000      0.000      0.000      0.000      0.000    0.00000
  ----------------------------------------------------------------------------
  total          27.431    173.323    241.597     28.023    -44.009   74.27871
   
   Total internal energy, Utot(SCFE + ZPE + U):   -2097.958918 hartrees
   Total enthalpy, Htot (Utot + nRT), with n=1:   -2097.957973 hartrees
    Total Gibbs free energy, Gtot (Htot - T*S):   -2098.072764 hartrees
   
  end of program freq
   
 Time(freq)  user:       0.432  user+sys:       0.432  wallclock:       0.651
  
  start of program post
  
  Writing input files for PBF
  end of program post
   
 Time(post)  user:       0.181  user+sys:       0.181  wallclock:       0.121

 Total cpu seconds     user:  138037.119   user+sys:  138037.119
  
 Total elapsed time:    78948 seconds

Job ox_add_TS_L1_PL146 completed on bp1-compute062.data.bp.acrc.priv at Sat Mar 29 02:17:33 2025
