Job ox_add_Ar_trans_L1_PL146 started on bp1-compute089 at Sat Apr 19 22:46:56 2025
jobid: bp1-compute089-0-680419cb

  +--------------------------------------------------------------------+
  |  Jaguar version 12.5, release 138                                  |
  |                                                                    |
  |  Copyright Schrodinger, Inc.                                       |
  |  All Rights Reserved.                                              |
  |                                                                    |
  |  The following have contributed to Jaguar (listed alphabetically): |
  |  Ty Balduf, Mike Beachy, Chandler Bennett, Art Bochevarov,         |
  |  Dale Braden, Yixiang Cao, Alan Chien, Chris Cortis,               |
  |  Rich Friesner, Jim Furness, Bill Goddard, Hod Greeley,            |
  |  Tom Hughes, Leif Jacobson, Jean-Marc Langlois, Daniel Levine,     |
  |  Rob Murphy, Dean Philipp, Tom Pollard, Murco Ringnalda,           |
  |  Daniel Mainz, Pablo Videla, Mark Watson, Haoyu Yu.                |
  |                                                                    |
  |  Use of this program should be acknowledged in publications as:    |
  |                                                                    |
  |  Jaguar, version 12.5, Schrodinger, Inc., New York, NY, 2024.      |
  |                                                                    |
  |  A. D. Bochevarov, E. Harder, T. F. Hughes, J. R. Greenwood,       |
  |  D. A. Braden, D. M. Philipp, D. Rinaldo, M. D. Halls,             |
  |  J. Zhang, R. A. Friesner, "Jaguar: A High-Performance Quantum     |
  |  Chemistry Software Program with Strengths in Life and Materials   |
  |  Sciences", Int. J. Quantum Chem., 2013, 113(18), 2110-2142.       |
  +--------------------------------------------------------------------+
  
  start of program pre
  
  Job name: ox_add_Ar_trans_L1_PL146
  Executables used: /software/local/apps/schrodinger2024-3/jaguar-v12.5/bin/Linux-x86_64
  Temporary files : /tmp/ar21627/ox_add_Ar_trans_L1_PL146#bp1-compute089-0-680419cb
  Basis file : using default basis file from /software/local/apps/schrodinger2024-3
  Maestro file (input):  ox_add_Ar_trans_L1_PL146.mae
  Maestro file (output): ox_add_Ar_trans_L1_PL146.01.mae
  
 Contents of input file: &gen and (if present) &atomic sections only
 ----------------Contents start----------------
&gen
dftname=b3pw91-d3
basis=6-31G*
numd=5
ip11=2
iaccg=3
isolv=2
igeopt=1
solvent=benzene
ifreq=1
&
&atomic
atom basis
Pd2 lacv3p*
Br3 lacv3p*
&
 -----------------Contents end-----------------
 
  PS calculation requested. Using PS version of 6-31g*
  basis set:               non_standard                    
  net molecular charge:    0
  multiplicity:            1
  
  Using up to   4 threads per process
  
  This run will use ECP on            2  atoms
  number of basis functions....          724
  
 Input geometry:
                                   angstroms
  atom               x                 y                 z
  P1            0.0000000000      0.0000000000      0.0000000000 
  Pd2           0.0000000000      0.0000000000      2.2761010486 
  Br3          -0.0804173686      0.3132049718      4.8111435857 
  C73           2.2799654848     -4.1619071744      2.1715933968 
  C74           3.0133791503     -3.0033133134      1.9640730122 
  C75           2.3640943237     -1.7703216125      2.0508592617 
  C76           0.9952132134     -1.6999988928      2.3383578262 
  C77           0.2935499159     -2.8855982787      2.5877392120 
  C78           0.9322499039     -4.1252451047      2.4986547635 
  F79           2.8964578786     -5.3627368958      2.0528448964 
  H80           4.0684095813     -3.0739385573      1.7121559177 
  H82          -0.7585055885     -2.8476858024      2.8526425605 
  H83           0.3984293377     -5.0549870051      2.6803113952 
  H14           2.9179592933     -0.8562525840      1.8955807805 
  C3            1.7314260000      0.0000000000     -0.7803510000 
  C4           -0.8389310000     -1.6125100000     -0.4671430000 
  C5           -0.9848230000      1.4026410000     -0.7940230000 
  C6            1.8547750000      0.7516540000     -2.1227420000 
  C7            3.3180330000      0.9088290000     -2.5641460000 
  C8            3.9857420000     -0.4642000000     -2.7094370000 
  C9            3.8697970000     -1.2539880000     -1.4001690000 
  C10           2.4046590000     -1.3782340000     -0.9523140000 
  C11          -2.3721174826     -1.4515060566     -0.4625896408 
  C12          -3.0900264362     -2.7875903784     -0.6989546372 
  C13          -2.6587990795     -3.4093313032     -2.0329750485 
  C14          -1.1332371592     -3.5603223005     -2.0839748918 
  C15          -0.4436413912     -2.2100247316     -1.8353295705 
  C16          -1.2326260000      1.0727740000     -2.1445640000 
  C17          -2.0074230000      1.8467040000     -3.0133740000 
  C18          -2.5762550000      3.0149250000     -2.5108640000 
  C19          -2.3457000000      3.3486970000     -1.1711310000 
  C20          -1.5716150000      2.5946540000     -0.2583740000 
  C21          -1.4845710000      3.1859880000      1.0425790000 
  C22          -2.6634327105      3.3062184021      1.8512146765 
  C23          -2.5786298094      3.8771143675      3.1346378703 
  C24          -1.3886973353      4.3483824058      3.6923529094 
  C25          -0.2525379235      4.2460147336      2.8867526669 
  C26          -0.2700935349      3.6924259062      1.5920864236 
  C27           1.0127247410      3.8203834539      0.7902957462 
  C28           0.8181094827      4.8352449318     -0.3514579707 
  C29          -4.0551909864      2.7552982271      1.5228532310 
  C30          -4.5444336642      1.7201281356      2.5635421828 
  C31          -1.3321096364      4.9436128620      5.0843251795 
  C32           2.3031877566      4.1941689638      1.5515317633 
  C33          -5.1139587122      3.8703037877      1.4013496724 
  C34          -1.6730010763      3.8779804773      6.1382500454 
  C35          -2.2490819695      6.1712920799      5.2097285655 
  H36           2.3867450000      0.5770350000     -0.0919280000 
  H37           1.3141700000      0.1937620000     -2.9206610000 
  H38           1.4022340000      1.7673630000     -2.0399630000 
  H39           3.8741960000      1.5227350000     -1.8158020000 
  H40           3.3667480000      1.4574500000     -3.5356390000 
  H41           3.4933720000     -1.0343290000     -3.5330210000 
  H42           5.0594910000     -0.3409120000     -2.9901210000 
  H43           4.4602150000     -0.7409420000     -0.6036040000 
  H44           4.3155280000     -2.2694410000     -1.5316230000 
  H45           2.3928530000     -1.9481030000      0.0023690000 
  H46           1.8435120000     -1.9816870000     -1.7025810000 
  H47          -0.5600678576     -2.3663518011      0.3044198791 
  H48          -2.7271436223     -1.0220174233      0.4996776966 
  H49          -2.6725756985     -0.7262701477     -1.2549124963 
  H50          -4.1959416418     -2.6330268653     -0.6939905625 
  H51          -2.8536007048     -3.4892544197      0.1361558111 
  H52          -3.1482244547     -4.4035949562     -2.1693315744 
  H53          -2.9968325527     -2.7574743713     -2.8737497973 
  H54          -0.8280584407     -3.9682753942     -3.0778219029 
  H55          -0.8025383859     -4.2967655416     -1.3132574690 
  H56          -0.7256189358     -1.5141752546     -2.6557767175 
  H57           0.6565249728     -2.3597292651     -1.9119960703 
  H58          -0.8269830000      0.1490770000     -2.5831970000 
  H59          -2.1683160000      1.5442320000     -4.0620710000 
  H60          -3.1860710000      3.6639080000     -3.1622960000 
  H61          -2.7801850000      4.3120260000     -0.8732000000 
  H62          -3.4781676335      3.9535039771      3.7610842859 
  H63           0.6719537537      4.6515860957      3.3174293047 
  H64           1.2188789801      2.8396674342      0.3499073725 
  H65           0.5936839087      5.8474105933      0.0561456388 
  H66          -0.0186139180      4.5570529568     -1.0306862666 
  H67           1.7323347597      4.9158089335     -0.9836597834 
  H68          -4.0468685188      2.1454346195      0.5922458337 
  H69          -4.7217448271      2.1569342417      3.5712914561 
  H70          -5.5105318147      1.2611814750      2.2484018192 
  H71          -3.8153892897      0.8878760081      2.6842918793 
  H72          -0.2902432100      5.2905808168      5.2902538322 
  H73           2.2894198459      5.2493990642      1.9082935222 
  H74           3.1954663535      4.1013162387      0.8897096530 
  H75           2.4777196872      3.5244231246      2.4240402163 
  H76          -5.3128850270      4.3635028658      2.3794918533 
  H77          -6.0846180699      3.4611943339      1.0376940507 
  H78          -4.8073575101      4.6744280756      0.6960977799 
  H79          -2.7177426681      3.5078240212      6.0298372206 
  H92          -1.5681710342      4.2856011014      7.1701564392 
  H81          -0.9907815729      3.0007145536      6.0504637235 
  H94          -3.3228671367      5.9059262704      5.0821088612 
  H95          -1.9929238612      6.9373340052      4.4417820481 
  H84          -2.1432868522      6.6489491357      6.2110556390 
   
  principal moments of inertia:
        amu*angstrom^2:              6279.42506              9266.60141             10864.95222
                g*cm^2:          1.04272293E-36          1.53875517E-36          1.80416754E-36
   
  rotational constants:
               cm^(-1):      0.00268458      0.00181918      0.00155156
                   GHz:      0.08048173      0.05453769      0.04651461
   
  Molecular weight:     756.21 amu
   
  Stoichiometry: PdC39PH53BrF
  Molecular Point Group: C1      
  Point Group used: C1
  
 
Number of optimization coordinates:   325
Number of independent coordinates:    325
Number of non-redundant coordinates:  282
Number of frozen coordinates:           0
Number of harmonic constraints:         0
 
Number of geometric degrees of freedom:   282
Maximum geometric degrees of freedom:     282
 " " " " " excluding dummy atoms:         282
 
 
  bond lengths (angstroms):
 
 P1      -Pd2     :   2.276101      P1      -C3      :   1.899153
 P1      -C4      :   1.876757      P1      -C5      :   1.888849
 Pd2     -Br3     :   2.555583      Pd2     -C76     :   1.970868
 C73     -C74     :   1.386831      C73     -C78     :   1.387318
 C73     -F79     :   1.355048      C74     -C75     :   1.396199
 C74     -H80     :   1.086986      C75     -C76     :   1.400513
 C75     -H14     :   1.080000      C76     -C77     :   1.400060
 C77     -C78     :   1.397354      C77     -H82     :   1.085556
 C78     -H83     :   1.087375      C3      -C6      :   1.543442
 C3      -C10     :   1.543484      C3      -H36     :   1.111908
 C4      -C11     :   1.541624      C4      -C15     :   1.544413
 C4      -H47     :   1.114159      C5      -C16     :   1.412154
 C5      -C20     :   1.432529      C6      -C7      :   1.536446
 C6      -H37     :   1.113630      C6      -H38     :   1.115038
 C7      -C8      :   1.533673      C7      -H39     :   1.116341
 C7      -H40     :   1.116762      C8      -C9      :   1.533425
 C8      -H41     :   1.116139      C8      -H42     :   1.116656
 C9      -C10     :   1.537088      C9      -H43     :   1.116389
 C9      -H44     :   1.116737      C10     -H45     :   1.111895
 C10     -H46     :   1.114425      C11     -C12     :   1.535051
 C11     -H48     :   1.111963      C11     -H49     :   1.115355
 C12     -C13     :   1.533665      C12     -H50     :   1.116675
 C12     -H51     :   1.116082      C13     -C14     :   1.533864
 C13     -H52     :   1.116553      C13     -H53     :   1.116282
 C14     -C15     :   1.536447      C14     -H54     :   1.116822
 C14     -H55     :   1.116116      C15     -H56     :   1.112138
 C15     -H57     :   1.112949      C16     -C17     :   1.397894
 C16     -H58     :   1.100073      C17     -C18     :   1.393135
 C17     -H59     :   1.103241      C18     -C19     :   1.399801
 C18     -H60     :   1.103367      C19     -C20     :   1.414537
 C19     -H61     :   1.097972      C20     -C21     :   1.431688
 C21     -C22     :   1.434595      C21     -C26     :   1.425971
 C22     -C23     :   1.407227      C22     -C29     :   1.532425
 C23     -C24     :   1.396094      C23     -H62     :   1.098835
 C24     -C25     :   1.396542      C24     -C31     :   1.514955
 C25     -C26     :   1.408165      C25     -H63     :   1.097568
 C26     -C27     :   1.518178      C27     -C28     :   1.539942
 C27     -C32     :   1.544180      C27     -H64     :   1.094644
 C28     -H65     :   1.113996      C28     -H66     :   1.113035
 C28     -H67     :   1.114440      C29     -C30     :   1.547246
 C29     -C33     :   1.542397      C29     -H68     :   1.112669
 C30     -H69     :   1.112563      C30     -H70     :   1.115030
 C30     -H71     :   1.112982      C31     -C34     :   1.537055
 C31     -C35     :   1.537453      C31     -H72     :   1.117264
 C32     -H73     :   1.113992      C32     -H74     :   1.114805
 C32     -H75     :   1.113684      C33     -H76     :   1.113364
 C33     -H77     :   1.114359      C33     -H78     :   1.112655
 C34     -H79     :   1.113667      C34     -H92     :   1.114439
 C34     -H81     :   1.114776      C35     -H94     :   1.113427
 C35     -H95     :   1.114531      C35     -H84     :   1.114453
 
  bond angles:
 
 C3      -P1      -Pd2     : 114.261015  C4      -P1      -Pd2     : 104.413004
 C4      -P1      -C3      : 107.773617  C5      -P1      -Pd2     : 114.858201
 C5      -P1      -C3      : 107.614511  C5      -P1      -C4      : 107.477575
 Br3     -Pd2     -P1      : 172.730742  C76     -Pd2     -P1      :  91.810189
 C76     -Pd2     -Br3     :  95.179054  C78     -C73     -C74     : 121.799250
 F79     -C73     -C74     : 119.119355  F79     -C73     -C78     : 119.081372
 C75     -C74     -C73     : 118.851227  H80     -C74     -C73     : 119.583608
 H80     -C74     -C75     : 121.543804  C76     -C75     -C74     : 120.772927
 H14     -C75     -C74     : 120.000000  H14     -C75     -C76     : 119.227073
 C75     -C76     -Pd2     : 122.031368  C77     -C76     -Pd2     : 118.881056
 C77     -C76     -C75     : 118.939883  C78     -C77     -C76     : 120.718410
 H82     -C77     -C76     : 119.973007  H82     -C77     -C78     : 119.308555
 C77     -C78     -C73     : 118.849083  H83     -C78     -C73     : 119.584134
 H83     -C78     -C77     : 121.566745  C6      -C3      -P1      : 115.482193
 C10     -C3      -P1      : 116.323207  C10     -C3      -C6      : 107.643956
 H36     -C3      -P1      : 106.434200  H36     -C3      -C6      : 103.807101
 H36     -C3      -C10     : 105.980486  C11     -C4      -P1      : 110.738068
 C15     -C4      -P1      : 116.008863  C15     -C4      -C11     : 107.311688
 H47     -C4      -P1      : 107.282423  H47     -C4      -C11     : 108.514083
 H47     -C4      -C15     : 106.717762  C16     -C5      -P1      : 108.666711
 C20     -C5      -P1      : 132.399612  C20     -C5      -C16     : 118.691726
 C7      -C6      -C3      : 112.073554  H37     -C6      -C3      : 109.901496
 H37     -C6      -C7      : 107.922155  H38     -C6      -C3      : 110.280278
 H38     -C6      -C7      : 108.340464  H38     -C6      -H37     : 108.210788
 C8      -C7      -C6      : 110.503273  H39     -C7      -C6      : 109.763661
 H39     -C7      -C8      : 109.811721  H40     -C7      -C6      : 109.981518
 H40     -C7      -C8      : 109.779500  H40     -C7      -H39     : 106.933685
 C9      -C8      -C7      : 110.321973  H41     -C8      -C7      : 109.581516
 H41     -C8      -C9      : 109.486077  H42     -C8      -C7      : 110.096731
 H42     -C8      -C9      : 110.132310  H42     -C8      -H41     : 107.163976
 C10     -C9      -C8      : 111.252501  H43     -C9      -C8      : 109.422610
 H43     -C9      -C10     : 109.472841  H44     -C9      -C8      : 109.733808
 H44     -C9      -C10     : 109.953059  H44     -C9      -H43     : 106.904606
 C9      -C10     -C3      : 112.088856  H45     -C10     -C3      : 110.938019
 H45     -C10     -C9      : 107.560842  H46     -C10     -C3      : 109.809666
 H46     -C10     -C9      : 109.121575  H46     -C10     -H45     : 107.167792
 C12     -C11     -C4      : 111.947817  H48     -C11     -C4      : 111.126341
 H48     -C11     -C12     : 108.669593  H49     -C11     -C4      : 109.494682
 H49     -C11     -C12     : 109.304054  H49     -C11     -H48     : 106.116356
 C13     -C12     -C11     : 110.810925  H50     -C12     -C11     : 109.999579
 H50     -C12     -C13     : 109.782118  H51     -C12     -C11     : 109.445619
 H51     -C12     -C13     : 109.658877  H51     -C12     -H50     : 107.066825
 C14     -C13     -C12     : 110.394373  H52     -C13     -C12     : 110.119025
 H52     -C13     -C14     : 110.135780  H53     -C13     -C12     : 109.467225
 H53     -C13     -C14     : 109.488770  H53     -C13     -H52     : 107.174175
 C15     -C14     -C13     : 110.762982  H54     -C14     -C13     : 109.713864
 H54     -C14     -C15     : 110.022673  H55     -C14     -C13     : 109.674910
 H55     -C14     -C15     : 109.581676  H55     -C14     -H54     : 107.008477
 C14     -C15     -C4      : 111.623363  H56     -C15     -C4      : 110.278116
 H56     -C15     -C14     : 108.463277  H57     -C15     -C4      : 111.473754
 H57     -C15     -C14     : 108.319006  H57     -C15     -H56     : 106.497701
 C17     -C16     -C5      : 124.217200  H58     -C16     -C5      : 120.848301
 H58     -C16     -C17     : 114.925303  C18     -C17     -C16     : 117.799910
 H59     -C17     -C16     : 121.320683  H59     -C17     -C18     : 120.879109
 C19     -C18     -C17     : 118.549764  H60     -C18     -C17     : 120.393212
 H60     -C18     -C19     : 121.054346  C20     -C19     -C18     : 125.493203
 H61     -C19     -C18     : 113.811468  H61     -C19     -C20     : 120.607624
 C19     -C20     -C5      : 115.242330  C21     -C20     -C5      : 131.189824
 C21     -C20     -C19     : 113.543362  C22     -C21     -C20     : 119.791946
 C26     -C21     -C20     : 123.273644  C26     -C21     -C22     : 116.928869
 C23     -C22     -C21     : 119.904664  C29     -C22     -C21     : 126.541026
 C29     -C22     -C23     : 113.328583  C24     -C23     -C22     : 123.548685
 H62     -C23     -C22     : 119.921626  H62     -C23     -C24     : 116.521233
 C25     -C24     -C23     : 115.990880  C31     -C24     -C23     : 122.108125
 C31     -C24     -C25     : 121.899906  C26     -C25     -C24     : 123.300690
 H63     -C25     -C24     : 115.583359  H63     -C25     -C26     : 121.100024
 C25     -C26     -C21     : 120.300498  C27     -C26     -C21     : 123.097554
 C27     -C26     -C25     : 116.224601  C28     -C27     -C26     : 109.896754
 C32     -C27     -C26     : 117.787228  C32     -C27     -C28     : 108.155152
 H64     -C27     -C26     : 107.223138  H64     -C27     -C28     : 108.418300
 H64     -C27     -C32     : 104.940131  H65     -C28     -C27     : 110.668567
 H66     -C28     -C27     : 112.503659  H66     -C28     -H65     : 107.393434
 H67     -C28     -C27     : 111.380856  H67     -C28     -H65     : 107.887459
 H67     -C28     -H66     : 106.772892  C30     -C29     -C22     : 112.555587
 C33     -C29     -C22     : 112.359782  C33     -C29     -C30     : 108.637683
 H68     -C29     -C22     : 111.683017  H68     -C29     -C30     : 101.432272
 H68     -C29     -C33     : 109.601633  H69     -C30     -C29     : 113.388366
 H70     -C30     -C29     : 111.053937  H70     -C30     -H69     : 106.231420
 H71     -C30     -C29     : 111.477463  H71     -C30     -H69     : 107.439950
 H71     -C30     -H70     : 106.883515  C34     -C31     -C24     : 110.446558
 C35     -C31     -C24     : 111.494094  C35     -C31     -C34     : 111.432369
 H72     -C31     -C24     : 109.038366  H72     -C31     -C34     : 107.201819
 H72     -C31     -C35     : 107.047248  H73     -C32     -C27     : 112.138112
 H74     -C32     -C27     : 110.858412  H74     -C32     -H73     : 106.195378
 H75     -C32     -C27     : 111.815032  H75     -C32     -H73     : 108.704750
 H75     -C32     -H74     : 106.832867  H76     -C33     -C29     : 111.942282
 H77     -C33     -C29     : 110.991852  H77     -C33     -H76     : 107.079595
 H78     -C33     -C29     : 112.533607  H78     -C33     -H76     : 106.615761
 H78     -C33     -H77     : 107.367641  H79     -C34     -C31     : 111.823074
 H92     -C34     -C31     : 111.128127  H92     -C34     -H79     : 107.454765
 H81     -C34     -C31     : 110.846305  H81     -C34     -H79     : 107.750706
 H81     -C34     -H92     : 107.649001  H94     -C35     -C31     : 112.056905
 H95     -C35     -C31     : 110.827592  H95     -C35     -H94     : 107.847659
 H84     -C35     -C31     : 111.033461  H84     -C35     -H94     : 107.258556
 H84     -C35     -H95     : 107.618818
 
  torsional angles:
 
 P1      -Pd2     -C76     -C75     :  74.808904
 P1      -Pd2     -C76     -C77     :-100.724774
 P1      -C3      -C6      -C7      : 170.312141
 P1      -C3      -C6      -H37     : -69.690300
 P1      -C3      -C6      -H38     :  49.525700
 P1      -C3      -C10     -C9      :-171.775272
 P1      -C3      -C10     -H45     : -51.515570
 P1      -C3      -C10     -H46     :  66.762044
 P1      -C4      -C11     -C12     :-174.123033
 P1      -C4      -C11     -H48     : -52.407923
 P1      -C4      -C11     -H49     :  64.494853
 P1      -C4      -C15     -C14     : 177.116189
 P1      -C4      -C15     -H56     : -62.243884
 P1      -C4      -C15     -H57     :  55.833774
 P1      -C5      -C16     -C17     : 175.890179
 P1      -C5      -C16     -H58     :  -2.949598
 P1      -C5      -C20     -C19     :-174.503172
 P1      -C5      -C20     -C21     :   7.440696
 Pd2     -P1      -C3      -C6      :-147.351771
 Pd2     -P1      -C3      -C10     :  85.030040
 Pd2     -P1      -C3      -H36     : -32.756134
 Pd2     -P1      -C4      -C11     :  84.228143
 Pd2     -P1      -C4      -C15     :-153.171103
 Pd2     -P1      -C4      -H47     : -34.026625
 Pd2     -P1      -C5      -C16     :-162.946211
 Pd2     -P1      -C5      -C20     :  11.158518
 Pd2     -C76     -C75     -C74     :-173.175344
 Pd2     -C76     -C75     -H14     :   6.824656
 Pd2     -C76     -C77     -C78     : 173.082800
 Pd2     -C76     -C77     -H82     :  -6.856619
 Br3     -Pd2     -P1      -C3      : 104.400000
 Br3     -Pd2     -P1      -C4      :-138.113660
 Br3     -Pd2     -P1      -C5      : -20.673480
 Br3     -Pd2     -C76     -C75     :-103.190841
 Br3     -Pd2     -C76     -C77     :  81.275482
 C73     -C74     -C75     -C76     :  -0.186500
 C73     -C74     -C75     -H14     : 179.813500
 C73     -C78     -C77     -C76     :   0.652883
 C73     -C78     -C77     -H82     :-179.407300
 C74     -C73     -C78     -C77     :   1.604524
 C74     -C73     -C78     -H83     :-178.325638
 C74     -C75     -C76     -C77     :   2.355796
 C75     -C74     -C73     -C78     :  -1.835403
 C75     -C74     -C73     -F79     : 178.220350
 C75     -C76     -C77     -C78     :  -2.590835
 C75     -C76     -C77     -H82     : 177.469747
 C76     -Pd2     -P1      -C3      : -59.654444
 C76     -Pd2     -P1      -C4      :  57.831896
 C76     -Pd2     -P1      -C5      : 175.272076
 C76     -C75     -C74     -H80     : 178.124774
 C76     -C77     -C78     -H83     :-179.418397
 C77     -C76     -C75     -H14     :-177.644204
 C77     -C78     -C73     -F79     :-178.451208
 C78     -C73     -C74     -H80     : 179.819533
 F79     -C73     -C74     -H80     :  -0.124714
 F79     -C73     -C78     -H83     :   1.618630
 H80     -C74     -C75     -H14     :  -1.875226
 H82     -C77     -C78     -H83     :   0.521420
 C3      -P1      -C4      -C11     :-153.908628
 C3      -P1      -C4      -C15     : -31.307873
 C3      -P1      -C4      -H47     :  87.836605
 C3      -P1      -C5      -C16     :  68.575132
 C3      -P1      -C5      -C20     :-117.320139
 C3      -C6      -C7      -C8      :  58.739691
 C3      -C6      -C7      -H39     : -62.516410
 C3      -C6      -C7      -H40     :-179.901248
 C3      -C10     -C9      -C8      : -57.176607
 C3      -C10     -C9      -H43     :  63.885387
 C3      -C10     -C9      -H44     :-178.954189
 C4      -P1      -C3      -C6      :  97.105682
 C4      -P1      -C3      -C10     : -30.512507
 C4      -P1      -C3      -H36     :-148.298681
 C4      -P1      -C5      -C16     : -47.257531
 C4      -P1      -C5      -C20     : 126.847198
 C4      -C11     -C12     -C13     : -58.164312
 C4      -C11     -C12     -H50     :-179.740867
 C4      -C11     -C12     -H51     :  62.890635
 C4      -C15     -C14     -C13     :  58.611595
 C4      -C15     -C14     -H54     :-179.913842
 C4      -C15     -C14     -H55     : -62.521935
 C5      -P1      -C3      -C6      : -18.531854
 C5      -P1      -C3      -C10     :-146.150043
 C5      -P1      -C3      -H36     :  96.063783
 C5      -P1      -C4      -C11     : -38.181057
 C5      -P1      -C4      -C15     :  84.419697
 C5      -P1      -C4      -H47     :-156.435825
 C5      -C16     -C17     -C18     :  -0.326790
 C5      -C16     -C17     -H59     : 179.870300
 C5      -C20     -C19     -C18     :   0.486073
 C5      -C20     -C19     -H61     :-175.891602
 C5      -C20     -C21     -C22     :-116.352873
 C5      -C20     -C21     -C26     :  64.530427
 C6      -C3      -C10     -C9      :  56.844316
 C6      -C3      -C10     -H45     : 177.104018
 C6      -C3      -C10     -H46     : -64.618369
 C6      -C7      -C8      -C9      : -55.963191
 C6      -C7      -C8      -H41     :  64.653691
 C6      -C7      -C8      -H42     :-177.721356
 C7      -C6      -C3      -C10     : -57.847589
 C7      -C6      -C3      -H36     :  54.217656
 C7      -C8      -C9      -C10     :  55.413848
 C7      -C8      -C9      -H43     : -65.677574
 C7      -C8      -C9      -H44     : 177.318838
 C8      -C7      -C6      -H37     : -62.405908
 C8      -C7      -C6      -H38     :-179.357826
 C8      -C9      -C10     -H45     :-179.381508
 C8      -C9      -C10     -H46     :  64.680474
 C9      -C8      -C7      -H39     :  65.264405
 C9      -C8      -C7      -H40     :-177.441842
 C9      -C10     -C3      -H36     : -53.740132
 C10     -C3      -C6      -H37     :  62.149969
 C10     -C3      -C6      -H38     :-178.634030
 C10     -C9      -C8      -H41     : -65.260185
 C10     -C9      -C8      -H42     : 177.150954
 C11     -C4      -C15     -C14     : -58.497245
 C11     -C4      -C15     -H56     :  62.142682
 C11     -C4      -C15     -H57     :-179.779661
 C11     -C12     -C13     -C14     :  55.349695
 C11     -C12     -C13     -H52     : 177.174843
 C11     -C12     -C13     -H53     : -65.242998
 C12     -C11     -C4      -C15     :  58.348698
 C12     -C11     -C4      -H47     : -56.620220
 C12     -C13     -C14     -C15     : -55.661573
 C12     -C13     -C14     -H54     :-177.317776
 C12     -C13     -C14     -H55     :  65.416849
 C13     -C12     -C11     -H48     : 178.720059
 C13     -C12     -C11     -H49     :  63.327616
 C13     -C14     -C15     -H56     : -63.083311
 C13     -C14     -C15     -H57     :-178.291834
 C14     -C13     -C12     -H50     : 177.053943
 C14     -C13     -C12     -H51     : -65.579163
 C14     -C15     -C4      -H47     :  57.664056
 C15     -C4      -C11     -H48     :-179.936192
 C15     -C4      -C11     -H49     : -63.033416
 C15     -C14     -C13     -H52     :-177.476826
 C15     -C14     -C13     -H53     :  64.918228
 C16     -C5      -C20     -C19     :  -0.871968
 C16     -C5      -C20     -C21     :-178.928100
 C16     -C17     -C18     -C19     :  -0.115384
 C16     -C17     -C18     -H60     : 179.295595
 C17     -C16     -C5      -C20     :   0.850394
 C17     -C18     -C19     -C20     :   0.015970
 C17     -C18     -C19     -H61     : 176.608522
 C18     -C17     -C16     -H58     : 178.574828
 C18     -C19     -C20     -C21     : 178.890526
 C19     -C18     -C17     -H59     : 179.688440
 C19     -C20     -C21     -C22     :  65.565019
 C19     -C20     -C21     -C26     :-113.551681
 C20     -C5      -C16     -H58     :-177.989384
 C20     -C19     -C18     -H60     :-179.390956
 C20     -C21     -C22     -C23     : 179.481969
 C20     -C21     -C22     -C29     :   5.321845
 C20     -C21     -C26     -C25     :-179.160890
 C20     -C21     -C26     -C27     :   8.161320
 C21     -C20     -C19     -H61     :   2.512850
 C21     -C22     -C23     -C24     :  -0.039720
 C21     -C22     -C23     -H62     :-178.944142
 C21     -C22     -C29     -C30     : 118.541309
 C21     -C22     -C29     -C33     :-118.431226
 C21     -C22     -C29     -H68     :   5.205769
 C21     -C26     -C25     -C24     :  -0.703109
 C21     -C26     -C25     -H63     :-179.186516
 C21     -C26     -C27     -C28     :  64.015094
 C21     -C26     -C27     -C32     :-171.562749
 C21     -C26     -C27     -H64     : -53.629150
 C22     -C21     -C26     -C25     :   1.698894
 C22     -C21     -C26     -C27     :-170.978896
 C22     -C23     -C24     -C25     :   1.063186
 C22     -C23     -C24     -C31     :-179.309854
 C22     -C29     -C30     -H69     :  66.147975
 C22     -C29     -C30     -H70     :-174.326432
 C22     -C29     -C30     -H71     : -55.256123
 C22     -C29     -C33     -H76     : -67.563930
 C22     -C29     -C33     -H77     : 172.850607
 C22     -C29     -C33     -H78     :  52.496295
 C23     -C22     -C21     -C26     :  -1.346332
 C23     -C22     -C29     -C30     : -55.946705
 C23     -C22     -C29     -C33     :  67.080760
 C23     -C22     -C29     -H68     :-169.282245
 C23     -C24     -C25     -C26     :  -0.691187
 C23     -C24     -C25     -H63     : 177.869064
 C23     -C24     -C31     -C34     :  65.047922
 C23     -C24     -C31     -C35     : -59.419190
 C23     -C24     -C31     -H72     :-177.401025
 C24     -C23     -C22     -C29     : 174.852705
 C24     -C25     -C26     -C27     : 172.461322
 C24     -C31     -C34     -H79     : -63.734219
 C24     -C31     -C34     -H92     : 176.190600
 C24     -C31     -C34     -H81     :  56.524026
 C24     -C31     -C35     -H94     :  64.402819
 C24     -C31     -C35     -H95     : -56.124379
 C24     -C31     -C35     -H84     :-175.678488
 C25     -C24     -C23     -H62     :-179.998031
 C25     -C24     -C31     -C34     :-115.347039
 C25     -C24     -C31     -C35     : 120.185849
 C25     -C24     -C31     -H72     :   2.204013
 C25     -C26     -C27     -C28     :-108.939006
 C25     -C26     -C27     -C32     :  15.483150
 C25     -C26     -C27     -H64     : 133.416749
 C26     -C21     -C22     -C29     :-175.506457
 C26     -C25     -C24     -C31     : 179.681006
 C26     -C27     -C28     -H65     :  62.443561
 C26     -C27     -C28     -H66     : -57.696446
 C26     -C27     -C28     -H67     :-177.540986
 C26     -C27     -C32     -H73     : -70.360721
 C26     -C27     -C32     -H74     : 171.133573
 C26     -C27     -C32     -H75     :  52.035152
 C27     -C26     -C25     -H63     :  -6.022085
 C28     -C27     -C32     -H73     :  54.923868
 C28     -C27     -C32     -H74     : -63.581837
 C28     -C27     -C32     -H75     : 177.319741
 C29     -C22     -C23     -H62     :  -4.051717
 C30     -C29     -C33     -H76     :  57.637632
 C30     -C29     -C33     -H77     : -61.947831
 C30     -C29     -C33     -H78     : 177.697857
 C31     -C24     -C23     -H62     :  -0.371070
 C31     -C24     -C25     -H63     :  -1.758744
 C32     -C27     -C28     -H65     : -67.381240
 C32     -C27     -C28     -H66     : 172.478754
 C32     -C27     -C28     -H67     :  52.634213
 C33     -C29     -C30     -H69     : -58.938616
 C33     -C29     -C30     -H70     :  60.586977
 C33     -C29     -C30     -H71     : 179.657286
 C34     -C31     -C35     -H94     : -59.508997
 C34     -C31     -C35     -H95     : 179.963805
 C34     -C31     -C35     -H84     :  60.409695
 C35     -C31     -C34     -H79     :  60.768224
 C35     -C31     -C34     -H92     : -59.306957
 C35     -C31     -C34     -H81     :-178.973532
 H36     -C3      -C6      -H37     : 174.215214
 H36     -C3      -C6      -H38     : -66.568786
 H36     -C3      -C10     -H45     :  66.519570
 H36     -C3      -C10     -H46     :-175.202817
 H37     -C6      -C7      -H39     : 176.337991
 H37     -C6      -C7      -H40     :  58.953153
 H38     -C6      -C7      -H39     :  59.386074
 H38     -C6      -C7      -H40     : -57.998765
 H39     -C7      -C8      -H41     :-174.118713
 H39     -C7      -C8      -H42     : -56.493760
 H40     -C7      -C8      -H41     : -56.824960
 H40     -C7      -C8      -H42     :  60.799993
 H41     -C8      -C9      -H43     : 173.648392
 H41     -C8      -C9      -H44     :  56.644805
 H42     -C8      -C9      -H43     :  56.059532
 H42     -C8      -C9      -H44     : -60.944056
 H43     -C9      -C10     -H45     : -58.319514
 H43     -C9      -C10     -H46     :-174.257532
 H44     -C9      -C10     -H45     :  58.840909
 H44     -C9      -C10     -H46     : -57.097108
 H47     -C4      -C11     -H48     :  65.094890
 H47     -C4      -C11     -H49     :-178.002334
 H47     -C4      -C15     -H56     : 178.303983
 H47     -C4      -C15     -H57     : -63.618359
 H48     -C11     -C12     -H50     :  57.143503
 H48     -C11     -C12     -H51     : -60.224995
 H49     -C11     -C12     -H50     : -58.248939
 H49     -C11     -C12     -H51     :-175.617437
 H50     -C12     -C13     -H52     : -61.120909
 H50     -C12     -C13     -H53     :  56.461249
 H51     -C12     -C13     -H52     :  56.245985
 H51     -C12     -C13     -H53     : 173.828144
 H52     -C13     -C14     -H54     :  60.866972
 H52     -C13     -C14     -H55     : -56.398403
 H53     -C13     -C14     -H54     : -56.737974
 H53     -C13     -C14     -H55     :-174.003349
 H54     -C14     -C15     -H56     :  58.391252
 H54     -C14     -C15     -H57     : -56.817271
 H55     -C14     -C15     -H56     : 175.783159
 H55     -C14     -C15     -H57     :  60.574636
 H58     -C16     -C17     -H59     :  -1.228082
 H59     -C17     -C18     -H60     :  -0.900581
 H60     -C18     -C19     -H61     :  -2.798404
 H64     -C27     -C28     -H65     : 179.342506
 H64     -C27     -C28     -H66     :  59.202500
 H64     -C27     -C28     -H67     : -60.642041
 H64     -C27     -C32     -H73     : 170.495332
 H64     -C27     -C32     -H74     :  51.989627
 H64     -C27     -C32     -H75     : -67.108794
 H68     -C29     -C30     -H69     :-174.369046
 H68     -C29     -C30     -H70     : -54.843453
 H68     -C29     -C30     -H71     :  64.226856
 H68     -C29     -C33     -H76     : 167.645815
 H68     -C29     -C33     -H77     :  48.060352
 H68     -C29     -C33     -H78     : -72.293960
 H72     -C31     -C34     -H79     : 177.589756
 H72     -C31     -C34     -H92     :  57.514575
 H72     -C31     -C34     -H81     : -62.152000
 H72     -C31     -C35     -H94     :-176.424530
 H72     -C31     -C35     -H95     :  63.048272
 H72     -C31     -C35     -H84     : -56.505837
 
  nuclear repulsion energy.......          6187.183294991 hartrees
  
  Detected an organometallic with only one TM atom. 
  
  Oxidation state on metal       2 is     2
  Formal multiplet on metal      2 is     1
  Formal charge on ligand        3 is    -1
  Formal multiplet on ligand     3 is     1
  Formal charge on ligand        4 is    -1
  Formal multiplet on ligand     4 is     1
  
 
  Will use High-Quality Initial guess for organometallics
       including d-d repulsion (iguess=30)
 
 Non-default options chosen:
   SCF calculation type: DFT(b3pw91-d3)              
   DFT=Becke_3_Parameter/HF+Slater+Becke88+PW91+PW-GGAIIC (B3PW91-D3)
   Geometry will be optimized in redundant internal coordinates
   Solvation energy will be computed using PBF
     -solute cavity energy will not be included
     -surface area terms will not be included
   Vibrational frequencies and related properties will be computed
      from analytic second derivatives
   IR intensities will be computed
   Thermochemical properties will be computed
   Maximum number of geometry steps: 100
   Scaling standard convergence criteria by a factor of   5.00
   Solvent: benzene                                                         
   Internal dielectric constant:    1.000
   Continuum dielectric constant:   2.283
   Solvent probe molecule radius:   2.600
  
 Non-default print settings:
     11=  2
  
 Temporary integer options set:
     21= -1  73=  2
  
  atom       vdw   vdw2    cov     mass  grid  daf  charge   basis
  P1        2.147  2.074  1.060   30.974    Y    Y      Y    ps_6-31g*
  Pd2       1.450  1.450  1.280  105.903    Y    Y      Y    lacv3p*
  Br3       2.095  2.095  1.140   78.918    Y    Y      Y    lav3p*
  C73       1.949  1.900  0.770   12.000    Y    Y      Y    ps_6-31g*
  C74       1.949  1.900  0.770   12.000    Y    Y      Y    ps_6-31g*
  C75       1.949  1.900  0.770   12.000    Y    Y      Y    ps_6-31g*
  C76       1.949  1.900  0.770   12.000    Y    Y      Y    ps_6-31g*
  C77       1.949  1.900  0.770   12.000    Y    Y      Y    ps_6-31g*
  C78       1.949  1.900  0.770   12.000    Y    Y      Y    ps_6-31g*
  F79       1.736  1.682  0.720   18.998    Y    Y      Y    ps_6-31g*
  H80       1.597  1.150  0.320    1.008    Y    Y      Y    ps_6-31g*
  H82       1.597  1.150  0.320    1.008    Y    Y      Y    ps_6-31g*
  H83       1.597  1.150  0.320    1.008    Y    Y      Y    ps_6-31g*
  H14       1.597  1.150  0.320    1.008    Y    Y      Y    ps_6-31g*
  C3        1.949  1.900  0.770   12.000    Y    Y      Y    ps_6-31g*
  C4        1.949  1.900  0.770   12.000    Y    Y      Y    ps_6-31g*
  C5        1.949  1.900  0.770   12.000    Y    Y      Y    ps_6-31g*
  C6        1.949  1.900  0.770   12.000    Y    Y      Y    ps_6-31g*
  C7        1.949  1.900  0.770   12.000    Y    Y      Y    ps_6-31g*
  C8        1.949  1.900  0.770   12.000    Y    Y      Y    ps_6-31g*
  C9        1.949  1.900  0.770   12.000    Y    Y      Y    ps_6-31g*
  C10       1.949  1.900  0.770   12.000    Y    Y      Y    ps_6-31g*
  C11       1.949  1.900  0.770   12.000    Y    Y      Y    ps_6-31g*
  C12       1.949  1.900  0.770   12.000    Y    Y      Y    ps_6-31g*
  C13       1.949  1.900  0.770   12.000    Y    Y      Y    ps_6-31g*
  C14       1.949  1.900  0.770   12.000    Y    Y      Y    ps_6-31g*
  C15       1.949  1.900  0.770   12.000    Y    Y      Y    ps_6-31g*
  C16       1.949  1.900  0.770   12.000    Y    Y      Y    ps_6-31g*
  C17       1.949  1.900  0.770   12.000    Y    Y      Y    ps_6-31g*
  C18       1.949  1.900  0.770   12.000    Y    Y      Y    ps_6-31g*
  C19       1.949  1.900  0.770   12.000    Y    Y      Y    ps_6-31g*
  C20       1.949  1.900  0.770   12.000    Y    Y      Y    ps_6-31g*
  C21       1.949  1.900  0.770   12.000    Y    Y      Y    ps_6-31g*
  C22       1.949  1.900  0.770   12.000    Y    Y      Y    ps_6-31g*
  C23       1.949  1.900  0.770   12.000    Y    Y      Y    ps_6-31g*
  C24       1.949  1.900  0.770   12.000    Y    Y      Y    ps_6-31g*
  C25       1.949  1.900  0.770   12.000    Y    Y      Y    ps_6-31g*
  C26       1.949  1.900  0.770   12.000    Y    Y      Y    ps_6-31g*
  C27       1.949  1.900  0.770   12.000    Y    Y      Y    ps_6-31g*
  C28       1.949  1.900  0.770   12.000    Y    Y      Y    ps_6-31g*
  C29       1.949  1.900  0.770   12.000    Y    Y      Y    ps_6-31g*
  C30       1.949  1.900  0.770   12.000    Y    Y      Y    ps_6-31g*
  C31       1.949  1.900  0.770   12.000    Y    Y      Y    ps_6-31g*
  C32       1.949  1.900  0.770   12.000    Y    Y      Y    ps_6-31g*
  C33       1.949  1.900  0.770   12.000    Y    Y      Y    ps_6-31g*
  C34       1.949  1.900  0.770   12.000    Y    Y      Y    ps_6-31g*
  C35       1.949  1.900  0.770   12.000    Y    Y      Y    ps_6-31g*
  H36       1.597  1.150  0.320    1.008    Y    Y      Y    ps_6-31g*
  H37       1.597  1.150  0.320    1.008    Y    Y      Y    ps_6-31g*
  H38       1.597  1.150  0.320    1.008    Y    Y      Y    ps_6-31g*
  H39       1.597  1.150  0.320    1.008    Y    Y      Y    ps_6-31g*
  H40       1.597  1.150  0.320    1.008    Y    Y      Y    ps_6-31g*
  H41       1.597  1.150  0.320    1.008    Y    Y      Y    ps_6-31g*
  H42       1.597  1.150  0.320    1.008    Y    Y      Y    ps_6-31g*
  H43       1.597  1.150  0.320    1.008    Y    Y      Y    ps_6-31g*
  H44       1.597  1.150  0.320    1.008    Y    Y      Y    ps_6-31g*
  H45       1.597  1.150  0.320    1.008    Y    Y      Y    ps_6-31g*
  H46       1.597  1.150  0.320    1.008    Y    Y      Y    ps_6-31g*
  H47       1.597  1.150  0.320    1.008    Y    Y      Y    ps_6-31g*
  H48       1.597  1.150  0.320    1.008    Y    Y      Y    ps_6-31g*
  H49       1.597  1.150  0.320    1.008    Y    Y      Y    ps_6-31g*
  H50       1.597  1.150  0.320    1.008    Y    Y      Y    ps_6-31g*
  H51       1.597  1.150  0.320    1.008    Y    Y      Y    ps_6-31g*
  H52       1.597  1.150  0.320    1.008    Y    Y      Y    ps_6-31g*
  H53       1.597  1.150  0.320    1.008    Y    Y      Y    ps_6-31g*
  H54       1.597  1.150  0.320    1.008    Y    Y      Y    ps_6-31g*
  H55       1.597  1.150  0.320    1.008    Y    Y      Y    ps_6-31g*
  H56       1.597  1.150  0.320    1.008    Y    Y      Y    ps_6-31g*
  H57       1.597  1.150  0.320    1.008    Y    Y      Y    ps_6-31g*
  H58       1.597  1.150  0.320    1.008    Y    Y      Y    ps_6-31g*
  H59       1.597  1.150  0.320    1.008    Y    Y      Y    ps_6-31g*
  H60       1.597  1.150  0.320    1.008    Y    Y      Y    ps_6-31g*
  H61       1.597  1.150  0.320    1.008    Y    Y      Y    ps_6-31g*
  H62       1.597  1.150  0.320    1.008    Y    Y      Y    ps_6-31g*
  H63       1.597  1.150  0.320    1.008    Y    Y      Y    ps_6-31g*
  H64       1.597  1.150  0.320    1.008    Y    Y      Y    ps_6-31g*
  H65       1.597  1.150  0.320    1.008    Y    Y      Y    ps_6-31g*
  H66       1.597  1.150  0.320    1.008    Y    Y      Y    ps_6-31g*
  H67       1.597  1.150  0.320    1.008    Y    Y      Y    ps_6-31g*
  H68       1.597  1.150  0.320    1.008    Y    Y      Y    ps_6-31g*
  H69       1.597  1.150  0.320    1.008    Y    Y      Y    ps_6-31g*
  H70       1.597  1.150  0.320    1.008    Y    Y      Y    ps_6-31g*
  H71       1.597  1.150  0.320    1.008    Y    Y      Y    ps_6-31g*
  H72       1.597  1.150  0.320    1.008    Y    Y      Y    ps_6-31g*
  H73       1.597  1.150  0.320    1.008    Y    Y      Y    ps_6-31g*
  H74       1.597  1.150  0.320    1.008    Y    Y      Y    ps_6-31g*
  H75       1.597  1.150  0.320    1.008    Y    Y      Y    ps_6-31g*
  H76       1.597  1.150  0.320    1.008    Y    Y      Y    ps_6-31g*
  H77       1.597  1.150  0.320    1.008    Y    Y      Y    ps_6-31g*
  H78       1.597  1.150  0.320    1.008    Y    Y      Y    ps_6-31g*
  H79       1.597  1.150  0.320    1.008    Y    Y      Y    ps_6-31g*
  H92       1.597  1.150  0.320    1.008    Y    Y      Y    ps_6-31g*
  H81       1.597  1.150  0.320    1.008    Y    Y      Y    ps_6-31g*
  H94       1.597  1.150  0.320    1.008    Y    Y      Y    ps_6-31g*
  H95       1.597  1.150  0.320    1.008    Y    Y      Y    ps_6-31g*
  H84       1.597  1.150  0.320    1.008    Y    Y      Y    ps_6-31g*
 
  atom      formal  2spin      esp    mulk    frag
  P1           0       0        Y    0.000       0
  Pd2          2       0        Y    0.000       0
  Br3         -1       0        Y    0.000       0
  C73         -1       0        Y    0.000       0
  
  end of program pre
   
 Time(pre)  user:       1.153  user+sys:       1.153  wallclock:       1.156
  
  start of program onee
  
  smallest eigenvalue of S:    3.038E-04
  number of canonical orbitals.....          722
  end of program onee
   
 Time(onee)  user:      12.128  user+sys:      12.128  wallclock:      10.215
  
  start of program hfig
  
  initial wavefunction generated automatically from atomic wavefunctions
  Only one state below 0.010000
  Skip d-d repulsion considerations 
 
  Irreducible     Total no   No of occupied orbitals 
  representation  orbitals   Shell_1  Shell_2    ...
  No Symm          722        168
  ------------------------
  Orbital occupation/shell    1.000
 
  end of program hfig
   
 Time(hfig)  user:       1.473  user+sys:       1.473  wallclock:       1.665
  
  start of program probe
  
  end of program probe
   
 Time(probe)  user:       0.798  user+sys:       0.798  wallclock:       0.728
  
  start of program grid
  
   grid     grid set  grid #  grid sym
  ------    --------  ------  --------
  coarse        0        0        1
  medium        2        1        1
  fine          0        0        1
  ultrafine     4        2        1
  charge       -1        3        1
  gradient      4        2        1
  density       0        0        1
  DFT-fine    -11        4        1
  DFT-med.    -10        5        1
  DFT-grad    -12        6        1
  DFT-der2     -8        7        1
  DFT-cphf     -9        8        1
  LMP2-enrg     4        2        1
  LMP2-grad     2        1        1
  DFT-cphf2   -15        9        1
  PBF-dens      0        0        1
  plotting      0        0        1
  Rel-grad    -17        0        1
  
  number of gridpoints: 
     atom           P1         Pd2         Br3         C73         C74         C75         C76
  grid # 1         611         354         502          80          94          95         100
  grid # 2         426         327         496         334         320         315         396
  grid # 3           7         278         374          42          30          23          16
  grid # 4        8714        8714        8714        8714        8714        8714        8714
  grid # 5        1192        1192        1192        1192        1192        1192        1192
  grid # 6        9132        9132        9132        5922        5922        5922        5922
  grid # 7       23034       32968       11582       13950       13950       13950       13950
  grid # 8         722        1150         694         748         748         748         748
  grid # 9         366        2198         358         394         394         394         394
   
  number of gridpoints: 
     atom          C77         C78         F79         H80         H82         H83         H14
  grid # 1          95          94         585         112         114         114         110
  grid # 2         322         323         566         459         455         463         442
  grid # 3          21          35         355         327         245         392         197
  grid # 4        8714        8714        8714        8714        8714        8714        8714
  grid # 5        1192        1192        1192        1192        1192        1192        1192
  grid # 6        5922        5922        5922        5922        5922        5922        5922
  grid # 7       13950       13950       23190       15206       15206       15206       15206
  grid # 8         748         748         770         786         786         786         786
  grid # 9         394         394         420         420         420         420         420
   
  number of gridpoints: 
     atom           C3          C4          C5          C6          C7          C8          C9
  grid # 1          79          80          91          92          92          92          92
  grid # 2         334         331         383         276         280         278         283
  grid # 3           6           6           9           6           6           6           6
  grid # 4        8714        8714        8714        8714        8714        8714        8714
  grid # 5        1192        1192        1192        1192        1192        1192        1192
  grid # 6        5922        5922        5922        5922        5922        5922        5922
  grid # 7       13950       13950       13950       13950       13950       13950       13950
  grid # 8         748         748         748         748         748         748         748
  grid # 9         394         394         394         394         394         394         394
   
  number of gridpoints: 
     atom          C10         C11         C12         C13         C14         C15         C16
  grid # 1          92          90          92          92          92          92          91
  grid # 2         276         278         283         278         283         277         319
  grid # 3           6           6           6           6           6           6           9
  grid # 4        8714        8714        8714        8714        8714        8714        8714
  grid # 5        1192        1192        1192        1192        1192        1192        1192
  grid # 6        5922        5922        5922        5922        5922        5922        5922
  grid # 7       13950       13950       13950       13950       13950       13950       13950
  grid # 8         748         748         748         748         748         748         748
  grid # 9         394         394         394         394         394         394         394
   
  number of gridpoints: 
     atom          C17         C18         C19         C20         C21         C22         C23
  grid # 1          95          95          93          98          97          98          93
  grid # 2         322         322         321         353         360         363         329
  grid # 3          25          26           7           7           8          13          24
  grid # 4        8714        8714        8714        8714        8714        8714        8714
  grid # 5        1192        1192        1192        1192        1192        1192        1192
  grid # 6        5922        5922        5922        5922        5922        5922        5922
  grid # 7       13950       13950       13950       13950       13950       13950       13950
  grid # 8         748         748         748         748         748         748         748
  grid # 9         394         394         394         394         394         394         394
   
  number of gridpoints: 
     atom          C24         C25         C26         C27         C28         C29         C30
  grid # 1         100          93          98          89          81          91          80
  grid # 2         361         327         361         303         244         310         245
  grid # 3          12          16          10           6           6           6           6
  grid # 4        8714        8714        8714        8714        8714        8714        8714
  grid # 5        1192        1192        1192        1192        1192        1192        1192
  grid # 6        5922        5922        5922        5922        5922        5922        5922
  grid # 7       13950       13950       13950       13950       13950       13950       13950
  grid # 8         748         748         748         748         748         748         748
  grid # 9         394         394         394         394         394         394         394
   
  number of gridpoints: 
     atom          C31         C32         C33         C34         C35         H36         H37
  grid # 1          90          82          80          83          81          98         105
  grid # 2         305         244         246         242         247         425         429
  grid # 3           6           6           6           6           6          68         122
  grid # 4        8714        8714        8714        8714        8714        8714        8714
  grid # 5        1192        1192        1192        1192        1192        1192        1192
  grid # 6        5922        5922        5922        5922        5922        5922        5922
  grid # 7       13950       13950       13950       13950       13950       15206       15206
  grid # 8         748         748         748         748         748         786         786
  grid # 9         394         394         394         394         394         420         420
   
  number of gridpoints: 
     atom          H38         H39         H40         H41         H42         H43         H44
  grid # 1         104         109         112         110         112         109         111
  grid # 2         434         447         459         454         458         446         454
  grid # 3         126         219         326         264         332         213         295
  grid # 4        8714        8714        8714        8714        8714        8714        8714
  grid # 5        1192        1192        1192        1192        1192        1192        1192
  grid # 6        5922        5922        5922        5922        5922        5922        5922
  grid # 7       15206       15206       15206       15206       15206       15206       15206
  grid # 8         786         786         786         786         786         786         786
  grid # 9         420         420         420         420         420         420         420
   
  number of gridpoints: 
     atom          H45         H46         H47         H48         H49         H50         H51
  grid # 1          98          93         100         106         105         112         110
  grid # 2         416         387         421         436         429         458         452
  grid # 3          56          74          54         140         120         319         234
  grid # 4        8714        8714        8714        8714        8714        8714        8714
  grid # 5        1192        1192        1192        1192        1192        1192        1192
  grid # 6        5922        5922        5922        5922        5922        5922        5922
  grid # 7       15206       15206       15206       15206       15206       15206       15206
  grid # 8         786         786         786         786         786         786         786
  grid # 9         420         420         420         420         420         420         420
   
  number of gridpoints: 
     atom          H52         H53         H54         H55         H56         H57         H58
  grid # 1         112         110         112         109         102          93          95
  grid # 2         458         455         458         450         415         386         407
  grid # 3         332         256         327         235          99          88          51
  grid # 4        8714        8714        8714        8714        8714        8714        8714
  grid # 5        1192        1192        1192        1192        1192        1192        1192
  grid # 6        5922        5922        5922        5922        5922        5922        5922
  grid # 7       15206       15206       15206       15206       15206       15206       15206
  grid # 8         786         786         786         786         786         786         786
  grid # 9         420         420         420         420         420         420         420
   
  number of gridpoints: 
     atom          H59         H60         H61         H62         H63         H64         H65
  grid # 1         118         118         110         105         103         100         110
  grid # 2         466         466         442         419         431         427         455
  grid # 3         400         409         192          66         135          44         305
  grid # 4        8714        8714        8714        8714        8714        8714        8714
  grid # 5        1192        1192        1192        1192        1192        1192        1192
  grid # 6        5922        5922        5922        5922        5922        5922        5922
  grid # 7       15206       15206       15206       15206       15206       15206       15206
  grid # 8         786         786         786         786         786         786         786
  grid # 9         420         420         420         420         420         420         420
   
  number of gridpoints: 
     atom          H66         H67         H68         H69         H70         H71         H72
  grid # 1         105         108         106         104         108         107         110
  grid # 2         436         449         436         442         452         449         442
  grid # 3         170         282         152         223         306         186         219
  grid # 4        8714        8714        8714        8714        8714        8714        8714
  grid # 5        1192        1192        1192        1192        1192        1192        1192
  grid # 6        5922        5922        5922        5922        5922        5922        5922
  grid # 7       15206       15206       15206       15206       15206       15206       15206
  grid # 8         786         786         786         786         786         786         786
  grid # 9         420         420         420         420         420         420         420
   
  number of gridpoints: 
     atom          H73         H74         H75         H76         H77         H78         H79
  grid # 1         107         108         109         105         110         107         107
  grid # 2         441         448         444         444         454         447         447
  grid # 3         258         274         234         240         319         272         234
  grid # 4        8714        8714        8714        8714        8714        8714        8714
  grid # 5        1192        1192        1192        1192        1192        1192        1192
  grid # 6        5922        5922        5922        5922        5922        5922        5922
  grid # 7       15206       15206       15206       15206       15206       15206       15206
  grid # 8         786         786         786         786         786         786         786
  grid # 9         420         420         420         420         420         420         420
   
  number of gridpoints: 
     atom          H92         H81         H94         H95         H84       total
  grid # 1         110         107         106         111         110       11272
  grid # 2         455         449         447         460         456       37246
  grid # 3         326         188         243         345         324       13330
  grid # 4        8714        8714        8714        8714        8714      836544
  grid # 5        1192        1192        1192        1192        1192      114432
  grid # 6        5922        5922        5922        5922        5922      578142
  grid # 7       15206       15206       15206       15206       15206     1440742
  grid # 8         786         786         786         786         786       74166
  grid # 9         420         420         420         420         420       40968
   
  end of program grid
   
 Time(grid)  user:     641.130  user+sys:     641.130  wallclock:     324.830
  
  start of program rwr
  
  end of program rwr
   
 Time(rwr)  user:      24.226  user+sys:      24.226  wallclock:      32.997
  
  start of program scf
  
 number of electrons..........        336
 number of alpha electrons....        168
 number of beta electrons.....        168
 number of orbitals, total....        722
 number of doubly-occ'd orbs..        168
 number of open shell orbs....          0
 number of occupied orbitals..        168
 number of virtual orbitals...        554
 number of hamiltonians.......          1
 number of shells.............          1
 SCF type: DFT=Becke_3_Parameter/HF+Slater+Becke88+PW91+PW-GGAIIC (B3PW91-D3)
 Energy computed using pseudospectral method.
 Convergence Criterion:
    Energy (econv):       1.00E-05
    RMS density (dconv):  5.00E-06
  
       i  u  d  i  g                   
       t  p  i  c  r                                 RMS    maximum
       e  d  i  u  i                       energy  density   DIIS  
       r  t  s  t  d       total energy    change  change    error 
  
etot    1  N  N  5  M   -2093.44366982876           1.9E-03  3.1E-01
etot    2  Y  Y  6  M   -2097.06311260488  3.6E+00  2.8E-03  1.8E-01
etot    3  Y  Y  6  M   -2098.19533860262  1.1E+00  1.2E-03  7.1E-02
etot    4  N  Y  2  U   -2098.50027587950  3.0E-01  7.5E-04  3.7E-02
etot    5  Y  Y  6  M   -2098.60846118264  1.1E-01  4.7E-04  2.3E-02
etot    6  N  Y  2  U   -2098.62098414159  1.3E-02  5.1E-04  1.2E-02
etot    7  Y  Y  6  M   -2098.62065897805 -3.3E-04  1.2E-04  4.6E-03
etot    8  Y  Y  6  M   -2098.62606385250  5.4E-03  4.2E-05  1.6E-03
etot    9  N  Y  2  U   -2098.62706739454  1.0E-03  1.3E-05  2.2E-04
etot   10  N  Y  2  U   -2098.62707525233  7.9E-06  4.9E-06  5.7E-05
etot   11  N  N  2  U   -2098.62707705354  1.8E-06  0.0E+00  0.0E+00
 
  Computing the dispersion energy correction and its gradients...
  
  
 Energy components, in hartrees:
   (A)  Nuclear repulsion............    6187.18329499139
   (E)  Total one-electron terms.....  -15235.97344179082
   (F)    Electron-nuclear...........  -17232.60017307696
   (H)    Kinetic....................    1996.62673128614
   (I)  Total two-electron terms.....    6950.16306974590
   (J)    Coulomb....................    7230.14223153760
   (K)    Exchange+Correlation.......    -279.97916179170
   (L)  Electronic energy............   -8285.81037204493  (E+I)
   (N0) D3 correction................      -0.16931820058
   (N)  Total energy.................   -2098.79639525412  (A+L+N0)
   (O)  Gas phase energy.............   -2098.79639525412
  
 SCFE: SCF energy: DFT(b3pw91-d3)     -2098.79639525412 hartrees   iterations:  11
  
 
 HOMO energy:    -0.21244
 LUMO energy:    -0.07854
 
  Orbital energies (hartrees): 
   -77.10080   -24.68386   -10.25236   -10.21999   -10.21510   -10.20637
   -10.20168   -10.20069   -10.19805   -10.19796   -10.19653   -10.19331
   -10.18862   -10.18577   -10.18505   -10.18405   -10.18134   -10.18118
   -10.18090   -10.17989   -10.17971   -10.17963   -10.17939   -10.17885
   -10.17881   -10.17720   -10.17717   -10.17529   -10.17487   -10.17354
   -10.17255   -10.17143   -10.17099   -10.16195   -10.16179   -10.16174
   -10.16100   -10.15977   -10.15524   -10.15438   -10.14144    -6.60095
    -4.75892    -4.75825    -4.75618    -3.35102    -2.08679    -2.07998
    -2.04910    -1.21476    -0.89113    -0.86622    -0.86378    -0.85525
    -0.84669    -0.81649    -0.81328    -0.78931    -0.78809    -0.76772
    -0.76517    -0.76058    -0.75571    -0.75476    -0.74927    -0.74524
    -0.72035    -0.71813    -0.68136    -0.67805    -0.67500    -0.66984
    -0.66176    -0.64284    -0.63096    -0.62787    -0.62498    -0.61956
    -0.61680    -0.61367    -0.60412    -0.60129    -0.59426    -0.57579
    -0.56803    -0.56690    -0.54645    -0.54223    -0.53743    -0.52646
    -0.49620    -0.49278    -0.49034    -0.48592    -0.48321    -0.47603
    -0.47341    -0.47221    -0.46161    -0.45550    -0.45472    -0.45396
    -0.45003    -0.44822    -0.44659    -0.44429    -0.44177    -0.43997
    -0.43272    -0.43081    -0.42942    -0.42348    -0.41968    -0.41900
    -0.41014    -0.40568    -0.40166    -0.40074    -0.39623    -0.39520
    -0.39463    -0.39223    -0.38927    -0.38532    -0.38089    -0.37984
    -0.37804    -0.37698    -0.37406    -0.37093    -0.36390    -0.36153
    -0.36030    -0.35777    -0.35494    -0.35256    -0.35148    -0.34762
    -0.34565    -0.34366    -0.34037    -0.33830    -0.33561    -0.33513
    -0.33237    -0.32933    -0.32711    -0.32441    -0.32163    -0.31800
    -0.31256    -0.31065    -0.30878    -0.30541    -0.30306    -0.29337
    -0.28166    -0.27499    -0.27330    -0.26858    -0.25726    -0.25354
    -0.23515    -0.23413    -0.22999    -0.22320    -0.21646    -0.21244
    -0.07854    -0.05297    -0.03497    -0.01641    -0.00135    -0.00047
     0.00140     0.01331     0.02809     0.03925
 
  end of program scf
   
 Time(scf)  user:     585.603  user+sys:     585.603  wallclock:     311.656
  
  start of program der1a
  
  end of program der1a
   
 Time(der1a)  user:      37.292  user+sys:      37.292  wallclock:      19.775
  
  start of program rwr
  
  end of program rwr
   
 Time(rwr)  user:      28.912  user+sys:      28.912  wallclock:      35.540
  
  start of program der1b
  
   
  forces (hartrees/bohr) : total     
   
 atom  label           x              y              z
 ---- --------   -------------  -------------  -------------
    1 P1          3.591758E-03   2.549620E-04   1.326665E-02
    2 Pd2         1.243685E-03   1.774263E-02   1.858468E-02
    3 Br3        -9.209668E-05  -2.444905E-03  -1.133379E-02
    4 C73         3.381531E-03  -4.706594E-03  -4.719455E-04
    5 C74         1.250683E-03  -2.105049E-03   4.626011E-03
    6 C75        -6.504365E-03   2.254805E-03   1.142748E-02
    7 C76         3.876457E-03  -5.786319E-03  -4.419422E-03
    8 C77        -2.518957E-03   1.137431E-03   6.297614E-05
    9 C78        -6.662701E-04   8.367160E-04   2.940660E-04
   10 F79        -2.840311E-03   6.025777E-03   9.743927E-04
   11 H80        -5.596372E-04   5.675643E-04   7.353918E-04
   12 H82        -8.513377E-04  -5.173295E-04  -6.354581E-05
   13 H83         2.773200E-04   1.173327E-03   5.053571E-05
   14 H14         4.151729E-03   2.892971E-03  -1.319059E-03
   15 C3          1.426205E-02   8.367263E-03  -1.027345E-02
   16 C4         -7.374553E-03  -7.438378E-03  -1.863702E-02
   17 C5          1.549364E-04  -1.168229E-02  -6.723586E-03
   18 C6         -8.712223E-03   1.257577E-02  -6.555492E-03
   19 C7          4.068190E-03   2.415451E-03  -3.766340E-03
   20 C8          1.008057E-02   2.167292E-04  -4.033481E-03
   21 C9          5.071506E-03  -1.270967E-03   6.500312E-04
   22 C10         3.971559E-03  -1.457447E-02   8.054834E-03
   23 C11        -1.053762E-02   8.923452E-03   8.482892E-03
   24 C12        -6.150566E-03  -3.281734E-03   1.672333E-03
   25 C13        -5.438840E-03  -8.375016E-03  -2.979757E-03
   26 C14        -7.906883E-04  -5.180840E-03  -4.361481E-03
   27 C15         5.508573E-03  -7.431734E-03  -1.067397E-02
   28 C16        -3.582348E-03   3.589318E-04  -1.502601E-02
   29 C17        -2.060381E-04   2.411824E-04   2.669758E-04
   30 C18         5.342973E-04  -1.885767E-03   2.906696E-04
   31 C19        -8.721310E-03   1.109100E-02  -1.557486E-02
   32 C20        -2.880665E-03  -1.421888E-02  -4.811209E-02
   33 C21         1.857490E-03   4.683877E-03   5.768626E-02
   34 C22        -4.944343E-04  -4.329488E-03   1.341854E-02
   35 C23         5.897545E-05   3.623771E-03   3.187383E-03
   36 C24         7.317943E-04  -3.387464E-03  -1.218754E-02
   37 C25        -1.340235E-03   2.616148E-03   2.750663E-03
   38 C26         6.247125E-03   1.004920E-02   1.588011E-02
   39 C27         8.337448E-03  -1.897283E-03  -1.202824E-02
   40 C28        -3.032811E-03   5.843888E-03  -1.247014E-02
   41 C29        -6.840797E-03  -1.390293E-02  -6.974327E-03
   42 C30        -9.594687E-04  -9.317951E-03   9.889757E-03
   43 C31         3.821051E-03   2.004939E-03   5.417100E-03
   44 C32         4.227538E-03  -1.077041E-03   8.693874E-03
   45 C33        -5.226895E-03   8.003859E-03  -5.932038E-03
   46 C34         1.353168E-03  -9.061383E-03   9.138965E-03
   47 C35        -4.086177E-03   1.020933E-02   2.298558E-04
   48 H36        -1.042360E-02  -3.908339E-03   2.979408E-03
   49 H37         3.043618E-03   6.320049E-03   6.700685E-03
   50 H38         1.938914E-03  -1.153872E-02  -2.640695E-03
   51 H39        -4.989735E-03  -5.469421E-03  -6.498087E-03
   52 H40        -1.886779E-03  -4.295666E-03   1.111146E-02
   53 H41         4.359623E-03   5.237880E-03   7.210934E-03
   54 H42        -1.122715E-02  -2.067359E-03   1.529612E-03
   55 H43        -4.587544E-03  -4.529631E-03  -6.606786E-03
   56 H44        -6.018701E-03   1.006149E-02   3.639101E-03
   57 H45        -5.256485E-03   6.069275E-03  -1.869533E-02
   58 H46         2.612265E-02   1.415185E-02   1.215494E-02
   59 H47         7.466054E-04   1.315293E-02  -4.573671E-03
   60 H48         4.866051E-03  -1.363678E-03  -6.184843E-03
   61 H49         2.433741E-03  -8.209099E-03   8.091442E-03
   62 H50         1.190736E-02  -8.205680E-04   1.673714E-03
   63 H51        -2.422909E-03   6.066209E-03  -7.424265E-03
   64 H52         4.246635E-03   1.068085E-02   2.351452E-04
   65 H53         2.983159E-03  -5.859687E-03   7.412808E-03
   66 H54        -1.256417E-03   4.343244E-03   1.097859E-02
   67 H55        -2.569141E-03   6.786333E-03  -6.766103E-03
   68 H56         2.331494E-03  -9.428654E-03   6.011855E-03
   69 H57        -3.312357E-02  -1.728865E-03  -1.720495E-03
   70 H58        -1.649566E-03   1.255878E-02   9.127394E-03
   71 H59         2.908299E-03   1.177051E-03   1.072334E-02
   72 H60         5.668944E-03  -4.928657E-03   8.493974E-03
   73 H61         4.597030E-03  -8.117968E-03   8.182183E-03
   74 H62         4.093896E-03  -2.604672E-03  -7.756582E-03
   75 H63        -4.026071E-03  -5.006228E-03  -7.406619E-03
   76 H64        -5.525427E-04  -2.924568E-03  -5.098443E-03
   77 H65         2.586194E-03  -1.005396E-02  -2.656138E-03
   78 H66         8.557560E-03   2.659020E-03   7.918714E-03
   79 H67        -7.657037E-03  -8.013145E-04   7.306069E-03
   80 H68         4.892666E-03   1.395215E-02   1.677444E-03
   81 H69         3.422682E-03  -3.032222E-03  -9.465862E-03
   82 H70         9.199576E-03   6.350679E-03   4.572706E-04
   83 H71        -5.033529E-03   9.037114E-03  -6.409054E-04
   84 H72        -9.236834E-03  -4.542704E-03  -4.841550E-03
   85 H73        -1.133614E-03  -1.050726E-02  -2.176447E-03
   86 H74        -1.162361E-02   7.918230E-05   3.853671E-03
   87 H75        -2.422966E-03   7.211815E-03  -7.683029E-03
   88 H76         3.482862E-03  -5.905986E-03  -8.357255E-03
   89 H77         1.001512E-02   2.780587E-03   4.029504E-03
   90 H78        -1.480094E-03  -8.171974E-03   5.484780E-03
   91 H79         9.970221E-03   3.702762E-03  -3.335438E-05
   92 H92        -1.538824E-03  -2.368808E-03  -1.008767E-02
   93 H81        -8.557560E-03   8.832177E-03  -1.311543E-04
   94 H94         1.030451E-02   1.694154E-03   6.844654E-04
   95 H95        -3.393823E-03  -7.658316E-03   7.448264E-03
   96 H84        -7.989697E-04  -5.709904E-03  -9.394787E-03
 -------------   -------------  -------------  -------------
     total       -5.368728E-04   1.588528E-03   9.153894E-05
   
  end of program der1b
   
 Time(der1b)  user:     226.975  user+sys:     226.975  wallclock:     118.150
  
  start of program geopt
  
 ----------------------------------------------------------------------------
  Geometry optimization step  1
  Total energy:     -2098.79639525412 hartrees
 ----------------------------------------------------------------------------
  
  
  Level shifts adjusted to satisfy step-size constraints
   Step size:    0.3000054
   Cos(theta):   0.9597286
   Final level shift:  -5.5508917E-01
  
  gradient maximum:        1.0678E-01 .  (  2.2500E-03 )
  gradient rms:            1.8145E-02 .  (  1.5000E-03 )
  displacement maximum:    5.6687E-02 .  (  9.0000E-03 )
  displacement rms:        8.8455E-03 .  (  6.0000E-03 )
  
  predicted energy change:  -4.3806E-02
  step size:     0.15946
  trust radius:  0.30000
  
  molecular structure not yet converged...
  
  center of mass moved by:
     x:    -1.4479E-01     y:     1.6281E-01     z:    -4.9632E-02
  
  new geometry: 
                                   angstroms
  atom               x                 y                 z
  P1            0.0080316145     -0.0193984688     -0.0930252491 
  Pd2          -0.1298059569      0.1349784995      2.1778334821 
  Br3          -0.3943863735      0.6262259213      4.6666454247 
  C73           2.2519368559     -3.9480373219      2.5819273577 
  C74           2.9698132524     -2.7881029761      2.3338430656 
  C75           2.2856159126     -1.5726946087      2.2672946831 
  C76           0.8984819840     -1.5233734160      2.4451914071 
  C77           0.2082850187     -2.7055993762      2.7381843405 
  C78           0.8823106161     -3.9272202081      2.8013901437 
  F79           2.9051336634     -5.1326782943      2.6122048009 
  H80           4.0426558733     -2.8452029687      2.1701955399 
  H82          -0.8613750075     -2.6786510192      2.9227576217 
  H83           0.3591797882     -4.8547214518      3.0197945954 
  H14           2.8302005137     -0.6578596052      2.0773204257 
  C3            1.7788620925      0.0343413201     -0.7866127018 
  C4           -0.8049629478     -1.6679605569     -0.5062673729 
  C5           -0.9782528798      1.3456208813     -0.9265833452 
  C6            1.9194773872      0.7294447040     -2.1585522271 
  C7            3.3900498523      0.9594843016     -2.5376908198 
  C8            4.1536505178     -0.3679497602     -2.5806394237 
  C9            4.0206099125     -1.0994755387     -1.2411575382 
  C10           2.5468644721     -1.3027229145     -0.8610302591 
  C11          -2.3390975424     -1.4960940298     -0.5119527713 
  C12          -3.0751022688     -2.8346350335     -0.6696091515 
  C13          -2.6560189651     -3.5475981367     -1.9591447271 
  C14          -1.1339488827     -3.7167624931     -1.9912219771 
  C15          -0.4283023017     -2.3632224453     -1.8339917441 
  C16          -1.2442536312      1.0516604174     -2.2787899784 
  C17          -2.0284269455      1.8625913449     -3.1024559461 
  C18          -2.5787287629      3.0190628649     -2.5495106776 
  C19          -2.3235672764      3.3088943125     -1.2058772209 
  C20          -1.5397995754      2.5127829101     -0.3422026517 
  C21          -1.3951999390      3.0253066314      0.9995628055 
  C22          -2.5437251913      3.1221774280      1.8433139502 
  C23          -2.4073244040      3.6199128562      3.1485512035 
  C24          -1.1895157024      4.0384108757      3.6856737560 
  C25          -0.0764221305      3.9419054482      2.8477230861 
  C26          -0.1468199572      3.4581912179      1.5297791616 
  C27           1.1029737482      3.5733208819      0.6729786708 
  C28           0.9053988086      4.6518366897     -0.4074347521 
  C29          -3.9440054798      2.6172863816      1.4916702424 
  C30          -4.4356737170      1.5294794552      2.4737709175 
  C31          -1.0733182640      4.5572220983      5.1032847162 
  C32           2.4334503311      3.8462143631      1.4009654881 
  C33          -4.9771666717      3.7579739156      1.4371033365 
  C34          -1.3995334846      3.4445766906      6.1113763452 
  C35          -1.9590706163      5.7930652805      5.3248598188 
  H36           2.3508057812      0.6905992057     -0.0981355192 
  H37           1.4507034090      0.1062288980     -2.9492726164 
  H38           1.4029198596      1.7133444789     -2.1475665317 
  H39           3.8671026550      1.6392035720     -1.7964153076 
  H40           3.4509162149      1.4655382893     -3.5270225340 
  H41           3.7427044593     -1.0078067111     -3.3932347818 
  H42           5.2258043760     -0.1867110995     -2.8179280733 
  H43           4.5322318931     -0.5119676259     -0.4457186986 
  H44           4.5341443566     -2.0853016016     -1.2947873355 
  H45           2.5109338159     -1.8352665931      0.1085073604 
  H46           2.0825875453     -1.9646251457     -1.6180947912 
  H47          -0.5593053194     -2.3609472815      0.3257750753 
  H48          -2.6868033151     -1.0213273249      0.4286989631 
  H49          -2.6343475857     -0.8099216833     -1.3350941297 
  H50          -4.1748064216     -2.6643446084     -0.6720460120 
  H51          -2.8479053759     -3.4871219529      0.2028246326 
  H52          -3.1601063113     -4.5370058526     -2.0327588782 
  H53          -2.9821942464     -2.9473419753     -2.8379077601 
  H54          -0.8266515537     -4.1920396458     -2.9496125143 
  H55          -0.8150798531     -4.4005199748     -1.1730833415 
  H56          -0.7139932240     -1.7295916940     -2.6976913831 
  H57           0.6625449756     -2.5260483925     -1.9122570311 
  H58          -0.8454129622      0.1424440723     -2.7416878817 
  H59          -2.2099279176      1.5978256280     -4.1543114709 
  H60          -3.1935082807      3.6939874093     -3.1628284572 
  H61          -2.7411409002      4.2596936245     -0.8559320575 
  H62          -3.2861930867      3.6776428693      3.8013449156 
  H63           0.8704444586      4.3016359052      3.2636980223 
  H64           1.2451372127      2.6082243759      0.1731870138 
  H65           0.7465277176      5.6469496382      0.0592964780 
  H66           0.0304355275      4.4456543988     -1.0572011849 
  H67           1.7924703271      4.7238751477     -1.0725237744 
  H68          -3.9442590346      2.0840628746      0.5184117841 
  H69          -4.5953510758      1.9086261835      3.5038910941 
  H70          -5.4080857274      1.1065706754      2.1404150300 
  H71          -3.7167151817      0.6865456793      2.5372710961 
  H72          -0.0202545820      4.8708564979      5.2851297736 
  H73           2.4794171131      4.8756108890      1.8151783016 
  H74           3.2889152760      3.7529654335      0.6981686934 
  H75           2.6088366672      3.1234086510      2.2252076244 
  H76          -5.1579515910      4.1981333807      2.4398749402 
  H77          -5.9546367748      3.3895500274      1.0594233981 
  H78          -4.6557821952      4.5886143018      0.7755026556 
  H79          -2.4518909753      3.1027049501      6.0202207517 
  H92          -1.2516812942      3.7959319456      7.1550264028 
  H81          -0.7432063462      2.5624531189      5.9531081265 
  H94          -3.0382378652      5.5547898887      5.2207170942 
  H95          -1.7149367997      6.5916788645      4.5922406947 
  H84          -1.8098650249      6.2114938769      6.3430755879 
   
 
  bond lengths (angstroms):
 
 P1      -Pd2     :   2.280270      P1      -C3      :   1.902575
 P1      -C4      :   1.884008      P1      -C5      :   1.879057
 Pd2     -Br3     :   2.550590      Pd2     -C76     :   1.969515
 C73     -C74     :   1.386485      C73     -C78     :   1.387254
 C73     -F79     :   1.353129      C74     -C75     :   1.396342
 C74     -H80     :   1.086753      C75     -C76     :   1.399364
 C75     -H14     :   1.081474      C76     -C77     :   1.399955
 C77     -C78     :   1.396661      C77     -H82     :   1.085802
 C78     -H83     :   1.087026      C3      -C6      :   1.544396
 C3      -C10     :   1.543731      C3      -H36     :   1.109863
 C4      -C11     :   1.543742      C4      -C15     :   1.545352
 C4      -H47     :   1.110348      C5      -C16     :   1.409125
 C5      -C20     :   1.420951      C6      -C7      :   1.535984
 C6      -H37     :   1.110579      C6      -H38     :   1.111311
 C7      -C8      :   1.531996      C7      -H39     :   1.113143
 C7      -H40     :   1.112912      C8      -C9      :   1.532006
 C8      -H41     :   1.112926      C8      -H42     :   1.112954
 C9      -C10     :   1.535491      C9      -H43     :   1.113394
 C9      -H44     :   1.112855      C10     -H45     :   1.106751
 C10     -H46     :   1.107617      C11     -C12     :   1.535660
 C11     -H48     :   1.109562      C11     -H49     :   1.111561
 C12     -C13     :   1.531943      C12     -H50     :   1.112814
 C12     -H51     :   1.112878      C13     -C14     :   1.531778
 C13     -H52     :   1.112857      C13     -H53     :   1.113069
[...]
    H36      Y    -0.00094   0.00061  -0.00027   0.00085   0.00035  -0.00066
    H36      Z     0.00040  -0.00011  -0.00047   0.00004   0.00001  -0.00131
    H37      X    -0.00022   0.00012  -0.00225   0.00019   0.00001  -0.01117
    H37      Y    -0.00019   0.00011  -0.00225   0.00018  -0.00000  -0.01056
    H37      Z    -0.00062   0.00037  -0.00345   0.00049   0.00007  -0.01595
    H38      X    -0.00004   0.00004   0.00041   0.00011   0.00005   0.00126
    H38      Y     0.00018  -0.00017  -0.00008  -0.00034  -0.00015   0.00066
    H38      Z    -0.00000   0.00001   0.00020   0.00001  -0.00000   0.00126
    H39      X    -0.00016   0.00011  -0.00036   0.00019   0.00005  -0.00137
    H39      Y    -0.00024   0.00014  -0.00030   0.00027   0.00008  -0.00114
    H39      Z    -0.00024   0.00015  -0.00043   0.00025   0.00007  -0.00158
    H40      X     0.00010  -0.00003  -0.00008  -0.00005   0.00002   0.00032
    H40      Y     0.00014  -0.00008  -0.00017  -0.00023  -0.00005   0.00026
    H40      Z    -0.00036   0.00018   0.00036   0.00043   0.00008  -0.00052
    H41      X    -0.00009   0.00005   0.00003   0.00030   0.00007  -0.00002
    H41      Y    -0.00011   0.00006  -0.00001   0.00032   0.00007  -0.00018
    H41      Z    -0.00017   0.00011   0.00000   0.00081   0.00025  -0.00019
    H42      X     0.00019  -0.00000  -0.00039   0.00003   0.00014  -0.00027
    H42      Y     0.00000  -0.00001   0.00002   0.00001   0.00002   0.00010
    H42      Z    -0.00003   0.00000   0.00004  -0.00004  -0.00005  -0.00001
    H43      X    -0.00047   0.00027  -0.00004   0.00214   0.00102  -0.00008
    H43      Y     0.00013  -0.00004  -0.00005   0.00204   0.00095  -0.00005
    H43      Z    -0.00047   0.00025  -0.00006   0.00308   0.00150  -0.00012
    H44      X     0.00067  -0.00016  -0.00011  -0.00013   0.00010   0.00005
    H44      Y    -0.00210   0.00064   0.00024   0.00041  -0.00016   0.00013
    H44      Z    -0.00034   0.00014   0.00002  -0.00001  -0.00000  -0.00004
    H45      X     0.00073   0.00008   0.00004  -0.00078  -0.00191   0.00000
    H45      Y     0.00150   0.00012   0.00010  -0.00187  -0.00413   0.00027
    H45      Z    -0.00291  -0.00028  -0.00015   0.00380   0.00822  -0.00029
    H46      X    -0.00077   0.00026   0.00001   0.00114   0.00061  -0.00016
    H46      Y    -0.00098   0.00040  -0.00003   0.00117   0.00066  -0.00034
    H46      Z    -0.00125   0.00054   0.00001   0.00161   0.00052  -0.00028
    H47      X    -0.00002  -0.00103  -0.00026  -0.00060   0.00129  -0.00187
    H47      Y    -0.00022   0.00077   0.00052   0.00038  -0.00089   0.00175
    H47      Z     0.00054   0.00080  -0.00028   0.00028  -0.00020  -0.00161
    H48      X    -0.00031  -0.00068  -0.00004  -0.00028   0.00060  -0.00012
    H48      Y    -0.00000  -0.00016  -0.00007   0.00015  -0.00047  -0.00015
    H48      Z    -0.00209  -0.00467  -0.00032  -0.00150   0.00246  -0.00107
    H49      X    -0.00013  -0.00050  -0.00016  -0.00021   0.00026  -0.00073
    H49      Y     0.00014   0.00048   0.00010   0.00024  -0.00030   0.00080
    H49      Z     0.00003  -0.00012  -0.00002  -0.00003  -0.00008  -0.00028
    H50      X    -0.00033  -0.00077   0.00040  -0.00053   0.00087   0.00004
    H50      Y    -0.00001   0.00003   0.00003   0.00005  -0.00007  -0.00002
    H50      Z     0.00013   0.00030  -0.00019   0.00021  -0.00033  -0.00006
    H51      X     0.00008  -0.00037   0.00001  -0.00054   0.00072  -0.00017
    H51      Y    -0.00000   0.00072  -0.00001   0.00079  -0.00109   0.00021
    H51      Z    -0.00004  -0.00057   0.00002  -0.00063   0.00094  -0.00019
    H52      X    -0.00008  -0.00006   0.00015   0.00003  -0.00010   0.00015
    H52      Y    -0.00019  -0.00015   0.00037   0.00004  -0.00021   0.00045
    H52      Z    -0.00001   0.00000   0.00000   0.00002  -0.00005  -0.00006
    H53      X     0.00000  -0.00013   0.00003  -0.00023   0.00034  -0.00063
    H53      Y     0.00001   0.00012  -0.00008   0.00020  -0.00028   0.00036
    H53      Z    -0.00001  -0.00016   0.00005  -0.00021   0.00029  -0.00033
    H54      X    -0.00003  -0.00006   0.00004  -0.00005   0.00005  -0.00004
    H54      Y    -0.00006  -0.00009   0.00008  -0.00007   0.00002  -0.00019
    H54      Z    -0.00019  -0.00037   0.00033  -0.00037   0.00036  -0.00023
    H55      X     0.00008  -0.00001  -0.00031  -0.00025   0.00052  -0.00147
    H55      Y    -0.00009  -0.00001   0.00049   0.00025  -0.00053   0.00225
    H55      Z     0.00007   0.00005  -0.00025  -0.00010   0.00025  -0.00109
    H56      X     0.00000  -0.00006  -0.00375  -0.00006   0.00021  -0.01719
    H56      Y    -0.00002  -0.00002   0.00398   0.00005  -0.00018   0.02001
    H56      Z    -0.00006  -0.00025  -0.00284  -0.00014   0.00029  -0.01394
    H57      X     0.00026   0.00073  -0.00153   0.00050  -0.00023  -0.00993
    H57      Y     0.00003   0.00004  -0.00003   0.00003  -0.00000   0.00040
    H57      Z    -0.00014  -0.00044   0.00087  -0.00031   0.00013   0.00531
    H58      X     0.00020  -0.00006   0.04702  -0.00021  -0.00058   0.31515
    H58      Y    -0.00043   0.00006  -0.10725   0.00039   0.00136  -0.71236
    H58      Z    -0.00030   0.00007  -0.07902   0.00029   0.00094  -0.50636
    H59      X     0.00043  -0.00001   0.05511  -0.00001  -0.00006  -0.02943
    H59      Y     0.00010   0.00000   0.01421  -0.00000  -0.00001  -0.00258
    H59      Z     0.00313  -0.00003   0.40627  -0.00002  -0.00042  -0.19955
    H60      X     0.00105   0.00016   0.33576  -0.00001  -0.00038  -0.02276
    H60      Y    -0.00172  -0.00027  -0.54731   0.00001   0.00062   0.03747
    H60      Z     0.00098   0.00016   0.31901  -0.00001  -0.00036  -0.02007
    H61      X    -0.00090   0.00013   0.13708   0.00018   0.00025  -0.00789
    H61      Y     0.00225  -0.00033  -0.34881  -0.00045  -0.00059   0.02016
    H61      Z     0.00153  -0.00024  -0.24674  -0.00031  -0.00036   0.01445
    H62      X     0.00712   0.00144   0.00271  -0.00044  -0.00207  -0.00064
    H62      Y     0.00080   0.00016   0.00022  -0.00005  -0.00022  -0.00004
    H62      Z    -0.00508  -0.00103  -0.00198   0.00031   0.00148   0.00050
    H63      X    -0.00073   0.00012  -0.00182   0.00045   0.00099   0.00063
    H63      Y    -0.00049   0.00008  -0.00123   0.00030   0.00064   0.00042
    H63      Z    -0.00028   0.00005  -0.00084   0.00018   0.00041   0.00032
    H64      X     0.00017  -0.00007   0.00003  -0.00010  -0.00005  -0.00010
    H64      Y     0.00083  -0.00026  -0.00041  -0.00042  -0.00034   0.00003
    H64      Z     0.00106  -0.00032  -0.00046  -0.00052  -0.00041   0.00006
    H65      X     0.00000   0.00000   0.00008  -0.00000  -0.00000  -0.00001
    H65      Y     0.00009  -0.00002   0.00046  -0.00002   0.00000   0.00002
    H65      Z     0.00005  -0.00001   0.00062  -0.00000   0.00003  -0.00000
    H66      X     0.00020  -0.00005   0.00239  -0.00010  -0.00014  -0.00017
    H66      Y    -0.00010   0.00003  -0.00076   0.00006   0.00006   0.00003
    H66      Z     0.00012  -0.00003   0.00171  -0.00006  -0.00008  -0.00011
    H67      X    -0.00023   0.00015   0.00053   0.00027   0.00031   0.00030
    H67      Y    -0.00003   0.00001  -0.00002   0.00004   0.00005   0.00007
    H67      Z     0.00014  -0.00010  -0.00028  -0.00019  -0.00022  -0.00022
    H68      X    -0.00001  -0.00002   0.00001  -0.00001   0.00003  -0.00002
    H68      Y     0.00009   0.00003  -0.00018  -0.00001  -0.00007   0.00019
    H68      Z     0.00017   0.00010  -0.00011   0.00002  -0.00013   0.00021
    H69      X     0.00012   0.00002   0.00014  -0.00002  -0.00007  -0.00001
    H69      Y    -0.00014  -0.00004  -0.00017   0.00001   0.00011   0.00000
    H69      Z    -0.00027  -0.00009  -0.00038   0.00002   0.00018   0.00006
    H70      X    -0.00009   0.00023   0.00020   0.00010  -0.00038  -0.00030
    H70      Y    -0.00005   0.00022   0.00023   0.00009  -0.00036  -0.00027
    H70      Z    -0.00008   0.00012   0.00012   0.00006  -0.00018  -0.00015
    H71      X     0.00027   0.00082   0.00071   0.00030  -0.00071  -0.00001
    H71      Y    -0.00012  -0.00057  -0.00053  -0.00022   0.00051   0.00005
    H71      Z     0.00008   0.00028   0.00031   0.00010  -0.00027  -0.00000
    H72      X    -0.00004   0.00006  -0.00016   0.00012   0.00015   0.00010
    H72      Y    -0.00004   0.00003  -0.00008   0.00006   0.00008   0.00005
    H72      Z    -0.00003   0.00001  -0.00005   0.00003   0.00005   0.00003
    H73      X     0.00052  -0.00022  -0.00010  -0.00020  -0.00011   0.00002
    H73      Y     0.00155  -0.00066  -0.00028  -0.00049  -0.00021   0.00001
    H73      Z     0.00247  -0.00106  -0.00039  -0.00099  -0.00051   0.00004
    H74      X     0.00203  -0.00078  -0.00021  -0.00051  -0.00018   0.00039
    H74      Y    -0.00028   0.00015   0.00003   0.00022   0.00011   0.00002
    H74      Z    -0.00168   0.00063   0.00016   0.00041   0.00017  -0.00028
    H75      X     0.00068  -0.00034  -0.00003  -0.00025  -0.00012  -0.00003
    H75      Y     0.01382  -0.00618  -0.00079  -0.00722  -0.00410   0.00003
    H75      Z    -0.00560   0.00251   0.00036   0.00290   0.00163  -0.00000
    H76      X     0.00003  -0.00001  -0.00061  -0.00001   0.00001   0.00000
    H76      Y    -0.00007   0.00002   0.00114   0.00002   0.00001   0.00001
    H76      Z    -0.00010   0.00003   0.00195   0.00004   0.00001  -0.00002
    H77      X     0.00008   0.00008  -0.00092   0.00000  -0.00032  -0.00019
    H77      Y     0.00003   0.00004  -0.00080  -0.00000  -0.00019  -0.00010
    H77      Z     0.00003   0.00003  -0.00031   0.00000  -0.00012  -0.00007
    H78      X     0.00004   0.00001  -0.00161   0.00001   0.00001   0.00011
    H78      Y     0.00013   0.00005  -0.00522   0.00003  -0.00003   0.00032
    H78      Z    -0.00015  -0.00006   0.00572  -0.00004   0.00005  -0.00036
    H79      X     0.00032   0.00013   0.00011   0.00008  -0.00007   0.00001
    H79      Y     0.00013   0.00005   0.00006   0.00003  -0.00003  -0.00000
    H79      Z     0.00003   0.00001   0.00003   0.00001  -0.00002  -0.00001
    H92      X    -0.00001  -0.00001   0.00001  -0.00001  -0.00000  -0.00001
    H92      Y     0.00016   0.00005  -0.00014   0.00005   0.00013   0.00013
    H92      Z     0.00017   0.00007  -0.00023   0.00009   0.00025   0.00020
    H81      X    -0.00007   0.00004   0.00009   0.00004   0.00002  -0.00003
    H81      Y     0.00003  -0.00006  -0.00009  -0.00006  -0.00003   0.00002
    H81      Z    -0.00006  -0.00001   0.00004   0.00000  -0.00000  -0.00003
    H94      X     0.00016   0.00009   0.00001   0.00005  -0.00002   0.00002
    H94      Y     0.00006   0.00003   0.00001   0.00001  -0.00002  -0.00000
    H94      Z     0.00003   0.00001   0.00001   0.00000  -0.00002  -0.00001
    H95      X     0.00004   0.00001   0.00001  -0.00000  -0.00001   0.00000
    H95      Y     0.00011   0.00001   0.00001  -0.00001  -0.00006  -0.00000
    H95      Z    -0.00013  -0.00002   0.00001   0.00000   0.00005  -0.00002
    H84      X     0.00001  -0.00000   0.00002  -0.00001  -0.00002  -0.00001
    H84      Y    -0.00004   0.00003  -0.00017   0.00008   0.00021   0.00013
    H84      Z    -0.00003   0.00004  -0.00024   0.00011   0.00029   0.00019
  
  Number of imaginary frequencies:   0
   
  Writing vibrational animation data to ox_add_Ar_trans_L1_PL146.vib
  Writing IR vibrational spectrum data to ox_add_Ar_trans_L1_PL146_vib.spm
  rotational symmetry number:  1

  rotational temperatures (K):      0.004024      0.002963      0.002574
   
  The Quasi-Harmonic approximation will be applied to compute
  vibrational constributions to thermodynamic properties.
  Frequencies will be adjusted to a minimum value of  100.00 cm^-1.

  vibrational temperatures:
       mode:      1        2        3        4        5        6
  temp. (K):   143.88   143.88   143.88   143.88   143.88   143.88
   
       mode:      7        8        9       10       11       12
  temp. (K):   143.88   143.88   143.88   143.88   143.88   143.88
   
       mode:     13       14       15       16       17       18
  temp. (K):   143.88   143.88   143.88   143.88   143.88   143.88
   
       mode:     19       20       21       22       23       24
  temp. (K):   157.97   158.43   172.19   191.88   204.73   212.59
   
       mode:     25       26       27       28       29       30
  temp. (K):   219.92   240.79   252.03   264.64   268.94   279.44
   
       mode:     31       32       33       34       35       36
  temp. (K):   284.98   308.56   326.14   332.49   348.72   355.03
   
       mode:     37       38       39       40       41       42
  temp. (K):   357.41   365.71   371.43   377.98   389.11   395.37
   
       mode:     43       44       45       46       47       48
  temp. (K):   406.03   408.94   414.41   418.06   432.15   454.84
   
       mode:     49       50       51       52       53       54
  temp. (K):   471.20   477.09   489.77   492.31   526.19   543.39
   
       mode:     55       56       57       58       59       60
  temp. (K):   556.44   563.58   591.55   605.60   619.31   632.61
   
       mode:     61       62       63       64       65       66
  temp. (K):   648.38   652.87   654.15   682.76   698.37   710.35
   
       mode:     67       68       69       70       71       72
  temp. (K):   733.63   748.97   752.22   761.45   782.44   786.58
   
       mode:     73       74       75       76       77       78
  temp. (K):   804.20   842.28   847.49   877.00   909.07   912.86
   
       mode:     79       80       81       82       83       84
  temp. (K):   943.67   959.26   982.53  1016.83  1052.37  1080.47
   
       mode:     85       86       87       88       89       90
  temp. (K):  1096.64  1112.18  1123.96  1144.76  1176.94  1182.52
   
       mode:     91       92       93       94       95       96
  temp. (K):  1186.24  1198.84  1203.48  1209.91  1210.26  1213.55
   
       mode:     97       98       99      100      101      102
  temp. (K):  1243.74  1261.55  1264.93  1307.48  1312.75  1313.21
   
       mode:    103      104      105      106      107      108
  temp. (K):  1317.33  1323.10  1324.37  1329.76  1333.37  1356.64
   
       mode:    109      110      111      112      113      114
  temp. (K):  1360.92  1363.74  1366.88  1369.08  1371.86  1382.96
   
       mode:    115      116      117      118      119      120
  temp. (K):  1389.62  1402.43  1415.42  1417.24  1417.45  1431.24
   
       mode:    121      122      123      124      125      126
  temp. (K):  1468.95  1472.39  1479.29  1481.55  1486.96  1519.03
   
       mode:    127      128      129      130      131      132
  temp. (K):  1525.35  1543.22  1550.75  1556.31  1560.08  1574.34
   
       mode:    133      134      135      136      137      138
  temp. (K):  1593.60  1596.03  1597.61  1599.78  1603.16  1604.69
   
       mode:    139      140      141      142      143      144
  temp. (K):  1622.80  1640.17  1642.63  1644.79  1653.06  1660.51
   
       mode:    145      146      147      148      149      150
  temp. (K):  1666.56  1675.29  1686.01  1720.69  1721.64  1741.14
   
       mode:    151      152      153      154      155      156
  temp. (K):  1741.98  1748.13  1757.72  1763.16  1807.28  1815.59
   
       mode:    157      158      159      160      161      162
  temp. (K):  1827.13  1843.71  1858.74  1867.33  1877.34  1879.54
   
       mode:    163      164      165      166      167      168
  temp. (K):  1885.89  1891.01  1894.60  1897.99  1901.55  1908.80
   
       mode:    169      170      171      172      173      174
  temp. (K):  1916.02  1919.65  1935.26  1938.95  1946.96  1950.85
   
       mode:    175      176      177      178      179      180
  temp. (K):  1952.57  1954.31  1969.14  1974.46  1974.77  1991.86
   
       mode:    181      182      183      184      185      186
  temp. (K):  1994.78  1996.02  2006.52  2009.14  2015.90  2018.50
   
       mode:    187      188      189      190      191      192
  temp. (K):  2019.28  2021.72  2033.57  2046.96  2050.72  2051.66
   
       mode:    193      194      195      196      197      198
  temp. (K):  2056.16  2075.12  2081.06  2081.86  2122.65  2136.36
   
       mode:    199      200      201      202      203      204
  temp. (K):  2154.88  2169.30  2169.49  2171.68  2172.43  2173.68
   
       mode:    205      206      207      208      209      210
  temp. (K):  2175.21  2176.71  2178.29  2181.08  2181.82  2184.24
   
       mode:    211      212      213      214      215      216
  temp. (K):  2184.51  2186.85  2190.10  2195.76  2198.39  2200.19
   
       mode:    217      218      219      220      221      222
  temp. (K):  2201.41  2201.91  2206.56  2208.25  2208.90  2212.80
   
       mode:    223      224      225      226      227      228
  temp. (K):  2213.98  2314.37  2342.86  2367.08  2377.55  2378.09
   
       mode:    229      230      231      232      233      234
  temp. (K):  2399.97  4358.04  4361.90  4362.88  4365.47  4369.49
   
       mode:    235      236      237      238      239      240
  temp. (K):  4369.93  4373.56  4375.86  4377.19  4380.26  4380.77
   
       mode:    241      242      243      244      245      246
  temp. (K):  4381.24  4382.59  4385.79  4386.13  4387.18  4391.14
   
       mode:    247      248      249      250      251      252
  temp. (K):  4402.48  4408.71  4430.85  4435.86  4440.18  4443.34
   
       mode:    253      254      255      256      257      258
  temp. (K):  4443.54  4445.49  4452.62  4453.80  4468.37  4471.23
   
       mode:    259      260      261      262      263      264
  temp. (K):  4474.69  4481.43  4487.22  4490.99  4491.08  4495.98
   
       mode:    265      266      267      268      269      270
  temp. (K):  4497.13  4498.79  4506.33  4509.34  4512.54  4512.67
   
       mode:    271      272      273      274      275      276
  temp. (K):  4527.25  4544.90  4586.80  4589.56  4604.44  4604.95
   
       mode:    277      278      279      280      281      282
  temp. (K):  4609.28  4612.47  4622.92  4633.39  4634.91  4662.79
   
   
  Thermodynamic properties calculated assuming an ideal gas

  In the table below, the units for temperature
  are kelvins, the units for U, H, and G are
  kcal/mol and the units for Cv and S are cal/(mol K)

  The zero point energy (ZPE):    528.459 kcal/mol
  is not included in U, H, or G in the table below
  
 
  =============================================================================
  Thermodynamic properties for P = 1.00E+00 atm, calculated at   1 temperatures


  T =   298.15 K, P = 1.00E+00 atm
   
                  U         Cv          S          H          G        ln(Q)
              =========  =========  =========  =========  =========  =========
  trans.          0.889      2.981     45.749      1.481    -12.159   20.52160
  rot.            0.889      2.981     38.290      0.889    -10.528   17.76840
  vib.           25.796    168.333    158.189     25.796    -21.368   36.06540
  elec.           0.000      0.000      0.000      0.000      0.000    0.00000
  ----------------------------------------------------------------------------
  total          27.573    174.295    242.228     28.166    -44.055   74.35540
   
   Total internal energy, Utot(SCFE + ZPE + U):   -2098.015058 hartrees
   Total enthalpy, Htot (Utot + nRT), with n=1:   -2098.014114 hartrees
    Total Gibbs free energy, Gtot (Htot - T*S):   -2098.129204 hartrees
   
  end of program freq
   
 Time(freq)  user:       0.417  user+sys:       0.417  wallclock:       0.683
  
  start of program post
  
  Writing input files for PBF
  end of program post
   
 Time(post)  user:       0.203  user+sys:       0.203  wallclock:       0.184

 Total cpu seconds     user:  140548.842   user+sys:  140548.842
  
 Total elapsed time:    80797 seconds

Job ox_add_Ar_trans_L1_PL146 completed on bp1-compute089 at Sun Apr 20 21:13:33 2025
