Job ox_add_L_trans_L1_PL146 started on bp1-compute056.data.bp.acrc.priv at Wed Mar 26 16:46:17 2025
jobid: bp1-compute056-0-67e42f44

  +--------------------------------------------------------------------+
  |  Jaguar version 12.5, release 138                                  |
  |                                                                    |
  |  Copyright Schrodinger, Inc.                                       |
  |  All Rights Reserved.                                              |
  |                                                                    |
  |  The following have contributed to Jaguar (listed alphabetically): |
  |  Ty Balduf, Mike Beachy, Chandler Bennett, Art Bochevarov,         |
  |  Dale Braden, Yixiang Cao, Alan Chien, Chris Cortis,               |
  |  Rich Friesner, Jim Furness, Bill Goddard, Hod Greeley,            |
  |  Tom Hughes, Leif Jacobson, Jean-Marc Langlois, Daniel Levine,     |
  |  Rob Murphy, Dean Philipp, Tom Pollard, Murco Ringnalda,           |
  |  Daniel Mainz, Pablo Videla, Mark Watson, Haoyu Yu.                |
  |                                                                    |
  |  Use of this program should be acknowledged in publications as:    |
  |                                                                    |
  |  Jaguar, version 12.5, Schrodinger, Inc., New York, NY, 2024.      |
  |                                                                    |
  |  A. D. Bochevarov, E. Harder, T. F. Hughes, J. R. Greenwood,       |
  |  D. A. Braden, D. M. Philipp, D. Rinaldo, M. D. Halls,             |
  |  J. Zhang, R. A. Friesner, "Jaguar: A High-Performance Quantum     |
  |  Chemistry Software Program with Strengths in Life and Materials   |
  |  Sciences", Int. J. Quantum Chem., 2013, 113(18), 2110-2142.       |
  +--------------------------------------------------------------------+
  
  start of program pre
  
  Job name: ox_add_L_trans_L1_PL146
  Executables used: /software/local/apps/schrodinger2024-3/jaguar-v12.5/bin/Linux-x86_64
  Temporary files : /tmp/ar21627/ox_add_L_trans_L1_PL146#bp1-compute056-0-67e42f44
  Basis file : using default basis file from /software/local/apps/schrodinger2024-3
  Maestro file (input):  ox_add_L_trans_L1_PL146.mae
  Maestro file (output): ox_add_L_trans_L1_PL146.01.mae
  
 Contents of input file: &gen and (if present) &atomic sections only
 ----------------Contents start----------------
&gen
dftname=b3pw91-d3
basis=6-31G*
numd=5
ip11=2
iaccg=3
isolv=2
igeopt=1
solvent=benzene
ifreq=1
&
&atomic
atom basis
Pd2 lacv3p*
Br3 lacv3p*
&
 -----------------Contents end-----------------
 
  PS calculation requested. Using PS version of 6-31g*
  basis set:               non_standard                    
  net molecular charge:    0
  multiplicity:            1
  
  Using up to   4 threads per process
  
  This run will use ECP on            2  atoms
  number of basis functions....          724
  
 Input geometry:
                                   angstroms
  atom               x                 y                 z
  P1            0.0000000000      0.0000000000      0.0000000000 
  Pd2           0.0000000000      0.0000000000      2.2562152928 
  Br3           2.2949389732      1.1392175998      2.3261133603 
  C73          -4.2477242616     -2.0984617363      2.0643448706 
  C74          -3.1069658632     -2.8811914064      1.9871001104 
  C75          -1.8579457374     -2.2614422767      2.0655625530 
  C76          -1.7623623957     -0.8774391009      2.2319228250 
  C77          -2.9314592384     -0.1143257769      2.3029692476 
  C78          -4.1831219327     -0.7230085820      2.2222149763 
  F79          -5.4596675192     -2.6937216428      1.9758937787 
  H80          -3.2012190213     -3.9560036497      1.8636164403 
  H81          -0.9586714572     -2.8610394202      1.9780796589 
  H82          -2.8720338051      0.9645540203      2.3988099038 
  H83          -5.1005712310     -0.1449664634      2.2707200520 
  C3            1.7314260000      0.0000000000     -0.7803510000 
  C4           -0.8389310000     -1.6125100000     -0.4671430000 
  C5           -0.9848230000      1.4026410000     -0.7940230000 
  C6            1.8547750000      0.7516540000     -2.1227420000 
  C7            3.3180330000      0.9088290000     -2.5641460000 
  C8            3.9857420000     -0.4642000000     -2.7094370000 
  C9            3.8697970000     -1.2539880000     -1.4001690000 
  C10           2.4046590000     -1.3782340000     -0.9523140000 
  C11          -2.3716681033     -1.4475229925     -0.4771456308 
  C12          -3.0909310189     -2.7828412021     -0.7137235878 
  C13          -2.6493617378     -3.4119483247     -2.0408897668 
  C14          -1.1238049399     -3.5671207775     -2.0774466318 
  C15          -0.4329270368     -2.2174586936     -1.8289102639 
  C16          -1.2326260000      1.0727740000     -2.1445640000 
  C17          -2.0074230000      1.8467040000     -3.0133740000 
  C18          -2.5762550000      3.0149250000     -2.5108640000 
  C19          -2.3457000000      3.3486970000     -1.1711310000 
  C20          -1.5716150000      2.5946540000     -0.2583740000 
  C21          -1.4845710000      3.1859880000      1.0425790000 
  C22          -2.6819628884      3.4480122659      1.7880036367 
  C23          -2.5985742585      4.0191112326      3.0714291843 
  C24          -1.3928529244      4.3579136321      3.6882986360 
  C25          -0.2359457768      4.1185222252      2.9435928511 
  C26          -0.2500637952      3.5568528915      1.6523695118 
  C27           1.0784314650      3.5296469591      0.9180505524 
  C28           1.0597344676      4.5479178261     -0.2370231821 
  C29          -4.1087846432      3.0554507595      1.3900080080 
  C30          -4.7657022628      2.0936829388      2.4085515321 
  C31          -1.3402535414      4.9575441324      5.0785377638 
  C32           2.3623251757      3.7623281744      1.7438635261 
  C33          -5.0257906658      4.2822503100      1.2082047361 
  C34          -1.8541401397      3.9487871685      6.1181852657 
  C35          -2.1163976082      6.2827718286      5.1501790327 
  H36           2.3867450000      0.5770350000     -0.0919280000 
  H37           1.3141700000      0.1937620000     -2.9206610000 
  H38           1.4022340000      1.7673630000     -2.0399630000 
  H39           3.8741960000      1.5227350000     -1.8158020000 
  H40           3.3667480000      1.4574500000     -3.5356390000 
  H41           3.4933720000     -1.0343290000     -3.5330210000 
  H42           5.0594910000     -0.3409120000     -2.9901210000 
  H43           4.4602150000     -0.7409420000     -0.6036040000 
  H44           4.3155280000     -2.2694410000     -1.5316230000 
  H45           2.3928530000     -1.9481030000      0.0023690000 
  H46           1.8435120000     -1.9816870000     -1.7025810000 
  H47          -0.5689981996     -2.3634412376      0.3104108240 
  H48          -2.7342021423     -1.0126069544      0.4798703486 
  H49          -2.6630835359     -0.7252388241     -1.2755192252 
  H50          -4.1964362072     -2.6253973021     -0.7194385321 
  H51          -2.8638680386     -3.4811874966      0.1267488211 
  H52          -3.1401521377     -4.4055721964     -2.1770033094 
  H53          -2.9781079452     -2.7631723019     -2.8877084429 
  H54          -0.8107756076     -3.9805209009     -3.0665900154 
  H55          -0.8019854649     -4.3007916918     -1.3003527592 
  H56          -0.7056869515     -1.5247402962     -2.6551030997 
  H57           0.6674870246     -2.3703653005     -1.8949685042 
  H58          -0.8269830000      0.1490770000     -2.5831970000 
  H59          -2.1683160000      1.5442320000     -4.0620710000 
  H60          -3.1860710000      3.6639080000     -3.1622960000 
  H61          -2.7801850000      4.3120260000     -0.8732000000 
  H62          -3.5144863365      4.2038975227      3.6497006374 
  H63           0.7054460259      4.4208916669      3.4200480450 
  H64           1.1936853919      2.5272480755      0.4935998347 
  H65           0.9316236017      5.5832910956      0.1535874499 
  H66           0.2327121005      4.3594867358     -0.9577003849 
  H67           2.0084203128      4.5173279442     -0.8210068924 
  H68          -4.1223356062      2.4387841646      0.4639563392 
  H69          -4.9435156753      2.5584523542      3.4036239924 
  H70          -5.7603936692      1.7442398504      2.0455506277 
  H71          -4.1435322213      1.1852659773      2.5710718578 
  H72          -0.2775583965      5.1859713375      5.3369542164 
  H73           2.4507398480      4.8159966096      2.0944983035 
  H74           3.2709727115      3.5616374859      1.1299627752 
  H75           2.4142902700      3.0863506535      2.6274052086 
  H76          -5.2170959837      4.8051880878      2.1723196107 
  H77          -6.0168313582      3.9823237859      0.7962848761 
  H78          -4.5936571913      5.0387967247      0.5161797496 
  H79          -2.9273389478      3.6986816655      5.9571086012 
  H92          -1.7565985685      4.3527408132      7.1522461011 
  H93          -1.2728581874      2.9987681329      6.0702215946 
  H94          -3.2054707249      6.1398704062      4.9679173609 
  H95          -1.7354374350      7.0065565582      4.3930898220 
  H84          -2.0083386706      6.7558706259      6.1534265455 
   
  principal moments of inertia:
        amu*angstrom^2:              6539.54332              7772.09648              9920.03735
                g*cm^2:          1.08591658E-36          1.29058682E-36          1.64726075E-36
   
  rotational constants:
               cm^(-1):      0.00257780      0.00216899      0.00169935
                   GHz:      0.07728047      0.06502480      0.05094527
   
  Molecular weight:     756.21 amu
   
  Stoichiometry: PdC39PH53BrF
  Molecular Point Group: C1      
  Point Group used: C1
  
 
Number of optimization coordinates:   325
Number of independent coordinates:    325
Number of non-redundant coordinates:  282
Number of frozen coordinates:           0
Number of harmonic constraints:         0
 
Number of geometric degrees of freedom:   282
Maximum geometric degrees of freedom:     282
 " " " " " excluding dummy atoms:         282
 
 
  bond lengths (angstroms):
 
 P1      -Pd2     :   2.256215      P1      -C3      :   1.899153
 P1      -C4      :   1.876757      P1      -C5      :   1.888849
 Pd2     -Br3     :   2.563093      Pd2     -C76     :   1.968860
 C73     -C74     :   1.385627      C73     -C78     :   1.385990
 C73     -F79     :   1.353131      C74     -C75     :   1.396530
 C74     -H80     :   1.085980      C75     -C76     :   1.397239
 C75     -H81     :   1.084373      C76     -C77     :   1.397919
 C77     -C78     :   1.394158      C77     -H82     :   1.084757
 C78     -H83     :   1.085449      C3      -C6      :   1.543442
 C3      -C10     :   1.543484      C3      -H36     :   1.111908
 C4      -C11     :   1.541624      C4      -C15     :   1.544413
 C4      -H47     :   1.114159      C5      -C16     :   1.412154
 C5      -C20     :   1.432529      C6      -C7      :   1.536446
 C6      -H37     :   1.113630      C6      -H38     :   1.115038
 C7      -C8      :   1.533673      C7      -H39     :   1.116341
 C7      -H40     :   1.116762      C8      -C9      :   1.533425
 C8      -H41     :   1.116139      C8      -H42     :   1.116656
 C9      -C10     :   1.537088      C9      -H43     :   1.116389
 C9      -H44     :   1.116737      C10     -H45     :   1.111895
 C10     -H46     :   1.114425      C11     -C12     :   1.535051
 C11     -H48     :   1.111963      C11     -H49     :   1.115355
 C12     -C13     :   1.533665      C12     -H50     :   1.116675
 C12     -H51     :   1.116082      C13     -C14     :   1.533864
 C13     -H52     :   1.116553      C13     -H53     :   1.116282
 C14     -C15     :   1.536447      C14     -H54     :   1.116822
 C14     -H55     :   1.116116      C15     -H56     :   1.112138
 C15     -H57     :   1.112949      C16     -C17     :   1.397894
 C16     -H58     :   1.100073      C17     -C18     :   1.393135
 C17     -H59     :   1.103241      C18     -C19     :   1.399801
 C18     -H60     :   1.103367      C19     -C20     :   1.414537
 C19     -H61     :   1.097972      C20     -C21     :   1.431688
 C21     -C22     :   1.434595      C21     -C26     :   1.425971
 C22     -C23     :   1.407227      C22     -C29     :   1.532425
 C23     -C24     :   1.396094      C23     -H62     :   1.098835
 C24     -C25     :   1.396542      C24     -C31     :   1.514955
 C25     -C26     :   1.408165      C25     -H63     :   1.097568
 C26     -C27     :   1.518178      C27     -C28     :   1.539942
 C27     -C32     :   1.544180      C27     -H64     :   1.094644
 C28     -H65     :   1.113996      C28     -H66     :   1.113035
 C28     -H67     :   1.114440      C29     -C30     :   1.547246
 C29     -C33     :   1.542397      C29     -H68     :   1.112669
 C30     -H69     :   1.112563      C30     -H70     :   1.115030
 C30     -H71     :   1.112982      C31     -C34     :   1.537055
 C31     -C35     :   1.537453      C31     -H72     :   1.117264
 C32     -H73     :   1.113992      C32     -H74     :   1.114805
 C32     -H75     :   1.113684      C33     -H76     :   1.113364
 C33     -H77     :   1.114359      C33     -H78     :   1.112655
 C34     -H79     :   1.113667      C34     -H92     :   1.114439
 C34     -H93     :   1.114776      C35     -H94     :   1.113427
 C35     -H95     :   1.114531      C35     -H84     :   1.114453
 
  bond angles:
 
 C3      -P1      -Pd2     : 114.261015  C4      -P1      -Pd2     : 104.413004
 C4      -P1      -C3      : 107.773617  C5      -P1      -Pd2     : 114.858201
 C5      -P1      -C3      : 107.614511  C5      -P1      -C4      : 107.477575
 Br3     -Pd2     -P1      :  91.562706  C76     -Pd2     -P1      :  89.293047
 C76     -Pd2     -Br3     : 179.141579  C78     -C73     -C74     : 121.909126
 F79     -C73     -C74     : 119.027529  F79     -C73     -C78     : 119.062389
 C75     -C74     -C73     : 118.848879  H80     -C74     -C73     : 119.601754
 H80     -C74     -C75     : 121.548898  C76     -C75     -C74     : 120.493887
 H81     -C75     -C74     : 119.458344  H81     -C75     -C76     : 120.038367
 C75     -C76     -Pd2     : 120.274260  C77     -C76     -Pd2     : 120.310758
 C77     -C76     -C75     : 119.311759  C78     -C77     -C76     : 120.634266
 H82     -C77     -C76     : 120.106568  H82     -C77     -C78     : 119.244040
 C77     -C78     -C73     : 118.797858  H83     -C78     -C73     : 119.615841
 H83     -C78     -C77     : 121.583776  C6      -C3      -P1      : 115.482193
 C10     -C3      -P1      : 116.323207  C10     -C3      -C6      : 107.643956
 H36     -C3      -P1      : 106.434200  H36     -C3      -C6      : 103.807101
 H36     -C3      -C10     : 105.980486  C11     -C4      -P1      : 110.738068
 C15     -C4      -P1      : 116.008863  C15     -C4      -C11     : 107.311688
 H47     -C4      -P1      : 107.282423  H47     -C4      -C11     : 108.514083
 H47     -C4      -C15     : 106.717762  C16     -C5      -P1      : 108.666711
 C20     -C5      -P1      : 132.399612  C20     -C5      -C16     : 118.691726
 C7      -C6      -C3      : 112.073554  H37     -C6      -C3      : 109.901496
 H37     -C6      -C7      : 107.922155  H38     -C6      -C3      : 110.280278
 H38     -C6      -C7      : 108.340464  H38     -C6      -H37     : 108.210788
 C8      -C7      -C6      : 110.503273  H39     -C7      -C6      : 109.763661
 H39     -C7      -C8      : 109.811721  H40     -C7      -C6      : 109.981518
 H40     -C7      -C8      : 109.779500  H40     -C7      -H39     : 106.933685
 C9      -C8      -C7      : 110.321973  H41     -C8      -C7      : 109.581516
 H41     -C8      -C9      : 109.486077  H42     -C8      -C7      : 110.096731
 H42     -C8      -C9      : 110.132310  H42     -C8      -H41     : 107.163976
 C10     -C9      -C8      : 111.252501  H43     -C9      -C8      : 109.422610
 H43     -C9      -C10     : 109.472841  H44     -C9      -C8      : 109.733808
 H44     -C9      -C10     : 109.953059  H44     -C9      -H43     : 106.904606
 C9      -C10     -C3      : 112.088856  H45     -C10     -C3      : 110.938019
 H45     -C10     -C9      : 107.560842  H46     -C10     -C3      : 109.809666
 H46     -C10     -C9      : 109.121575  H46     -C10     -H45     : 107.167792
 C12     -C11     -C4      : 111.947817  H48     -C11     -C4      : 111.126341
 H48     -C11     -C12     : 108.669593  H49     -C11     -C4      : 109.494682
 H49     -C11     -C12     : 109.304054  H49     -C11     -H48     : 106.116356
 C13     -C12     -C11     : 110.810925  H50     -C12     -C11     : 109.999579
 H50     -C12     -C13     : 109.782118  H51     -C12     -C11     : 109.445619
 H51     -C12     -C13     : 109.658877  H51     -C12     -H50     : 107.066825
 C14     -C13     -C12     : 110.394373  H52     -C13     -C12     : 110.119025
 H52     -C13     -C14     : 110.135780  H53     -C13     -C12     : 109.467225
 H53     -C13     -C14     : 109.488770  H53     -C13     -H52     : 107.174175
 C15     -C14     -C13     : 110.762982  H54     -C14     -C13     : 109.713864
 H54     -C14     -C15     : 110.022673  H55     -C14     -C13     : 109.674910
 H55     -C14     -C15     : 109.581676  H55     -C14     -H54     : 107.008477
 C14     -C15     -C4      : 111.623363  H56     -C15     -C4      : 110.278116
 H56     -C15     -C14     : 108.463277  H57     -C15     -C4      : 111.473754
 H57     -C15     -C14     : 108.319006  H57     -C15     -H56     : 106.497701
 C17     -C16     -C5      : 124.217200  H58     -C16     -C5      : 120.848301
 H58     -C16     -C17     : 114.925303  C18     -C17     -C16     : 117.799910
 H59     -C17     -C16     : 121.320683  H59     -C17     -C18     : 120.879109
 C19     -C18     -C17     : 118.549764  H60     -C18     -C17     : 120.393212
 H60     -C18     -C19     : 121.054346  C20     -C19     -C18     : 125.493203
 H61     -C19     -C18     : 113.811468  H61     -C19     -C20     : 120.607624
 C19     -C20     -C5      : 115.242330  C21     -C20     -C5      : 131.189824
 C21     -C20     -C19     : 113.543362  C22     -C21     -C20     : 119.791946
 C26     -C21     -C20     : 123.273644  C26     -C21     -C22     : 116.928869
 C23     -C22     -C21     : 119.904664  C29     -C22     -C21     : 126.541026
 C29     -C22     -C23     : 113.328583  C24     -C23     -C22     : 123.548685
 H62     -C23     -C22     : 119.921626  H62     -C23     -C24     : 116.521233
 C25     -C24     -C23     : 115.990880  C31     -C24     -C23     : 122.108125
 C31     -C24     -C25     : 121.899906  C26     -C25     -C24     : 123.300690
 H63     -C25     -C24     : 115.583359  H63     -C25     -C26     : 121.100024
 C25     -C26     -C21     : 120.300498  C27     -C26     -C21     : 123.097554
 C27     -C26     -C25     : 116.224601  C28     -C27     -C26     : 109.896754
 C32     -C27     -C26     : 117.787228  C32     -C27     -C28     : 108.155152
 H64     -C27     -C26     : 107.223138  H64     -C27     -C28     : 108.418300
 H64     -C27     -C32     : 104.940131  H65     -C28     -C27     : 110.668567
 H66     -C28     -C27     : 112.503659  H66     -C28     -H65     : 107.393434
 H67     -C28     -C27     : 111.380856  H67     -C28     -H65     : 107.887459
 H67     -C28     -H66     : 106.772892  C30     -C29     -C22     : 112.555587
 C33     -C29     -C22     : 112.359782  C33     -C29     -C30     : 108.637683
 H68     -C29     -C22     : 111.683017  H68     -C29     -C30     : 101.432272
 H68     -C29     -C33     : 109.601633  H69     -C30     -C29     : 113.388366
 H70     -C30     -C29     : 111.053937  H70     -C30     -H69     : 106.231420
 H71     -C30     -C29     : 111.477463  H71     -C30     -H69     : 107.439950
 H71     -C30     -H70     : 106.883515  C34     -C31     -C24     : 110.446558
 C35     -C31     -C24     : 111.494094  C35     -C31     -C34     : 111.432369
 H72     -C31     -C24     : 109.038366  H72     -C31     -C34     : 107.201819
 H72     -C31     -C35     : 107.047248  H73     -C32     -C27     : 112.138112
 H74     -C32     -C27     : 110.858412  H74     -C32     -H73     : 106.195378
 H75     -C32     -C27     : 111.815032  H75     -C32     -H73     : 108.704750
 H75     -C32     -H74     : 106.832867  H76     -C33     -C29     : 111.942282
 H77     -C33     -C29     : 110.991852  H77     -C33     -H76     : 107.079595
 H78     -C33     -C29     : 112.533607  H78     -C33     -H76     : 106.615761
 H78     -C33     -H77     : 107.367641  H79     -C34     -C31     : 111.823074
 H92     -C34     -C31     : 111.128127  H92     -C34     -H79     : 107.454765
 H93     -C34     -C31     : 110.846305  H93     -C34     -H79     : 107.750706
 H93     -C34     -H92     : 107.649001  H94     -C35     -C31     : 112.056905
 H95     -C35     -C31     : 110.827592  H95     -C35     -H94     : 107.847659
 H84     -C35     -C31     : 111.033461  H84     -C35     -H94     : 107.258556
 H84     -C35     -H95     : 107.618818
 
  torsional angles:
 
 P1      -Pd2     -C76     -C75     :  82.491527
 P1      -Pd2     -C76     -C77     : -93.789362
 P1      -C3      -C6      -C7      : 170.312141
 P1      -C3      -C6      -H37     : -69.690300
 P1      -C3      -C6      -H38     :  49.525700
 P1      -C3      -C10     -C9      :-171.775272
 P1      -C3      -C10     -H45     : -51.515570
 P1      -C3      -C10     -H46     :  66.762044
 P1      -C4      -C11     -C12     :-174.123033
 P1      -C4      -C11     -H48     : -52.407923
 P1      -C4      -C11     -H49     :  64.494853
 P1      -C4      -C15     -C14     : 177.116189
 P1      -C4      -C15     -H56     : -62.243884
 P1      -C4      -C15     -H57     :  55.833774
 P1      -C5      -C16     -C17     : 175.890179
 P1      -C5      -C16     -H58     :  -2.949598
 P1      -C5      -C20     -C19     :-174.503172
 P1      -C5      -C20     -C21     :   7.440696
 Pd2     -P1      -C3      -C6      :-147.351771
 Pd2     -P1      -C3      -C10     :  85.030040
 Pd2     -P1      -C3      -H36     : -32.756134
 Pd2     -P1      -C4      -C11     :  84.828143
 Pd2     -P1      -C4      -C15     :-152.571103
 Pd2     -P1      -C4      -H47     : -33.426625
 Pd2     -P1      -C5      -C16     :-162.946211
 Pd2     -P1      -C5      -C20     :  11.158518
 Pd2     -C76     -C75     -C74     :-177.095593
 Pd2     -C76     -C75     -H81     :   1.782994
 Pd2     -C76     -C77     -C78     : 176.927632
 Pd2     -C76     -C77     -H82     :  -1.646969
 Br3     -Pd2     -P1      -C3      :  26.400000
 Br3     -Pd2     -P1      -C4      : 143.886340
 Br3     -Pd2     -P1      -C5      : -98.673480
 Br3     -Pd2     -C76     -C75     : -92.990519
 Br3     -Pd2     -C76     -C77     :  90.728592
 C73     -C74     -C75     -C76     :   0.605200
 C73     -C74     -C75     -H81     :-178.279856
 C73     -C78     -C77     -C76     :  -0.275010
 C73     -C78     -C77     -H82     : 178.311769
 C74     -C73     -C78     -C77     :   0.102037
 C74     -C73     -C78     -H83     : 179.533252
 C74     -C75     -C76     -C77     :  -0.777681
 C75     -C74     -C73     -C78     :  -0.266097
 C75     -C74     -C73     -F79     : 179.374734
 C75     -C76     -C77     -C78     :   0.611093
 C75     -C76     -C77     -H82     :-177.963508
 C76     -Pd2     -P1      -C3      :-153.532358
 C76     -Pd2     -P1      -C4      : -36.046019
 C76     -Pd2     -P1      -C5      :  81.394162
 C76     -C75     -C74     -H80     :-179.644890
 C76     -C77     -C78     -H83     :-179.694551
 C77     -C76     -C75     -H81     : 178.100905
 C77     -C78     -C73     -F79     :-179.538673
 C78     -C73     -C74     -H80     : 179.979021
 F79     -C73     -C74     -H80     :  -0.380148
 F79     -C73     -C78     -H83     :  -0.107458
 H80     -C74     -C75     -H81     :   1.470054
 H82     -C77     -C78     -H83     :  -1.107772
 C3      -P1      -C4      -C11     :-153.308628
 C3      -P1      -C4      -C15     : -30.707873
 C3      -P1      -C4      -H47     :  88.436605
 C3      -P1      -C5      -C16     :  68.575132
 C3      -P1      -C5      -C20     :-117.320139
 C3      -C6      -C7      -C8      :  58.739691
 C3      -C6      -C7      -H39     : -62.516410
 C3      -C6      -C7      -H40     :-179.901248
 C3      -C10     -C9      -C8      : -57.176607
 C3      -C10     -C9      -H43     :  63.885387
 C3      -C10     -C9      -H44     :-178.954189
 C4      -P1      -C3      -C6      :  97.105682
 C4      -P1      -C3      -C10     : -30.512507
 C4      -P1      -C3      -H36     :-148.298681
 C4      -P1      -C5      -C16     : -47.257531
 C4      -P1      -C5      -C20     : 126.847198
 C4      -C11     -C12     -C13     : -58.164312
 C4      -C11     -C12     -H50     :-179.740867
 C4      -C11     -C12     -H51     :  62.890635
 C4      -C15     -C14     -C13     :  58.611595
 C4      -C15     -C14     -H54     :-179.913842
 C4      -C15     -C14     -H55     : -62.521935
 C5      -P1      -C3      -C6      : -18.531854
 C5      -P1      -C3      -C10     :-146.150043
 C5      -P1      -C3      -H36     :  96.063783
 C5      -P1      -C4      -C11     : -37.581057
 C5      -P1      -C4      -C15     :  85.019697
 C5      -P1      -C4      -H47     :-155.835825
 C5      -C16     -C17     -C18     :  -0.326790
 C5      -C16     -C17     -H59     : 179.870300
 C5      -C20     -C19     -C18     :   0.486073
 C5      -C20     -C19     -H61     :-175.891602
 C5      -C20     -C21     -C22     :-123.552873
 C5      -C20     -C21     -C26     :  57.330427
 C6      -C3      -C10     -C9      :  56.844316
 C6      -C3      -C10     -H45     : 177.104018
 C6      -C3      -C10     -H46     : -64.618369
 C6      -C7      -C8      -C9      : -55.963191
 C6      -C7      -C8      -H41     :  64.653691
 C6      -C7      -C8      -H42     :-177.721356
 C7      -C6      -C3      -C10     : -57.847589
 C7      -C6      -C3      -H36     :  54.217656
 C7      -C8      -C9      -C10     :  55.413848
 C7      -C8      -C9      -H43     : -65.677574
 C7      -C8      -C9      -H44     : 177.318838
 C8      -C7      -C6      -H37     : -62.405908
 C8      -C7      -C6      -H38     :-179.357826
 C8      -C9      -C10     -H45     :-179.381508
 C8      -C9      -C10     -H46     :  64.680474
 C9      -C8      -C7      -H39     :  65.264405
 C9      -C8      -C7      -H40     :-177.441842
 C9      -C10     -C3      -H36     : -53.740132
 C10     -C3      -C6      -H37     :  62.149969
 C10     -C3      -C6      -H38     :-178.634030
 C10     -C9      -C8      -H41     : -65.260185
 C10     -C9      -C8      -H42     : 177.150954
 C11     -C4      -C15     -C14     : -58.497245
 C11     -C4      -C15     -H56     :  62.142682
 C11     -C4      -C15     -H57     :-179.779661
 C11     -C12     -C13     -C14     :  55.349695
 C11     -C12     -C13     -H52     : 177.174843
 C11     -C12     -C13     -H53     : -65.242998
 C12     -C11     -C4      -C15     :  58.348698
 C12     -C11     -C4      -H47     : -56.620220
 C12     -C13     -C14     -C15     : -55.661573
 C12     -C13     -C14     -H54     :-177.317776
 C12     -C13     -C14     -H55     :  65.416849
 C13     -C12     -C11     -H48     : 178.720059
 C13     -C12     -C11     -H49     :  63.327616
 C13     -C14     -C15     -H56     : -63.083311
 C13     -C14     -C15     -H57     :-178.291834
 C14     -C13     -C12     -H50     : 177.053943
 C14     -C13     -C12     -H51     : -65.579163
 C14     -C15     -C4      -H47     :  57.664056
 C15     -C4      -C11     -H48     :-179.936192
 C15     -C4      -C11     -H49     : -63.033416
 C15     -C14     -C13     -H52     :-177.476826
 C15     -C14     -C13     -H53     :  64.918228
 C16     -C5      -C20     -C19     :  -0.871968
 C16     -C5      -C20     -C21     :-178.928100
 C16     -C17     -C18     -C19     :  -0.115384
 C16     -C17     -C18     -H60     : 179.295595
 C17     -C16     -C5      -C20     :   0.850394
 C17     -C18     -C19     -C20     :   0.015970
 C17     -C18     -C19     -H61     : 176.608522
 C18     -C17     -C16     -H58     : 178.574828
 C18     -C19     -C20     -C21     : 178.890526
 C19     -C18     -C17     -H59     : 179.688440
 C19     -C20     -C21     -C22     :  58.365019
 C19     -C20     -C21     -C26     :-120.751681
 C20     -C5      -C16     -H58     :-177.989384
 C20     -C19     -C18     -H60     :-179.390956
 C20     -C21     -C22     -C23     : 179.481969
 C20     -C21     -C22     -C29     :   5.321845
 C20     -C21     -C26     -C25     :-179.160890
 C20     -C21     -C26     -C27     :   8.161320
 C21     -C20     -C19     -H61     :   2.512850
 C21     -C22     -C23     -C24     :  -0.039720
 C21     -C22     -C23     -H62     :-178.944142
 C21     -C22     -C29     -C30     : 118.541309
 C21     -C22     -C29     -C33     :-118.431226
 C21     -C22     -C29     -H68     :   5.205769
 C21     -C26     -C25     -C24     :  -0.703109
 C21     -C26     -C25     -H63     :-179.186516
 C21     -C26     -C27     -C28     :  64.015094
 C21     -C26     -C27     -C32     :-171.562749
 C21     -C26     -C27     -H64     : -53.629150
 C22     -C21     -C26     -C25     :   1.698894
 C22     -C21     -C26     -C27     :-170.978896
 C22     -C23     -C24     -C25     :   1.063186
 C22     -C23     -C24     -C31     :-179.309854
 C22     -C29     -C30     -H69     :  66.147975
 C22     -C29     -C30     -H70     :-174.326432
 C22     -C29     -C30     -H71     : -55.256123
 C22     -C29     -C33     -H76     : -67.563930
 C22     -C29     -C33     -H77     : 172.850607
 C22     -C29     -C33     -H78     :  52.496295
 C23     -C22     -C21     -C26     :  -1.346332
 C23     -C22     -C29     -C30     : -55.946705
 C23     -C22     -C29     -C33     :  67.080760
 C23     -C22     -C29     -H68     :-169.282245
 C23     -C24     -C25     -C26     :  -0.691187
 C23     -C24     -C25     -H63     : 177.869064
 C23     -C24     -C31     -C34     :  65.047922
 C23     -C24     -C31     -C35     : -59.419190
 C23     -C24     -C31     -H72     :-177.401025
 C24     -C23     -C22     -C29     : 174.852705
 C24     -C25     -C26     -C27     : 172.461322
 C24     -C31     -C34     -H79     : -63.734219
 C24     -C31     -C34     -H92     : 176.190600
 C24     -C31     -C34     -H93     :  56.524026
 C24     -C31     -C35     -H94     :  64.402819
 C24     -C31     -C35     -H95     : -56.124379
 C24     -C31     -C35     -H84     :-175.678488
 C25     -C24     -C23     -H62     :-179.998031
 C25     -C24     -C31     -C34     :-115.347039
 C25     -C24     -C31     -C35     : 120.185849
 C25     -C24     -C31     -H72     :   2.204013
 C25     -C26     -C27     -C28     :-108.939006
 C25     -C26     -C27     -C32     :  15.483150
 C25     -C26     -C27     -H64     : 133.416749
 C26     -C21     -C22     -C29     :-175.506457
 C26     -C25     -C24     -C31     : 179.681006
 C26     -C27     -C28     -H65     :  62.443561
 C26     -C27     -C28     -H66     : -57.696446
 C26     -C27     -C28     -H67     :-177.540986
 C26     -C27     -C32     -H73     : -70.360721
 C26     -C27     -C32     -H74     : 171.133573
 C26     -C27     -C32     -H75     :  52.035152
 C27     -C26     -C25     -H63     :  -6.022085
 C28     -C27     -C32     -H73     :  54.923868
 C28     -C27     -C32     -H74     : -63.581837
 C28     -C27     -C32     -H75     : 177.319741
 C29     -C22     -C23     -H62     :  -4.051717
 C30     -C29     -C33     -H76     :  57.637632
 C30     -C29     -C33     -H77     : -61.947831
 C30     -C29     -C33     -H78     : 177.697857
 C31     -C24     -C23     -H62     :  -0.371070
 C31     -C24     -C25     -H63     :  -1.758744
 C32     -C27     -C28     -H65     : -67.381240
 C32     -C27     -C28     -H66     : 172.478754
 C32     -C27     -C28     -H67     :  52.634213
 C33     -C29     -C30     -H69     : -58.938616
 C33     -C29     -C30     -H70     :  60.586977
 C33     -C29     -C30     -H71     : 179.657286
 C34     -C31     -C35     -H94     : -59.508997
 C34     -C31     -C35     -H95     : 179.963805
 C34     -C31     -C35     -H84     :  60.409695
 C35     -C31     -C34     -H79     :  60.768224
 C35     -C31     -C34     -H92     : -59.306957
 C35     -C31     -C34     -H93     :-178.973532
 H36     -C3      -C6      -H37     : 174.215214
 H36     -C3      -C6      -H38     : -66.568786
 H36     -C3      -C10     -H45     :  66.519570
 H36     -C3      -C10     -H46     :-175.202817
 H37     -C6      -C7      -H39     : 176.337991
 H37     -C6      -C7      -H40     :  58.953153
 H38     -C6      -C7      -H39     :  59.386074
 H38     -C6      -C7      -H40     : -57.998765
 H39     -C7      -C8      -H41     :-174.118713
 H39     -C7      -C8      -H42     : -56.493760
 H40     -C7      -C8      -H41     : -56.824960
 H40     -C7      -C8      -H42     :  60.799993
 H41     -C8      -C9      -H43     : 173.648392
 H41     -C8      -C9      -H44     :  56.644805
 H42     -C8      -C9      -H43     :  56.059532
 H42     -C8      -C9      -H44     : -60.944056
 H43     -C9      -C10     -H45     : -58.319514
 H43     -C9      -C10     -H46     :-174.257532
 H44     -C9      -C10     -H45     :  58.840909
 H44     -C9      -C10     -H46     : -57.097108
 H47     -C4      -C11     -H48     :  65.094890
 H47     -C4      -C11     -H49     :-178.002334
 H47     -C4      -C15     -H56     : 178.303983
 H47     -C4      -C15     -H57     : -63.618359
 H48     -C11     -C12     -H50     :  57.143503
 H48     -C11     -C12     -H51     : -60.224995
 H49     -C11     -C12     -H50     : -58.248939
 H49     -C11     -C12     -H51     :-175.617437
 H50     -C12     -C13     -H52     : -61.120909
 H50     -C12     -C13     -H53     :  56.461249
 H51     -C12     -C13     -H52     :  56.245985
 H51     -C12     -C13     -H53     : 173.828144
 H52     -C13     -C14     -H54     :  60.866972
 H52     -C13     -C14     -H55     : -56.398403
 H53     -C13     -C14     -H54     : -56.737974
 H53     -C13     -C14     -H55     :-174.003349
 H54     -C14     -C15     -H56     :  58.391252
 H54     -C14     -C15     -H57     : -56.817271
 H55     -C14     -C15     -H56     : 175.783159
 H55     -C14     -C15     -H57     :  60.574636
 H58     -C16     -C17     -H59     :  -1.228082
 H59     -C17     -C18     -H60     :  -0.900581
 H60     -C18     -C19     -H61     :  -2.798404
 H64     -C27     -C28     -H65     : 179.342506
 H64     -C27     -C28     -H66     :  59.202500
 H64     -C27     -C28     -H67     : -60.642041
 H64     -C27     -C32     -H73     : 170.495332
 H64     -C27     -C32     -H74     :  51.989627
 H64     -C27     -C32     -H75     : -67.108794
 H68     -C29     -C30     -H69     :-174.369046
 H68     -C29     -C30     -H70     : -54.843453
 H68     -C29     -C30     -H71     :  64.226856
 H68     -C29     -C33     -H76     : 167.645815
 H68     -C29     -C33     -H77     :  48.060352
 H68     -C29     -C33     -H78     : -72.293960
 H72     -C31     -C34     -H79     : 177.589756
 H72     -C31     -C34     -H92     :  57.514575
 H72     -C31     -C34     -H93     : -62.152000
 H72     -C31     -C35     -H94     :-176.424530
 H72     -C31     -C35     -H95     :  63.048272
 H72     -C31     -C35     -H84     : -56.505837
 
  nuclear repulsion energy.......          6379.359737867 hartrees
  
  Detected an organometallic with only one TM atom. 
  
  Oxidation state on metal       2 is     2
  Formal multiplet on metal      2 is     1
  Formal charge on ligand        3 is    -1
  Formal multiplet on ligand     3 is     1
  Formal charge on ligand        4 is    -1
  Formal multiplet on ligand     4 is     1
  
 
  Will use High-Quality Initial guess for organometallics
       including d-d repulsion (iguess=30)
 
 Non-default options chosen:
   SCF calculation type: DFT(b3pw91-d3)              
   DFT=Becke_3_Parameter/HF+Slater+Becke88+PW91+PW-GGAIIC (B3PW91-D3)
   Geometry will be optimized in redundant internal coordinates
   Solvation energy will be computed using PBF
     -solute cavity energy will not be included
     -surface area terms will not be included
   Vibrational frequencies and related properties will be computed
      from analytic second derivatives
   IR intensities will be computed
   Thermochemical properties will be computed
   Maximum number of geometry steps: 100
   Scaling standard convergence criteria by a factor of   5.00
   Solvent: benzene                                                         
   Internal dielectric constant:    1.000
   Continuum dielectric constant:   2.283
   Solvent probe molecule radius:   2.600
  
 Non-default print settings:
     11=  2
  
 Temporary integer options set:
     21= -1  73=  2
  
  atom       vdw   vdw2    cov     mass  grid  daf  charge   basis
  P1        2.147  2.074  1.060   30.974    Y    Y      Y    ps_6-31g*
  Pd2       1.450  1.450  1.280  105.903    Y    Y      Y    lacv3p*
  Br3       2.095  2.095  1.140   78.918    Y    Y      Y    lav3p*
  C73       1.949  1.900  0.770   12.000    Y    Y      Y    ps_6-31g*
  C74       1.949  1.900  0.770   12.000    Y    Y      Y    ps_6-31g*
  C75       1.949  1.900  0.770   12.000    Y    Y      Y    ps_6-31g*
  C76       1.949  1.900  0.770   12.000    Y    Y      Y    ps_6-31g*
  C77       1.949  1.900  0.770   12.000    Y    Y      Y    ps_6-31g*
  C78       1.949  1.900  0.770   12.000    Y    Y      Y    ps_6-31g*
  F79       1.736  1.682  0.720   18.998    Y    Y      Y    ps_6-31g*
  H80       1.597  1.150  0.320    1.008    Y    Y      Y    ps_6-31g*
  H81       1.597  1.150  0.320    1.008    Y    Y      Y    ps_6-31g*
  H82       1.597  1.150  0.320    1.008    Y    Y      Y    ps_6-31g*
  H83       1.597  1.150  0.320    1.008    Y    Y      Y    ps_6-31g*
  C3        1.949  1.900  0.770   12.000    Y    Y      Y    ps_6-31g*
  C4        1.949  1.900  0.770   12.000    Y    Y      Y    ps_6-31g*
  C5        1.949  1.900  0.770   12.000    Y    Y      Y    ps_6-31g*
  C6        1.949  1.900  0.770   12.000    Y    Y      Y    ps_6-31g*
  C7        1.949  1.900  0.770   12.000    Y    Y      Y    ps_6-31g*
  C8        1.949  1.900  0.770   12.000    Y    Y      Y    ps_6-31g*
  C9        1.949  1.900  0.770   12.000    Y    Y      Y    ps_6-31g*
  C10       1.949  1.900  0.770   12.000    Y    Y      Y    ps_6-31g*
  C11       1.949  1.900  0.770   12.000    Y    Y      Y    ps_6-31g*
  C12       1.949  1.900  0.770   12.000    Y    Y      Y    ps_6-31g*
  C13       1.949  1.900  0.770   12.000    Y    Y      Y    ps_6-31g*
  C14       1.949  1.900  0.770   12.000    Y    Y      Y    ps_6-31g*
  C15       1.949  1.900  0.770   12.000    Y    Y      Y    ps_6-31g*
  C16       1.949  1.900  0.770   12.000    Y    Y      Y    ps_6-31g*
  C17       1.949  1.900  0.770   12.000    Y    Y      Y    ps_6-31g*
  C18       1.949  1.900  0.770   12.000    Y    Y      Y    ps_6-31g*
  C19       1.949  1.900  0.770   12.000    Y    Y      Y    ps_6-31g*
  C20       1.949  1.900  0.770   12.000    Y    Y      Y    ps_6-31g*
  C21       1.949  1.900  0.770   12.000    Y    Y      Y    ps_6-31g*
  C22       1.949  1.900  0.770   12.000    Y    Y      Y    ps_6-31g*
  C23       1.949  1.900  0.770   12.000    Y    Y      Y    ps_6-31g*
  C24       1.949  1.900  0.770   12.000    Y    Y      Y    ps_6-31g*
  C25       1.949  1.900  0.770   12.000    Y    Y      Y    ps_6-31g*
  C26       1.949  1.900  0.770   12.000    Y    Y      Y    ps_6-31g*
  C27       1.949  1.900  0.770   12.000    Y    Y      Y    ps_6-31g*
  C28       1.949  1.900  0.770   12.000    Y    Y      Y    ps_6-31g*
  C29       1.949  1.900  0.770   12.000    Y    Y      Y    ps_6-31g*
  C30       1.949  1.900  0.770   12.000    Y    Y      Y    ps_6-31g*
  C31       1.949  1.900  0.770   12.000    Y    Y      Y    ps_6-31g*
  C32       1.949  1.900  0.770   12.000    Y    Y      Y    ps_6-31g*
  C33       1.949  1.900  0.770   12.000    Y    Y      Y    ps_6-31g*
  C34       1.949  1.900  0.770   12.000    Y    Y      Y    ps_6-31g*
  C35       1.949  1.900  0.770   12.000    Y    Y      Y    ps_6-31g*
  H36       1.597  1.150  0.320    1.008    Y    Y      Y    ps_6-31g*
  H37       1.597  1.150  0.320    1.008    Y    Y      Y    ps_6-31g*
  H38       1.597  1.150  0.320    1.008    Y    Y      Y    ps_6-31g*
  H39       1.597  1.150  0.320    1.008    Y    Y      Y    ps_6-31g*
  H40       1.597  1.150  0.320    1.008    Y    Y      Y    ps_6-31g*
  H41       1.597  1.150  0.320    1.008    Y    Y      Y    ps_6-31g*
  H42       1.597  1.150  0.320    1.008    Y    Y      Y    ps_6-31g*
  H43       1.597  1.150  0.320    1.008    Y    Y      Y    ps_6-31g*
  H44       1.597  1.150  0.320    1.008    Y    Y      Y    ps_6-31g*
  H45       1.597  1.150  0.320    1.008    Y    Y      Y    ps_6-31g*
  H46       1.597  1.150  0.320    1.008    Y    Y      Y    ps_6-31g*
  H47       1.597  1.150  0.320    1.008    Y    Y      Y    ps_6-31g*
  H48       1.597  1.150  0.320    1.008    Y    Y      Y    ps_6-31g*
  H49       1.597  1.150  0.320    1.008    Y    Y      Y    ps_6-31g*
  H50       1.597  1.150  0.320    1.008    Y    Y      Y    ps_6-31g*
  H51       1.597  1.150  0.320    1.008    Y    Y      Y    ps_6-31g*
  H52       1.597  1.150  0.320    1.008    Y    Y      Y    ps_6-31g*
  H53       1.597  1.150  0.320    1.008    Y    Y      Y    ps_6-31g*
  H54       1.597  1.150  0.320    1.008    Y    Y      Y    ps_6-31g*
  H55       1.597  1.150  0.320    1.008    Y    Y      Y    ps_6-31g*
  H56       1.597  1.150  0.320    1.008    Y    Y      Y    ps_6-31g*
  H57       1.597  1.150  0.320    1.008    Y    Y      Y    ps_6-31g*
  H58       1.597  1.150  0.320    1.008    Y    Y      Y    ps_6-31g*
  H59       1.597  1.150  0.320    1.008    Y    Y      Y    ps_6-31g*
  H60       1.597  1.150  0.320    1.008    Y    Y      Y    ps_6-31g*
  H61       1.597  1.150  0.320    1.008    Y    Y      Y    ps_6-31g*
  H62       1.597  1.150  0.320    1.008    Y    Y      Y    ps_6-31g*
  H63       1.597  1.150  0.320    1.008    Y    Y      Y    ps_6-31g*
  H64       1.597  1.150  0.320    1.008    Y    Y      Y    ps_6-31g*
  H65       1.597  1.150  0.320    1.008    Y    Y      Y    ps_6-31g*
  H66       1.597  1.150  0.320    1.008    Y    Y      Y    ps_6-31g*
  H67       1.597  1.150  0.320    1.008    Y    Y      Y    ps_6-31g*
  H68       1.597  1.150  0.320    1.008    Y    Y      Y    ps_6-31g*
  H69       1.597  1.150  0.320    1.008    Y    Y      Y    ps_6-31g*
  H70       1.597  1.150  0.320    1.008    Y    Y      Y    ps_6-31g*
  H71       1.597  1.150  0.320    1.008    Y    Y      Y    ps_6-31g*
  H72       1.597  1.150  0.320    1.008    Y    Y      Y    ps_6-31g*
  H73       1.597  1.150  0.320    1.008    Y    Y      Y    ps_6-31g*
  H74       1.597  1.150  0.320    1.008    Y    Y      Y    ps_6-31g*
  H75       1.597  1.150  0.320    1.008    Y    Y      Y    ps_6-31g*
  H76       1.597  1.150  0.320    1.008    Y    Y      Y    ps_6-31g*
  H77       1.597  1.150  0.320    1.008    Y    Y      Y    ps_6-31g*
  H78       1.597  1.150  0.320    1.008    Y    Y      Y    ps_6-31g*
  H79       1.597  1.150  0.320    1.008    Y    Y      Y    ps_6-31g*
  H92       1.597  1.150  0.320    1.008    Y    Y      Y    ps_6-31g*
  H93       1.597  1.150  0.320    1.008    Y    Y      Y    ps_6-31g*
  H94       1.597  1.150  0.320    1.008    Y    Y      Y    ps_6-31g*
  H95       1.597  1.150  0.320    1.008    Y    Y      Y    ps_6-31g*
  H84       1.597  1.150  0.320    1.008    Y    Y      Y    ps_6-31g*
 
  atom      formal  2spin      esp    mulk    frag
  P1           0       0        Y    0.000       0
  Pd2          2       0        Y    0.000       0
  Br3         -1       0        Y    0.000       0
  C73         -1       0        Y    0.000       0
  
  end of program pre
   
 Time(pre)  user:       1.187  user+sys:       1.187  wallclock:       1.529
  
  start of program onee
  
  smallest eigenvalue of S:    2.990E-04
  number of canonical orbitals.....          721
  end of program onee
   
 Time(onee)  user:      13.404  user+sys:      13.404  wallclock:      10.039
  
  start of program hfig
  
  initial wavefunction generated automatically from atomic wavefunctions
  Only one state below 0.010000
  Skip d-d repulsion considerations 
 
  Irreducible     Total no   No of occupied orbitals 
  representation  orbitals   Shell_1  Shell_2    ...
  No Symm          721        168
  ------------------------
  Orbital occupation/shell    1.000
 
  end of program hfig
   
 Time(hfig)  user:       1.603  user+sys:       1.603  wallclock:       2.036
  
  start of program probe
  
  end of program probe
   
 Time(probe)  user:       0.849  user+sys:       0.849  wallclock:       0.743
  
  start of program grid
  
   grid     grid set  grid #  grid sym
  ------    --------  ------  --------
  coarse        0        0        1
  medium        2        1        1
  fine          0        0        1
  ultrafine     4        2        1
  charge       -1        3        1
  gradient      4        2        1
  density       0        0        1
  DFT-fine    -11        4        1
  DFT-med.    -10        5        1
  DFT-grad    -12        6        1
  DFT-der2     -8        7        1
  DFT-cphf     -9        8        1
  LMP2-enrg     4        2        1
  LMP2-grad     2        1        1
  DFT-cphf2   -15        9        1
  PBF-dens      0        0        1
  plotting      0        0        1
  Rel-grad    -17        0        1
  
  number of gridpoints: 
     atom           P1         Pd2         Br3         C73         C74         C75         C76
  grid # 1         606         359         483          79          92          95          99
  grid # 2         425         335         449         330         312         320         388
  grid # 3           7         304         204          32          29          30          35
  grid # 4        8714        8714        8714        8714        8714        8714        8714
  grid # 5        1192        1192        1192        1192        1192        1192        1192
  grid # 6        9132        9132        9132        5922        5922        5922        5922
  grid # 7       23034       32968       11582       13950       13950       13950       13950
  grid # 8         722        1150         694         748         748         748         748
  grid # 9         366        2198         358         394         394         394         394
   
  number of gridpoints: 
     atom          C77         C78         F79         H80         H81         H82         H83
  grid # 1          92          91         582         106         107         103         103
  grid # 2         312         315         562         450         441         403         432
  grid # 3          30          29         314         311         239          76         197
  grid # 4        8714        8714        8714        8714        8714        8714        8714
  grid # 5        1192        1192        1192        1192        1192        1192        1192
  grid # 6        5922        5922        5922        5922        5922        5922        5922
  grid # 7       13950       13950       23190       15206       15206       15206       15206
  grid # 8         748         748         770         786         786         786         786
  grid # 9         394         394         420         420         420         420         420
   
  number of gridpoints: 
     atom           C3          C4          C5          C6          C7          C8          C9
  grid # 1          79          80          91          92          92          92          92
  grid # 2         334         331         383         276         280         278         283
  grid # 3           6           6           9           6           6           6           6
  grid # 4        8714        8714        8714        8714        8714        8714        8714
  grid # 5        1192        1192        1192        1192        1192        1192        1192
  grid # 6        5922        5922        5922        5922        5922        5922        5922
  grid # 7       13950       13950       13950       13950       13950       13950       13950
  grid # 8         748         748         748         748         748         748         748
  grid # 9         394         394         394         394         394         394         394
   
  number of gridpoints: 
     atom          C10         C11         C12         C13         C14         C15         C16
  grid # 1          92          90          92          92          92          92          91
  grid # 2         276         278         283         278         283         277         319
  grid # 3           6           6           6           6           6           6           9
  grid # 4        8714        8714        8714        8714        8714        8714        8714
  grid # 5        1192        1192        1192        1192        1192        1192        1192
  grid # 6        5922        5922        5922        5922        5922        5922        5922
  grid # 7       13950       13950       13950       13950       13950       13950       13950
  grid # 8         748         748         748         748         748         748         748
  grid # 9         394         394         394         394         394         394         394
   
  number of gridpoints: 
     atom          C17         C18         C19         C20         C21         C22         C23
  grid # 1          95          95          93          98          97          98          93
  grid # 2         322         323         320         354         360         360         327
  grid # 3          25          27           7           6           8          13          27
  grid # 4        8714        8714        8714        8714        8714        8714        8714
  grid # 5        1192        1192        1192        1192        1192        1192        1192
  grid # 6        5922        5922        5922        5922        5922        5922        5922
  grid # 7       13950       13950       13950       13950       13950       13950       13950
  grid # 8         748         748         748         748         748         748         748
  grid # 9         394         394         394         394         394         394         394
   
  number of gridpoints: 
     atom          C24         C25         C26         C27         C28         C29         C30
  grid # 1         100          93          98          89          81          91          80
  grid # 2         361         327         361         303         244         310         245
  grid # 3          14          20          10           6           6           6           6
  grid # 4        8714        8714        8714        8714        8714        8714        8714
  grid # 5        1192        1192        1192        1192        1192        1192        1192
  grid # 6        5922        5922        5922        5922        5922        5922        5922
  grid # 7       13950       13950       13950       13950       13950       13950       13950
  grid # 8         748         748         748         748         748         748         748
  grid # 9         394         394         394         394         394         394         394
   
  number of gridpoints: 
     atom          C31         C32         C33         C34         C35         H36         H37
  grid # 1          90          81          80          83          81          95         105
  grid # 2         305         244         246         242         247         420         428
  grid # 3           6           6           6           6           6          44         122
  grid # 4        8714        8714        8714        8714        8714        8714        8714
  grid # 5        1192        1192        1192        1192        1192        1192        1192
  grid # 6        5922        5922        5922        5922        5922        5922        5922
  grid # 7       13950       13950       13950       13950       13950       15206       15206
  grid # 8         748         748         748         748         748         786         786
  grid # 9         394         394         394         394         394         420         420
   
  number of gridpoints: 
     atom          H38         H39         H40         H41         H42         H43         H44
  grid # 1         104         109         112         110         112         110         112
  grid # 2         432         446         459         454         458         451         457
  grid # 3         119         211         326         264         332         238         326
  grid # 4        8714        8714        8714        8714        8714        8714        8714
  grid # 5        1192        1192        1192        1192        1192        1192        1192
  grid # 6        5922        5922        5922        5922        5922        5922        5922
  grid # 7       15206       15206       15206       15206       15206       15206       15206
  grid # 8         786         786         786         786         786         786         786
  grid # 9         420         420         420         420         420         420         420
   
  number of gridpoints: 
     atom          H45         H46         H47         H48         H49         H50         H51
  grid # 1         107          92          95          96         105         109         101
  grid # 2         448         386         412         399         429         448         409
  grid # 3         207          73          54          38         119         238          72
  grid # 4        8714        8714        8714        8714        8714        8714        8714
  grid # 5        1192        1192        1192        1192        1192        1192        1192
  grid # 6        5922        5922        5922        5922        5922        5922        5922
  grid # 7       15206       15206       15206       15206       15206       15206       15206
  grid # 8         786         786         786         786         786         786         786
  grid # 9         420         420         420         420         420         420         420
   
  number of gridpoints: 
     atom          H52         H53         H54         H55         H56         H57         H58
  grid # 1         112         110         112         110         102          93          95
  grid # 2         458         455         458         452         416         386         407
  grid # 3         332         256         327         261         100          88          51
  grid # 4        8714        8714        8714        8714        8714        8714        8714
  grid # 5        1192        1192        1192        1192        1192        1192        1192
  grid # 6        5922        5922        5922        5922        5922        5922        5922
  grid # 7       15206       15206       15206       15206       15206       15206       15206
  grid # 8         786         786         786         786         786         786         786
  grid # 9         420         420         420         420         420         420         420
   
  number of gridpoints: 
     atom          H59         H60         H61         H62         H63         H64         H65
  grid # 1         118         118         111         105         103          96         110
  grid # 2         466         466         436         419         431         412         455
  grid # 3         400         410         181          66         136          17         308
  grid # 4        8714        8714        8714        8714        8714        8714        8714
  grid # 5        1192        1192        1192        1192        1192        1192        1192
  grid # 6        5922        5922        5922        5922        5922        5922        5922
  grid # 7       15206       15206       15206       15206       15206       15206       15206
  grid # 8         786         786         786         786         786         786         786
  grid # 9         420         420         420         420         420         420         420
   
  number of gridpoints: 
     atom          H66         H67         H68         H69         H70         H71         H72
  grid # 1         105         107         106         104         106          88         110
  grid # 2         439         444         433         442         437         376         442
  grid # 3         176         261         144         223         222          48         219
  grid # 4        8714        8714        8714        8714        8714        8714        8714
  grid # 5        1192        1192        1192        1192        1192        1192        1192
  grid # 6        5922        5922        5922        5922        5922        5922        5922
  grid # 7       15206       15206       15206       15206       15206       15206       15206
  grid # 8         786         786         786         786         786         786         786
  grid # 9         420         420         420         420         420         420         420
   
  number of gridpoints: 
     atom          H73         H74         H75         H76         H77         H78         H79
  grid # 1         107         108          91         105         110         108         107
  grid # 2         441         446         424         444         454         445         447
  grid # 3         258         241         148         240         318         262         240
  grid # 4        8714        8714        8714        8714        8714        8714        8714
  grid # 5        1192        1192        1192        1192        1192        1192        1192
  grid # 6        5922        5922        5922        5922        5922        5922        5922
  grid # 7       15206       15206       15206       15206       15206       15206       15206
  grid # 8         786         786         786         786         786         786         786
  grid # 9         420         420         420         420         420         420         420
   
  number of gridpoints: 
     atom          H92         H93         H94         H95         H84       total
  grid # 1         110         110         106         111         110       11150
  grid # 2         455         458         447         460         456       36877
  grid # 3         326         300         243         345         324       12392
  grid # 4        8714        8714        8714        8714        8714      836544
  grid # 5        1192        1192        1192        1192        1192      114432
  grid # 6        5922        5922        5922        5922        5922      578142
  grid # 7       15206       15206       15206       15206       15206     1440742
  grid # 8         786         786         786         786         786       74166
  grid # 9         420         420         420         420         420       40968
   
  end of program grid
   
 Time(grid)  user:     722.060  user+sys:     722.060  wallclock:     365.265
  
  start of program rwr
  
  end of program rwr
   
 Time(rwr)  user:      27.208  user+sys:      27.208  wallclock:      33.939
  
  start of program scf
  
 number of electrons..........        336
 number of alpha electrons....        168
 number of beta electrons.....        168
 number of orbitals, total....        721
 number of doubly-occ'd orbs..        168
 number of open shell orbs....          0
 number of occupied orbitals..        168
 number of virtual orbitals...        553
 number of hamiltonians.......          1
 number of shells.............          1
 SCF type: DFT=Becke_3_Parameter/HF+Slater+Becke88+PW91+PW-GGAIIC (B3PW91-D3)
 Energy computed using pseudospectral method.
 Convergence Criterion:
    Energy (econv):       1.00E-05
    RMS density (dconv):  5.00E-06
  
       i  u  d  i  g                   
       t  p  i  c  r                                 RMS    maximum
       e  d  i  u  i                       energy  density   DIIS  
       r  t  s  t  d       total energy    change  change    error 
  
etot    1  N  N  5  M   -2093.43358551319           1.9E-03  2.1E-01
etot    2  Y  Y  6  M   -2096.90590525091  3.5E+00  3.3E-03  1.2E-01
etot    3  Y  Y  6  M   -2097.87125990090  9.7E-01  1.4E-03  7.4E-02
etot    4  N  Y  2  U   -2098.25100998991  3.8E-01  1.2E-03  4.5E-02
etot    5  Y  Y  6  M   -2098.46108438567  2.1E-01  6.5E-04  2.3E-02
etot    6  N  Y  2  U   -2098.47947964314  1.8E-02  6.9E-04  1.3E-02
etot    7  Y  Y  6  M   -2098.47931936204 -1.6E-04  1.2E-04  5.2E-03
etot    8  Y  Y  6  M   -2098.48494097455  5.6E-03  5.0E-05  1.1E-03
etot    9  N  Y  2  U   -2098.48614964261  1.2E-03  1.3E-05  2.6E-04
etot   10  N  Y  2  U   -2098.48616371034  1.4E-05  4.9E-06  7.0E-05
etot   11  N  N  2  U   -2098.48616678188  3.1E-06  0.0E+00  0.0E+00
 
  Computing the dispersion energy correction and its gradients...
  
  
 Energy components, in hartrees:
   (A)  Nuclear repulsion............    6379.35973786691
   (E)  Total one-electron terms.....  -15620.50012415327
   (F)    Electron-nuclear...........  -17617.85174959847
   (H)    Kinetic....................    1997.35162544519
   (I)  Total two-electron terms.....    7142.65421950449
   (J)    Coulomb....................    7422.85450313460
   (K)    Exchange+Correlation.......    -280.20028363012
   (L)  Electronic energy............   -8477.84590464879  (E+I)
   (N0) D3 correction................      -0.18501026892
   (N)  Total energy.................   -2098.67117705080  (A+L+N0)
   (O)  Gas phase energy.............   -2098.67117705080
  
 SCFE: SCF energy: DFT(b3pw91-d3)     -2098.67117705080 hartrees   iterations:  11
  
 
 HOMO energy:    -0.19783
 LUMO energy:    -0.08815
 
  Orbital energies (hartrees): 
   -77.11937   -24.68943   -10.25591   -10.21800   -10.21161   -10.20027
   -10.19879   -10.19528   -10.19443   -10.19286   -10.18966   -10.18540
   -10.18506   -10.18467   -10.18150   -10.18117   -10.17941   -10.17815
   -10.17799   -10.17774   -10.17744   -10.17730   -10.17629   -10.17558
   -10.17330   -10.17172   -10.17145   -10.17003   -10.16862   -10.16642
   -10.16302   -10.16254   -10.16246   -10.16165   -10.16051   -10.15852
   -10.15782   -10.15697   -10.14722   -10.14710   -10.12477    -6.61661
    -4.77423    -4.77376    -4.77313    -3.35152    -2.08492    -2.08332
    -2.05046    -1.22071    -0.88834    -0.87662    -0.86199    -0.85036
    -0.84031    -0.81655    -0.81077    -0.78682    -0.78438    -0.77489
    -0.76594    -0.76032    -0.75443    -0.74906    -0.74447    -0.74230
    -0.71949    -0.71483    -0.69289    -0.68587    -0.67914    -0.67348
    -0.65277    -0.63967    -0.63454    -0.62999    -0.62209    -0.61859
    -0.61108    -0.60999    -0.60753    -0.59872    -0.58928    -0.57221
    -0.56865    -0.56193    -0.55154    -0.54737    -0.52935    -0.52334
    -0.49550    -0.49365    -0.49045    -0.49031    -0.48284    -0.47926
    -0.47251    -0.47085    -0.46522    -0.46000    -0.45739    -0.45499
    -0.44877    -0.44740    -0.44467    -0.44274    -0.44003    -0.43690
    -0.43327    -0.42744    -0.42513    -0.42343    -0.41614    -0.41420
    -0.40966    -0.40799    -0.40456    -0.39853    -0.39770    -0.39367
    -0.38955    -0.38459    -0.38216    -0.38026    -0.37799    -0.37696
    -0.37536    -0.37218    -0.37043    -0.36683    -0.36132    -0.36108
    -0.35734    -0.35243    -0.34927    -0.34839    -0.34644    -0.34538
    -0.34079    -0.33905    -0.33730    -0.33575    -0.33325    -0.32986
    -0.32956    -0.32905    -0.32231    -0.32083    -0.31666    -0.31252
    -0.30913    -0.30686    -0.30338    -0.29937    -0.29407    -0.28615
    -0.27902    -0.27883    -0.27305    -0.26609    -0.25793    -0.24939
    -0.24193    -0.23573    -0.23069    -0.22320    -0.21552    -0.19783
    -0.08815    -0.05127    -0.03230    -0.01691    -0.00306     0.00049
     0.00493     0.01196     0.03074     0.03818
 
  end of program scf
   
 Time(scf)  user:     643.630  user+sys:     643.630  wallclock:     342.713
  
  start of program der1a
  
  end of program der1a
   
 Time(der1a)  user:      42.108  user+sys:      42.108  wallclock:      22.547
  
  start of program rwr
  
  end of program rwr
   
 Time(rwr)  user:      33.665  user+sys:      33.665  wallclock:      37.359
  
  start of program der1b
  
   
  forces (hartrees/bohr) : total     
   
 atom  label           x              y              z
 ---- --------   -------------  -------------  -------------
    1 P1         -3.200722E-03   1.817305E-03   1.032440E-02
    2 Pd2         1.772859E-02   1.207374E-02  -5.398859E-03
    3 Br3        -7.164080E-04  -7.752613E-02   2.112575E-02
    4 C73        -3.726472E-03  -2.040339E-03   4.688159E-03
    5 C74         4.292651E-03  -2.642890E-03   2.249093E-02
    6 C75        -8.036117E-03  -3.560664E-03   2.471116E-02
    7 C76         3.439295E-03  -9.619260E-05   9.369727E-03
    8 C77         1.590974E-02  -1.455576E-02   6.500474E-03
    9 C78        -3.502722E-03  -1.212679E-02   2.769937E-03
   10 F79         4.960778E-03   2.188653E-03  -1.228531E-03
   11 H80        -1.119272E-03   9.910556E-05   5.507429E-03
   12 H81        -4.440515E-04  -3.510012E-03   4.184677E-03
   13 H82         2.051713E-02  -1.055306E-02  -3.824459E-03
   14 H83         5.748038E-04  -1.042432E-02  -1.356402E-03
   15 C3          1.935206E-02   9.611520E-03  -1.005383E-02
   16 C4         -6.372334E-03  -6.473851E-03  -2.398550E-02
   17 C5         -4.841381E-04  -1.129692E-02  -3.958341E-03
   18 C6         -1.271205E-02   1.131791E-02  -7.747574E-03
   19 C7          4.968853E-03   2.509929E-03  -2.373794E-03
   20 C8          8.871213E-03  -1.169756E-04  -4.144365E-03
   21 C9          7.627931E-03   1.143009E-04   1.987716E-03
   22 C10         2.848510E-03  -1.262737E-02   1.240384E-02
   23 C11        -1.639287E-02   9.542828E-03  -7.310306E-04
   24 C12        -1.348840E-03  -5.842540E-03  -1.437948E-02
   25 C13        -6.863241E-03  -7.350383E-03  -4.196897E-03
   26 C14        -1.987872E-03  -4.391346E-03  -4.123191E-03
   27 C15         7.036612E-03  -5.950675E-03  -1.132019E-02
   28 C16        -2.352240E-03  -1.003204E-03  -1.350676E-02
   29 C17        -3.189596E-04   3.097322E-04   2.867414E-04
   30 C18         6.265818E-04  -1.935830E-03   8.850300E-04
   31 C19        -7.739192E-03   1.122434E-02  -1.686410E-02
   32 C20        -2.535312E-03  -1.347351E-02  -4.514429E-02
   33 C21         2.284270E-03   7.082389E-03   5.540601E-02
   34 C22        -1.251437E-03  -3.837009E-03   1.214991E-02
   35 C23        -7.375335E-04   2.999826E-03   4.448772E-03
   36 C24         1.130045E-03  -3.675606E-03  -1.290434E-02
   37 C25         8.722211E-05   2.274225E-03   3.707938E-03
   38 C26         7.208456E-03   9.856500E-03   1.370078E-02
   39 C27         8.886635E-03   2.686427E-03  -1.467263E-02
   40 C28        -3.060746E-03   7.334450E-03  -1.148029E-02
   41 C29        -1.058722E-02  -1.247440E-02  -6.334923E-03
   42 C30        -9.743437E-03   2.692101E-03   1.479324E-02
   43 C31         4.277866E-03   1.934046E-03   4.660411E-03
   44 C32         4.289060E-03   3.119743E-02   1.107178E-02
   45 C33        -3.989259E-03   8.400197E-03  -6.549999E-03
   46 C34        -1.373677E-03  -7.558502E-03   8.916723E-03
   47 C35        -3.190799E-03   1.047641E-02   6.608456E-04
   48 H36        -1.298006E-02  -7.081367E-03   2.851041E-05
   49 H37         3.080680E-03   6.647789E-03   5.330879E-03
   50 H38         2.264777E-03  -1.168561E-02  -2.296202E-03
   51 H39        -5.381210E-03  -5.792900E-03  -6.535829E-03
   52 H40        -2.316911E-03  -4.381488E-03   1.104552E-02
   53 H41         4.259543E-03   5.268606E-03   6.785859E-03
   54 H42        -1.128739E-02  -2.228961E-03   1.805365E-03
   55 H43        -5.700564E-03  -4.964478E-03  -7.098320E-03
   56 H44        -6.089640E-03   9.966917E-03   3.291459E-03
   57 H45        -3.719555E-03   4.104561E-03  -6.639332E-03
   58 H46         2.702219E-02   1.348790E-02   1.268860E-02
   59 H47         2.210667E-03   1.457159E-02  -1.144401E-02
   60 H48         5.713284E-03  -3.431027E-03  -3.360651E-02
   61 H49         3.066944E-03  -9.461002E-03   6.479619E-03
   62 H50         1.205744E-02  -1.206985E-03   3.100304E-03
   63 H51        -2.782505E-03   8.261692E-03  -2.359297E-02
   64 H52         4.358081E-03   1.027526E-02  -2.650411E-05
   65 H53         3.354929E-03  -6.237513E-03   6.630427E-03
   66 H54        -9.717824E-04   4.527083E-03   1.104851E-02
   67 H55        -2.486818E-03   6.366107E-03  -6.562629E-03
   68 H56         2.366315E-03  -9.428971E-03   6.053140E-03
   69 H57        -3.379731E-02  -2.216107E-03  -2.397796E-03
   70 H58        -1.593580E-03   1.222494E-02   8.967126E-03
   71 H59         3.039199E-03   1.092683E-03   1.082966E-02
   72 H60         5.733496E-03  -4.935050E-03   8.484592E-03
   73 H61         5.265192E-03  -8.239992E-03   7.509047E-03
   74 H62         3.721840E-03  -3.005078E-03  -7.632762E-03
   75 H63        -3.402924E-03  -5.029648E-03  -8.498052E-03
   76 H64        -1.556378E-03   3.169009E-03  -4.961150E-03
   77 H65         1.677984E-03  -9.959486E-03  -3.414287E-03
   78 H66         7.303446E-03   1.655388E-03   7.569214E-03
   79 H67        -8.079597E-03  -1.713619E-04   7.392646E-03
   80 H68         6.028703E-03   1.278142E-02   2.603862E-03
   81 H69         1.790042E-03  -1.407219E-03  -9.213804E-03
   82 H70         8.283689E-03   8.357727E-03   5.459390E-04
   83 H71        -3.449892E-02   4.998449E-02   3.905613E-03
   84 H72        -9.561464E-03  -3.574909E-03  -5.276031E-03
   85 H73        -3.244655E-03  -4.335433E-03  -6.926928E-03
   86 H74        -1.194184E-02   1.023143E-03   4.200336E-03
   87 H75        -8.008937E-05   3.807172E-02  -1.289751E-02
   88 H76         3.303143E-03  -6.452835E-03  -8.234214E-03
   89 H77         1.008002E-02   1.625624E-03   4.537174E-03
   90 H78        -2.893994E-03  -7.574975E-03   5.559846E-03
   91 H79         1.011903E-02   2.655746E-03   5.531097E-04
   92 H92        -1.134138E-03  -3.161161E-03  -1.006484E-02
   93 H93        -6.427337E-03   9.678309E-03   1.413805E-04
   94 H94         1.040659E-02   5.400528E-04   1.118125E-03
   95 H95        -4.536275E-03  -7.642834E-03   7.459394E-03
   96 H84        -9.787992E-04  -5.463590E-03  -9.328787E-03
 -------------   -------------  -------------  -------------
     total        2.194865E-03  -3.314987E-05  -5.106184E-04
   
  end of program der1b
   
 Time(der1b)  user:     251.459  user+sys:     251.459  wallclock:     132.400
  
  start of program geopt
  
 ----------------------------------------------------------------------------
  Geometry optimization step  1
  Total energy:     -2098.67117705080 hartrees
 ----------------------------------------------------------------------------
  
  
  Level shifts adjusted to satisfy step-size constraints
   Step size:    0.3002118
   Cos(theta):   0.7409326
   Final level shift:  -1.0520305E+00
  
  gradient maximum:        6.5232E-01 .  (  2.2500E-03 )
  gradient rms:            8.9267E-02 .  (  1.5000E-03 )
  displacement maximum:    8.0817E-02 .  (  9.0000E-03 )
  displacement rms:        1.2054E-02 .  (  6.0000E-03 )
  
  predicted energy change:  -1.9002E-01
  step size:     0.21731
  trust radius:  0.30000
  
  molecular structure not yet converged...
  
  center of mass moved by:
     x:     5.4248E-02     y:    -2.5897E-01     z:     8.8705E-02
  
  new geometry: 
                                   angstroms
  atom               x                 y                 z
  P1           -0.0329288860     -0.0252096122     -0.0160948499 
  Pd2           0.0386858679     -0.2368049605      2.2484331756 
  Br3           2.3969890407      0.7456190751      2.4248914387 
  C73          -4.2061574190     -2.3434233802      2.3855823135 
  C74          -3.0753862395     -3.1124369103      2.1710099881 
  C75          -1.8323298268     -2.4813150441      2.1500376168 
  C76          -1.7252035338     -1.1022246499      2.3586551183 
  C77          -2.8849050147     -0.3531105827      2.5666395087 
  C78          -4.1358544395     -0.9735935040      2.5838048662 
  F79          -5.4163489297     -2.9456181240      2.3922939047 
  H80          -3.1759042335     -4.1837659193      2.0256906624 
  H81          -0.9416878972     -3.0706977260      1.9603946444 
  H82          -2.8068533536      0.7192893322      2.6937851187 
  H83          -5.0512929570     -0.4143831846      2.7396906908 
  C3            1.7285594487      0.0080353965     -0.7333822889 
  C4           -0.9293139453     -1.5539414951     -0.6632072315 
  C5           -0.9740628116      1.4484533611     -0.7486854784 
  C6            1.9020975988      0.8829022510     -1.9933201856 
  C7            3.3816422909      1.0682203558     -2.3608860912 
  C8            4.0558881768     -0.2870775434     -2.6014475638 
  C9            3.8895105225     -1.1873722660     -1.3722912644 
  C10           2.4099552994     -1.3517120804     -0.9942827068 
  C11          -2.4500172852     -1.2963612494     -0.6994212285 
  C12          -3.2463949294     -2.5505831713     -1.0834381841 
  C13          -2.8078207350     -3.0716602663     -2.4539572913 
  C14          -1.2993207066     -3.3307848023     -2.4709232856 
  C15          -0.5329190118     -2.0614038845     -2.0715727267 
  C16          -1.1869597186      1.1538748944     -2.1138012857 
  C17          -1.9229505629      1.9461185412     -2.9954067992 
  C18          -2.4962429218      3.1097215111     -2.4977416795 
  C19          -2.3036362800      3.4194161498     -1.1516818982 
  C20          -1.5703829618      2.6468309196     -0.2218308730 
  C21          -1.5200437898      3.2615812625      1.0817733077 
  C22          -2.7185236743      3.5653994620      1.8083362326 
  C23          -2.6265618499      4.2185054617      3.0482552852 
  C24          -1.4159851239      4.6168187073      3.6179243360 
  C25          -0.2647905825      4.3582493095      2.8705213906 
  C26          -0.2844900032      3.7080654146      1.6258528673 
  C27           0.9835694344      3.7657978450      0.7903957187 
  C28           0.8057143300      4.7771446767     -0.3568879057 
  C29          -4.1549336886      3.2246208998      1.3958630404 
  C30          -4.8895301165      2.3361603803      2.4242420116 
  C31          -1.3513504544      5.3048816111      4.9654041477 
  C32           2.3015940115      4.0950045147      1.5156587099 
  C33          -5.0000407656      4.4872465130      1.1415648192 
  C34          -1.8276108366      4.3574059891      6.0773573180 
  C35          -2.1515119235      6.6168134914      4.9671541244 
  H36           2.3569897567      0.5036308612      0.0338706091 
  H37           1.3812179041      0.4155151941     -2.8564543304 
  H38           1.4575913988      1.8885244341     -1.8286652661 
  H39           3.9089300440      1.6017344909     -1.5380047722 
  H40           3.4688107335      1.7058772904     -3.2694535433 
  H41           3.5974897786     -0.7792007271     -3.4888229123 
  H42           5.1362966424     -0.1432522969     -2.8288215618 
  H43           4.4465106722     -0.7491084731     -0.5135029031 
  H44           4.3378634369     -2.1868139747     -1.5716444507 
  H45           2.3535535329     -2.0007004947     -0.0958818029 
  H46           1.8989563042     -1.8839908135     -1.8198724775 
  H47          -0.6731243586     -2.3908412881      0.0187178788 
  H48          -2.8129871311     -0.9257288763      0.2780428482 
  H49          -2.6723325191     -0.4956195156     -1.4384104237 
  H50          -4.3350322607     -2.3182970429     -1.1002553561 
  H51          -3.0927727794     -3.3347860364     -0.3109680788 
  H52          -3.3563869551     -4.0083078977     -2.7020051701 
  H53          -3.0658259957     -2.3232292412     -3.2371091781 
  H54          -0.9836698361     -3.6634865954     -3.4856153832 
  H55          -1.0523774711     -4.1572833749     -1.7668617184 
  H56          -0.7534452518     -1.2896538578     -2.8369338610 
  H57           0.5496989812     -2.2717083543     -2.1418303955 
  H58          -0.7800697349      0.2368157870     -2.5550731187 
  H59          -2.0484491770      1.6586905185     -4.0499247768 
  H60          -3.0764522619      3.7736531994     -3.1559017661 
  H61          -2.7342742797      4.3784034483     -0.8418128411 
  H62          -3.5395172748      4.4362584392      3.6156241315 
  H63           0.6782423490      4.7074455589      3.3047320152 
  H64           1.1264868833      2.7762481567      0.3453202316 
  H65           0.6398456240      5.7997451120      0.0445083850 
  H66          -0.0589760869      4.5319704760     -1.0083567037 
  H67           1.7045132623      4.8081003433     -1.0099197280 
  H68          -4.1723662710      2.6119474472      0.4703573360 
  H69          -5.0657393088      2.8445656435      3.3951111128 
  H70          -5.8900024961      2.0365112902      2.0418759390 
  H71          -4.3252289838      1.4056498994      2.6314363169 
  H72          -0.2907950049      5.5660532653      5.1852428191 
  H73           2.3322592217      5.1521756262      1.8596750432 
  H74           3.1681408286      3.9609003482      0.8328606820 
  H75           2.4675451602      3.4166172330      2.3780734312 
  H76          -5.1795515286      5.0584508905      2.0766477797 
  H77          -5.9946752768      4.2211629405      0.7234800153 
  H78          -4.5148719271      5.1855594036      0.4281863927 
  H79          -2.8956578116      4.0793523502      5.9518970063 
  H92          -1.7207809113      4.8293078720      7.0779840938 
  H93          -1.2313150169      3.4193910318      6.0802928829 
  H94          -3.2374775658      6.4418469584      4.8144916893 
  H95          -1.7995309714      7.2958001325      4.1609140794 
  H84          -2.0359304625      7.1522205848      5.9342237055 
   
 
  bond lengths (angstroms):
 
 P1      -Pd2     :   2.275519      P1      -C3      :   1.902222
 P1      -C4      :   1.886606      P1      -C5      :   1.895812
 Pd2     -Br3     :   2.560837      Pd2     -C76     :   1.967843
 C73     -C74     :   1.384221      C73     -C78     :   1.385882
 C73     -F79     :   1.351757      C74     -C75     :   1.394254
 C74     -H80     :   1.085803      C75     -C76     :   1.398888
 C75     -H81     :   1.084702      C76     -C77     :   1.396187
 C77     -C78     :   1.396484      C77     -H82     :   1.082728
 C78     -H83     :   1.083995      C3      -C6      :   1.543681
 C3      -C10     :   1.543140      C3      -H36     :   1.108700
 C4      -C11     :   1.542789      C4      -C15     :   1.548593
 C4      -H47     :   1.109530      C5      -C16     :   1.412672
 C5      -C20     :   1.438500      C6      -C7      :   1.535741
 C6      -H37     :   1.111201      C6      -H38     :   1.111743
 C7      -C8      :   1.532746      C7      -H39     :   1.113465
 C7      -H40     :   1.113418      C8      -C9      :   1.532657
 C8      -H41     :   1.113440      C8      -H42     :   1.113403
 C9      -C10     :   1.535898      C9      -H43     :   1.113482
 C9      -H44     :   1.113394      C10     -H45     :   1.109726
 C10     -H46     :   1.107266      C11     -C12     :   1.534522
 C11     -H48     :   1.106595      C11     -H49     :   1.112078
 C12     -C13     :   1.530422      C12     -H50     :   1.113270
 C12     -H51     :   1.111433      C13     -C14     :   1.530688
 C13     -H52     :   1.113446      C13     -H53     :   1.113572
[...]
    H36      Z     0.00005   0.00023   0.00013  -0.00015   0.00117  -0.00001
    H37      X    -0.00001  -0.00014   0.00030   0.00010   0.00423   0.00031
    H37      Y    -0.00002  -0.00014   0.00053   0.00010   0.00803   0.00053
    H37      Z    -0.00002  -0.00014   0.00043   0.00009   0.00603   0.00039
    H38      X    -0.00002  -0.00003  -0.00066   0.00006  -0.00679  -0.00028
    H38      Y     0.00017   0.00013   0.00303  -0.00025   0.02460   0.00087
    H38      Z    -0.00006  -0.00004  -0.00098   0.00007  -0.00748  -0.00026
    H39      X    -0.00003  -0.00004  -0.00006  -0.00001   0.00061  -0.00004
    H39      Y    -0.00003  -0.00004  -0.00007  -0.00001   0.00009  -0.00007
    H39      Z    -0.00002  -0.00002  -0.00007  -0.00002   0.00007  -0.00005
    H40      X    -0.00001   0.00003  -0.00005  -0.00004   0.00011  -0.00006
    H40      Y    -0.00000   0.00001  -0.00003  -0.00001  -0.00009  -0.00000
    H40      Z     0.00007  -0.00016   0.00050   0.00018   0.00025   0.00018
    H41      X     0.00000  -0.00008   0.00006   0.00004   0.00018   0.00001
    H41      Y    -0.00001  -0.00009   0.00006   0.00004   0.00032   0.00001
    H41      Z    -0.00001  -0.00007   0.00004   0.00003   0.00016   0.00001
    H42      X    -0.00013   0.00012  -0.00034  -0.00014  -0.00018  -0.00014
    H42      Y     0.00003  -0.00002   0.00009   0.00002   0.00028   0.00004
    H42      Z     0.00004  -0.00005   0.00010   0.00005  -0.00003   0.00005
    H43      X    -0.00003  -0.00004  -0.00004   0.00004   0.00004  -0.00002
    H43      Y    -0.00004  -0.00001  -0.00006   0.00002   0.00002  -0.00001
    H43      Z    -0.00002  -0.00001  -0.00003   0.00002   0.00003  -0.00000
    H44      X    -0.00004   0.00004  -0.00011  -0.00004   0.00005  -0.00001
    H44      Y     0.00011  -0.00015   0.00023   0.00013   0.00004   0.00004
    H44      Z    -0.00003   0.00004  -0.00005  -0.00004  -0.00006  -0.00001
    H45      X     0.00002  -0.00004   0.00002   0.00001   0.00004   0.00003
    H45      Y     0.00000  -0.00002  -0.00002  -0.00005   0.00012  -0.00004
    H45      Z    -0.00005  -0.00008   0.00004   0.00011  -0.00078   0.00024
    H46      X     0.00001  -0.00019   0.00015   0.00011   0.00006   0.00002
    H46      Y     0.00001  -0.00026   0.00017   0.00013   0.00011   0.00002
    H46      Z     0.00000  -0.00015   0.00009   0.00008   0.00003   0.00001
    H47      X    -0.00000   0.00024  -0.00002  -0.00016  -0.00123  -0.00006
    H47      Y     0.00008  -0.00035   0.00042   0.00026   0.00198  -0.00007
    H47      Z    -0.00002  -0.00013  -0.00020  -0.00023  -0.00195  -0.00013
    H48      X     0.00001   0.00007  -0.00004  -0.00027  -0.00003  -0.00007
    H48      Y     0.00004  -0.00050  -0.00012  -0.00107  -0.00040  -0.00027
    H48      Z     0.00014  -0.00073  -0.00029  -0.00243  -0.00127   0.00003
    H49      X    -0.00008   0.00019  -0.00019   0.00004  -0.00072   0.00030
    H49      Y     0.00010  -0.00043   0.00016  -0.00001   0.00111  -0.00042
    H49      Z    -0.00013   0.00022  -0.00011   0.00020  -0.00062   0.00054
    H50      X     0.00001   0.00068   0.00042   0.00074   0.00005   0.00019
    H50      Y    -0.00001  -0.00025  -0.00009  -0.00017  -0.00001  -0.00004
    H50      Z    -0.00000  -0.00015  -0.00014  -0.00021  -0.00003  -0.00007
    H51      X    -0.00003   0.00076  -0.00000   0.00008  -0.00014   0.00007
    H51      Y     0.00007  -0.00113   0.00003  -0.00016   0.00031  -0.00016
    H51      Z    -0.00006   0.00135  -0.00001   0.00011  -0.00030   0.00010
    H52      X     0.00007  -0.00021   0.00019   0.00008   0.00020   0.00007
    H52      Y     0.00011  -0.00028   0.00027   0.00014   0.00036   0.00012
    H52      Z    -0.00000  -0.00002  -0.00002   0.00000  -0.00010   0.00001
    H53      X    -0.00002   0.00026   0.00003   0.00005  -0.00049   0.00008
    H53      Y     0.00002  -0.00032  -0.00009  -0.00007   0.00041  -0.00011
    H53      Z    -0.00003   0.00043   0.00008   0.00009  -0.00046   0.00014
    H54      X     0.00001   0.00000   0.00004   0.00003  -0.00007   0.00003
    H54      Y     0.00004   0.00009   0.00012   0.00006  -0.00020   0.00010
    H54      Z     0.00009   0.00039   0.00025   0.00009  -0.00031   0.00018
    H55      X    -0.00002   0.00033  -0.00009   0.00002  -0.00074  -0.00001
    H55      Y     0.00004  -0.00050   0.00029  -0.00002   0.00198   0.00004
    H55      Z    -0.00004   0.00034  -0.00021   0.00001  -0.00140  -0.00004
    H56      X    -0.00005   0.00013  -0.00142   0.00006  -0.00827  -0.00029
    H56      Y     0.00005  -0.00020   0.00262  -0.00009   0.01907   0.00082
    H56      Z    -0.00007   0.00025  -0.00254   0.00008  -0.01773  -0.00074
    H57      X    -0.00012  -0.00016  -0.00157  -0.00005  -0.01015  -0.00076
    H57      Y     0.00003   0.00006   0.00037   0.00001   0.00276   0.00021
    H57      Z     0.00005   0.00008   0.00065   0.00001   0.00395   0.00031
    H58      X    -0.00014   0.00041   0.02090   0.00008   0.24940   0.01398
    H58      Y     0.00049  -0.00125  -0.06731  -0.00029  -0.79515  -0.04464
    H58      Z     0.00037  -0.00075  -0.03949  -0.00021  -0.43701  -0.02465
    H59      X    -0.00041   0.00069   0.03019   0.00004  -0.01259  -0.00069
    H59      Y    -0.00053   0.00099   0.04175   0.00003  -0.01160  -0.00068
    H59      Z    -0.00488   0.00854   0.36795   0.00048  -0.13749  -0.00767
    H60      X    -0.00210   0.00504   0.21055   0.00018  -0.00695  -0.00058
    H60      Y     0.00484  -0.01158  -0.48353  -0.00043   0.01626   0.00131
    H60      Z    -0.00321   0.00782   0.32633   0.00028  -0.00948  -0.00086
    H61      X    -0.00204   0.00454   0.18542   0.00038  -0.00491   0.00001
    H61      Y     0.00567  -0.01238  -0.50627  -0.00106   0.01365   0.00011
    H61      Z     0.00314  -0.00702  -0.28735  -0.00056   0.00790   0.00022
    H62      X     0.00468   0.00069   0.00194   0.00053   0.00043  -0.01561
    H62      Y     0.00072   0.00005   0.00016   0.00008   0.00001  -0.00082
    H62      Z    -0.00062  -0.00022  -0.00077  -0.00029  -0.00009   0.00501
    H63      X    -0.67719  -0.00117  -0.00735   0.00486  -0.00032   0.01043
    H63      Y    -0.34070  -0.00061  -0.00376   0.00252  -0.00018   0.00570
    H63      Z    -0.57833  -0.00101  -0.00642   0.00412  -0.00021   0.00869
    H64      X    -0.00154  -0.00006   0.00018   0.00019  -0.00014   0.00057
    H64      Y    -0.00056   0.00011  -0.00040  -0.00032   0.00026  -0.00078
    H64      Z     0.00106   0.00016  -0.00024  -0.00036   0.00022  -0.00086
    H65      X     0.00161  -0.00006  -0.00100   0.00004   0.00003   0.00003
    H65      Y    -0.00348   0.00013   0.00176  -0.00015  -0.00005  -0.00030
    H65      Z    -0.00214   0.00009   0.00127  -0.00009  -0.00005  -0.00013
    H66      X    -0.00294   0.00005   0.00495  -0.00001  -0.00052  -0.00025
    H66      Y    -0.00034   0.00001   0.00069  -0.00000  -0.00007  -0.00004
    H66      Z    -0.00443   0.00009   0.00797   0.00001  -0.00078  -0.00029
    H67      X    -0.00146   0.00001   0.00219   0.00029  -0.00009   0.00097
    H67      Y    -0.00065  -0.00001   0.00036   0.00011  -0.00001   0.00037
    H67      Z     0.00069   0.00001  -0.00031  -0.00012   0.00000  -0.00042
    H68      X    -0.00021   0.00005  -0.00036   0.00034   0.00012   0.00038
    H68      Y     0.00023  -0.00003   0.00013  -0.00035   0.00000  -0.00075
    H68      Z     0.00058  -0.00009   0.00047  -0.00078  -0.00008  -0.00145
    H69      X    -0.00049   0.00016   0.00028   0.00061   0.00001   0.00032
    H69      Y     0.00028  -0.00012  -0.00018  -0.00048  -0.00003  -0.00019
    H69      Z     0.00047  -0.00018  -0.00039  -0.00029  -0.00001  -0.00028
    H70      X     0.00030  -0.00020   0.00028  -0.00115  -0.00024   0.00013
    H70      Y     0.00026  -0.00011   0.00028  -0.00077  -0.00015  -0.00018
    H70      Z     0.00043  -0.00021   0.00034  -0.00136  -0.00024   0.00038
    H71      X     0.00001   0.00031   0.00093  -0.00287  -0.00008   0.00143
    H71      Y    -0.00003  -0.00035  -0.00124   0.00315   0.00017  -0.00260
    H71      Z    -0.00001   0.00028   0.00082  -0.00133  -0.00004   0.00116
    H72      X    -0.01055   0.00003  -0.00015   0.00030  -0.00000   0.00067
    H72      Y    -0.00552   0.00002  -0.00009  -0.00001  -0.00001   0.00042
    H72      Z    -0.00934  -0.00001  -0.00013   0.00037  -0.00001   0.00068
    H73      X     0.00667  -0.00005   0.00013   0.00001  -0.00001  -0.00005
    H73      Y    -0.02140   0.00028  -0.00056  -0.00029   0.00012  -0.00046
    H73      Z    -0.01580   0.00016  -0.00043  -0.00014   0.00009  -0.00018
    H74      X     0.01800  -0.00012  -0.00028   0.00028   0.00005   0.00081
    H74      Y     0.00103  -0.00003   0.00005   0.00004  -0.00001   0.00005
    H74      Z    -0.00968   0.00005   0.00008  -0.00010  -0.00002  -0.00026
    H75      X     0.00009   0.00002   0.00002  -0.00002  -0.00000  -0.00005
    H75      Y     0.00705   0.00023  -0.00112  -0.00020   0.00006  -0.00019
    H75      Z    -0.00480  -0.00024   0.00097   0.00023  -0.00007   0.00027
    H76      X    -0.00017  -0.00003  -0.00199   0.00008   0.00004   0.00020
    H76      Y     0.00020   0.00003   0.00235  -0.00011  -0.00004  -0.00013
    H76      Z     0.00026   0.00008   0.00427  -0.00013  -0.00010  -0.00015
    H77      X     0.00022  -0.00017  -0.00224   0.00003  -0.00007  -0.00063
    H77      Y     0.00017  -0.00008  -0.00119   0.00002  -0.00001  -0.00009
    H77      Z     0.00018  -0.00013  -0.00172   0.00004  -0.00005  -0.00050
    H78      X     0.00017  -0.00028  -0.01036   0.00028   0.00034  -0.00010
    H78      Y     0.00026  -0.00039  -0.01412   0.00045   0.00048  -0.00024
    H78      Z    -0.00018   0.00031   0.01104  -0.00035  -0.00038   0.00020
    H79      X    -0.00397   0.00033  -0.00002  -0.00030   0.00001  -0.00025
    H79      Y    -0.00186   0.00005   0.00000   0.00105   0.00001  -0.00019
    H79      Z    -0.00125   0.00011   0.00001  -0.00005  -0.00001   0.00002
    H92      X     0.00042  -0.00004   0.00004  -0.00050  -0.00003   0.00011
    H92      Y    -0.00013   0.00009  -0.00004   0.00051   0.00004  -0.00046
    H92      Z    -0.00231   0.00029  -0.00022   0.00223   0.00013  -0.00008
    H93      X    -0.00072  -0.00009   0.00013  -0.00543  -0.00019   0.00305
    H93      Y     0.00118   0.00003  -0.00012   0.00543   0.00018  -0.00281
    H93      Z     0.00018  -0.00004   0.00001   0.00040  -0.00002   0.00020
    H94      X    -0.00450   0.00001   0.00003   0.00004   0.00001  -0.00026
    H94      Y    -0.00119  -0.00000   0.00002   0.00000   0.00000  -0.00011
    H94      Z    -0.00163   0.00001   0.00002  -0.00002   0.00000  -0.00021
    H95      X    -0.00020   0.00001  -0.00001  -0.00003   0.00001  -0.00011
    H95      Y    -0.00128   0.00003  -0.00003  -0.00001   0.00003  -0.00066
    H95      Z     0.00091  -0.00002   0.00003   0.00001  -0.00002   0.00029
    H84      X     0.00064  -0.00001   0.00004  -0.00004  -0.00001  -0.00027
    H84      Y    -0.00087   0.00002  -0.00005   0.00007   0.00001   0.00038
    H84      Z    -0.00211   0.00008  -0.00014   0.00014   0.00006   0.00087
  
  Number of imaginary frequencies:   0
   
  Writing vibrational animation data to ox_add_L_trans_L1_PL146.vib
  Writing IR vibrational spectrum data to ox_add_L_trans_L1_PL146_vib.spm
  rotational symmetry number:  1

  rotational temperatures (K):      0.003680      0.002823      0.002639
   
  The Quasi-Harmonic approximation will be applied to compute
  vibrational constributions to thermodynamic properties.
  Frequencies will be adjusted to a minimum value of  100.00 cm^-1.

  vibrational temperatures:
       mode:      1        2        3        4        5        6
  temp. (K):   143.88   143.88   143.88   143.88   143.88   143.88
   
       mode:      7        8        9       10       11       12
  temp. (K):   143.88   143.88   143.88   143.88   143.88   143.88
   
       mode:     13       14       15       16       17       18
  temp. (K):   143.88   143.88   143.88   143.88   146.49   151.27
   
       mode:     19       20       21       22       23       24
  temp. (K):   166.37   173.87   184.38   209.70   221.19   225.24
   
       mode:     25       26       27       28       29       30
  temp. (K):   232.63   242.29   246.28   274.16   275.60   279.63
   
       mode:     31       32       33       34       35       36
  temp. (K):   285.31   298.49   314.95   326.62   348.72   357.63
   
       mode:     37       38       39       40       41       42
  temp. (K):   363.95   366.49   377.31   386.76   400.45   411.03
   
       mode:     43       44       45       46       47       48
  temp. (K):   413.35   421.49   433.82   436.18   449.94   482.76
   
       mode:     49       50       51       52       53       54
  temp. (K):   490.71   497.87   503.44   505.29   525.63   552.86
   
       mode:     55       56       57       58       59       60
  temp. (K):   564.51   575.38   591.59   597.02   609.27   633.58
   
       mode:     61       62       63       64       65       66
  temp. (K):   649.72   651.13   655.77   682.20   699.05   719.59
   
       mode:     67       68       69       70       71       72
  temp. (K):   730.24   746.80   751.36   760.47   779.15   787.26
   
       mode:     73       74       75       76       77       78
  temp. (K):   813.26   845.25   853.59   876.00   906.62   925.96
   
       mode:     79       80       81       82       83       84
  temp. (K):   935.27   961.13   971.74  1012.08  1035.59  1076.55
   
       mode:     85       86       87       88       89       90
  temp. (K):  1092.94  1115.59  1142.70  1157.62  1174.52  1182.00
   
       mode:     91       92       93       94       95       96
  temp. (K):  1187.58  1196.68  1203.11  1208.97  1212.41  1213.33
   
       mode:     97       98       99      100      101      102
  temp. (K):  1246.70  1252.31  1263.98  1306.93  1312.75  1314.80
   
       mode:    103      104      105      106      107      108
  temp. (K):  1319.15  1323.79  1328.14  1330.12  1340.15  1360.81
   
       mode:    109      110      111      112      113      114
  temp. (K):  1361.33  1365.15  1366.73  1371.91  1373.17  1387.90
   
       mode:    115      116      117      118      119      120
  temp. (K):  1390.88  1399.91  1412.02  1412.73  1416.80  1438.85
   
       mode:    121      122      123      124      125      126
  temp. (K):  1470.89  1475.83  1478.61  1481.32  1483.09  1521.89
   
       mode:    127      128      129      130      131      132
  temp. (K):  1529.22  1535.67  1555.58  1559.59  1560.78  1570.44
   
       mode:    133      134      135      136      137      138
  temp. (K):  1595.28  1596.29  1599.26  1603.99  1606.09  1607.65
   
       mode:    139      140      141      142      143      144
  temp. (K):  1620.14  1632.10  1636.43  1641.96  1648.90  1658.48
   
       mode:    145      146      147      148      149      150
  temp. (K):  1660.89  1669.25  1685.84  1715.24  1722.11  1739.29
   
       mode:    151      152      153      154      155      156
  temp. (K):  1742.76  1754.11  1756.65  1766.22  1803.10  1818.40
   
       mode:    157      158      159      160      161      162
  temp. (K):  1827.06  1848.67  1859.49  1868.24  1875.95  1878.92
   
       mode:    163      164      165      166      167      168
  temp. (K):  1884.65  1888.38  1891.92  1893.34  1897.87  1903.07
   
       mode:    169      170      171      172      173      174
  temp. (K):  1908.48  1919.30  1928.99  1930.36  1940.01  1943.54
   
       mode:    175      176      177      178      179      180
  temp. (K):  1944.40  1954.65  1961.94  1972.27  1979.11  1989.54
   
       mode:    181      182      183      184      185      186
  temp. (K):  1991.37  1998.04  2007.54  2010.53  2016.74  2018.60
   
       mode:    187      188      189      190      191      192
  temp. (K):  2020.20  2022.28  2024.90  2048.00  2051.73  2052.44
   
       mode:    193      194      195      196      197      198
  temp. (K):  2052.80  2079.55  2081.88  2083.48  2109.49  2132.60
   
       mode:    199      200      201      202      203      204
  temp. (K):  2157.67  2159.09  2168.55  2174.23  2174.52  2176.90
   
       mode:    205      206      207      208      209      210
  temp. (K):  2177.31  2178.51  2179.05  2181.42  2183.55  2183.90
   
       mode:    211      212      213      214      215      216
  temp. (K):  2186.64  2189.24  2190.70  2194.94  2197.12  2203.93
   
       mode:    217      218      219      220      221      222
  temp. (K):  2204.44  2205.40  2206.04  2208.94  2214.86  2217.44
   
       mode:    223      224      225      226      227      228
  temp. (K):  2218.55  2331.85  2336.46  2358.31  2372.12  2376.67
   
       mode:    229      230      231      232      233      234
  temp. (K):  2403.59  4350.39  4357.78  4363.46  4370.44  4371.63
   
       mode:    235      236      237      238      239      240
  temp. (K):  4372.20  4377.06  4378.31  4380.34  4381.40  4384.36
   
       mode:    241      242      243      244      245      246
  temp. (K):  4386.18  4387.75  4389.43  4392.16  4397.36  4398.51
   
       mode:    247      248      249      250      251      252
  temp. (K):  4402.04  4415.73  4422.65  4438.64  4439.40  4440.45
   
       mode:    253      254      255      256      257      258
  temp. (K):  4444.43  4444.98  4456.53  4459.03  4460.49  4477.83
   
       mode:    259      260      261      262      263      264
  temp. (K):  4481.63  4487.18  4489.19  4489.82  4497.95  4498.33
   
       mode:    265      266      267      268      269      270
  temp. (K):  4501.03  4503.53  4509.79  4529.21  4535.58  4546.01
   
       mode:    271      272      273      274      275      276
  temp. (K):  4546.45  4548.15  4587.59  4594.51  4595.05  4613.60
   
       mode:    277      278      279      280      281      282
  temp. (K):  4621.84  4628.05  4628.76  4646.06  4690.40  4691.09
   
   
  Thermodynamic properties calculated assuming an ideal gas

  In the table below, the units for temperature
  are kelvins, the units for U, H, and G are
  kcal/mol and the units for Cv and S are cal/(mol K)

  The zero point energy (ZPE):    529.067 kcal/mol
  is not included in U, H, or G in the table below
  
 
  =============================================================================
  Thermodynamic properties for P = 1.00E+00 atm, calculated at   1 temperatures


  T =   298.15 K, P = 1.00E+00 atm
   
                  U         Cv          S          H          G        ln(Q)
              =========  =========  =========  =========  =========  =========
  trans.          0.889      2.981     45.749      1.481    -12.159   20.52160
  rot.            0.889      2.981     38.402      0.889    -10.561   17.82475
  vib.           25.594    167.961    156.286     25.594    -21.002   35.44802
  elec.           0.000      0.000      0.000      0.000      0.000    0.00000
  ----------------------------------------------------------------------------
  total          27.372    173.923    240.437     27.964    -43.722   73.79438
   
   Total internal energy, Utot(SCFE + ZPE + U):   -2097.985113 hartrees
   Total enthalpy, Htot (Utot + nRT), with n=1:   -2097.984169 hartrees
    Total Gibbs free energy, Gtot (Htot - T*S):   -2098.098408 hartrees
   
  end of program freq
   
 Time(freq)  user:       0.453  user+sys:       0.453  wallclock:       0.726
  
  start of program post
  
  Writing input files for PBF
  end of program post
   
 Time(post)  user:       0.187  user+sys:       0.187  wallclock:       0.205

 Total cpu seconds     user:  154918.980   user+sys:  154918.980
  
 Total elapsed time:    88143 seconds

Job ox_add_L_trans_L1_PL146 completed on bp1-compute056.data.bp.acrc.priv at Thu Mar 27 17:15:20 2025
