Job ox_add_Br_trans_L1_PL146_2 started on bp1-compute051.data.bp.acrc.priv at Thu Apr  3 11:09:05 2025
jobid: bp1-compute051-0-67ee5e39

  +--------------------------------------------------------------------+
  |  Jaguar version 12.5, release 138                                  |
  |                                                                    |
  |  Copyright Schrodinger, Inc.                                       |
  |  All Rights Reserved.                                              |
  |                                                                    |
  |  The following have contributed to Jaguar (listed alphabetically): |
  |  Ty Balduf, Mike Beachy, Chandler Bennett, Art Bochevarov,         |
  |  Dale Braden, Yixiang Cao, Alan Chien, Chris Cortis,               |
  |  Rich Friesner, Jim Furness, Bill Goddard, Hod Greeley,            |
  |  Tom Hughes, Leif Jacobson, Jean-Marc Langlois, Daniel Levine,     |
  |  Rob Murphy, Dean Philipp, Tom Pollard, Murco Ringnalda,           |
  |  Daniel Mainz, Pablo Videla, Mark Watson, Haoyu Yu.                |
  |                                                                    |
  |  Use of this program should be acknowledged in publications as:    |
  |                                                                    |
  |  Jaguar, version 12.5, Schrodinger, Inc., New York, NY, 2024.      |
  |                                                                    |
  |  A. D. Bochevarov, E. Harder, T. F. Hughes, J. R. Greenwood,       |
  |  D. A. Braden, D. M. Philipp, D. Rinaldo, M. D. Halls,             |
  |  J. Zhang, R. A. Friesner, "Jaguar: A High-Performance Quantum     |
  |  Chemistry Software Program with Strengths in Life and Materials   |
  |  Sciences", Int. J. Quantum Chem., 2013, 113(18), 2110-2142.       |
  +--------------------------------------------------------------------+
  
  start of program pre
  
  Job name: ox_add_Br_trans_L1_PL146_2
  Executables used: /software/local/apps/schrodinger2024-3/jaguar-v12.5/bin/Linux-x86_64
  Temporary files : /tmp/ar21627/ox_add_Br_trans_L1_PL146_2#bp1-compute051-0-67ee5e39
  Basis file : using default basis file from /software/local/apps/schrodinger2024-3
  Maestro file (input):  ox_add_Br_trans_L1_PL146_2.mae
  Maestro file (output): ox_add_Br_trans_L1_PL146_2.01.mae
  
 Contents of input file: &gen and (if present) &atomic sections only
 ----------------Contents start----------------
&gen
dftname=b3pw91-d3
basis=6-31G*
numd=5
ip11=2
iaccg=3
isolv=2
igeopt=1
solvent=benzene
ifreq=1
&
&atomic
atom basis
Pd2 lacv3p*
Br3 lacv3p*
&
 -----------------Contents end-----------------
 
  PS calculation requested. Using PS version of 6-31g*
  basis set:               non_standard                    
  net molecular charge:    0
  multiplicity:            1
  
  Using up to   4 threads per process
  
  This run will use ECP on            2  atoms
  number of basis functions....          724
  
 Input geometry:
                                   angstroms
  atom               x                 y                 z
  P1           -0.0692503887      0.0113239065     -0.0901491791 
  Pd2          -0.2269503428      0.5170487266      2.2474982375 
  Br3           0.8735386686     -1.6072803377      3.0692627786 
  C4           -0.3708497978      1.6578813550      6.9202450953 
  C5            0.7622501501      1.9712206910      6.1828992094 
  C6            0.8087410372      1.6020186863      4.8358516598 
  C7           -0.2689520412      0.9485859067      4.2281514812 
  C8           -1.3750547489      0.6085671568      5.0134669616 
  C9           -1.4386061524      0.9691959966      6.3625669477 
  F10          -0.4322248073      2.0261163307      8.2207054387 
  H11           1.5901445313      2.4883269468      6.6617241226 
  H12           1.7017367209      1.8345774703      4.2647273506 
  H13          -2.2073669196      0.0596850168      4.5844233883 
  H14          -2.2980303855      0.7200395842      6.9798605032 
  C15           1.7219226248     -0.0139793021     -0.6694581326 
  C16          -0.9696624007     -1.4600338389     -0.8143249435 
  C17          -0.7992292204      1.4419475231     -0.9712953670 
  C18           1.9937567635      0.4686728036     -2.1005842933 
  C19           3.5028834848      0.5517150297     -2.3665205921 
  C20           4.2021981024     -0.7823699698     -2.1033307587 
  C21           3.9084313138     -1.2781050967     -0.6865791738 
  C22           2.4004232762     -1.3721795990     -0.4283167316 
  C23          -0.7071295529     -2.7437790096     -0.0067151650 
  C24          -1.4599339645     -3.9367728666     -0.6037060864 
  C25          -2.9654051126     -3.6711924529     -0.6595251613 
  C26          -3.2560099374     -2.3804926459     -1.4280655789 
  C27          -2.4866823040     -1.1904480039     -0.8444738837 
  C28          -1.0228299744      1.4808159484     -2.3573863063 
  C29          -1.5577460574      2.6122897985     -2.9652235341 
  C30          -1.8722829346      3.7318825827     -2.1908775111 
  C31          -1.6687081686      3.6945139012     -0.8151090309 
  C32          -1.1459100404      2.5502570095     -0.1908593694 
  C33          -1.0320888178      2.6239783257      1.3094937397 
  C34          -2.2389148042      2.5034196105      2.0648225653 
  C35          -2.3405964441      3.1603120531      3.2937382212 
  C36          -1.2961888867      3.9259359728      3.8105284495 
  C37          -0.0895314825      3.9725321541      3.0969144597 
  C38           0.0705550169      3.3476078011      1.8669017843 
  C39           1.3561808495      3.5117758157      1.0722847590 
  C40           1.5595910780      4.9740551615      0.6538880276 
  C41          -3.4435300402      1.7842958891      1.4773938634 
  C42          -3.8971564625      0.6094864398      2.3519513047 
  C43          -1.4004487223      4.7048900933      5.1104122752 
  C44           2.5758930601      2.9667120924      1.8220895857 
  C45          -4.5932532114      2.7661434852      1.2102066561 
  C46          -2.6488786200      4.3948351846      5.9346382689 
  C47          -1.3047201276      6.2158826385      4.8347561713 
  H48           2.1839057135      0.7086434673      0.0196324710 
  H49           1.5338697852     -0.2279572485     -2.8176341672 
  H50           1.5417987519      1.4506943091     -2.2731437169 
  H51           3.9346762563      1.3233643913     -1.7116798237 
  H52           3.6783888086      0.8839859184     -3.3980056766 
  H53           3.8423851539     -1.5276473081     -2.8283732350 
  H54           5.2839300428     -0.6851012050     -2.2637442811 
  H55           4.3546486987     -0.5880973748      0.0446518329 
  H56           4.3729314889     -2.2574248787     -0.5162513882 
  H57           2.2142108566     -1.7171852091      0.5936513073 
  H58           1.9691837136     -2.1150182081     -1.1149199025 
  H59          -0.6083148291     -1.6001299641     -1.8458720539 
  H60           0.3599374258     -2.9690800783      0.0560872989 
  H61          -1.0370438021     -2.5792332778      1.0269520554 
  H62          -1.2488066258     -4.8350306221     -0.0088699224 
  H63          -1.0843013232     -4.1356227795     -1.6197348920 
  H64          -3.4932654788     -4.5182389904     -1.1171681897 
  H65          -3.3511014976     -3.5752394670      0.3668062791 
  H66          -4.3317633383     -2.1594674182     -1.4219148810 
  H67          -2.9678402629     -2.5100196789     -2.4828849490 
  H68          -2.8267298313     -1.0082371345      0.1856969466 
  H69          -2.7180268496     -0.2865454045     -1.4177969567 
  H70          -0.7805913414      0.6137382992     -2.9675347723 
  H71          -1.7265521282      2.6227571657     -4.0401276332 
  H72          -2.2838308477      4.6248066945     -2.6566749268 
  H73          -1.9253775086      4.5551165293     -0.2006332574 
  H74          -3.2673903028      3.0704276054      3.8514110544 
  H75           0.7468774124      4.5250712142      3.5208635176 
  H76           1.2487133511      2.9250986409      0.1528536462 
  H77           1.6765351979      5.6248756525      1.5287582483 
  H78           0.7022312740      5.3350178263      0.0752062935 
  H79           2.4584700196      5.0770796268      0.0330448479 
  H80          -3.1385219312      1.3673536638      0.5115202180 
  H81          -4.1919093769      0.9360762550      3.3566987546 
  H82          -4.7583761899      0.1046392559      1.8966353746 
  H83          -3.0890696325     -0.1241544030      2.4592914881 
  H84          -0.5260331549      4.4129139768      5.7101794723 
  H85           2.7580967363      3.5176794896      2.7529396145 
  H86           3.4769903190      3.0553190172      1.2022434193 
  H87           2.4354795828      1.9092664588      2.0771385951 
  H88          -4.9626386486      3.2119600427      2.1419998674 
  H89          -5.4323852501      2.2502664370      0.7271089178 
  H90          -4.2691319733      3.5799039300      0.5512735965 
  H91          -3.5617652775      4.7264973938      5.4221302447 
  H92          -2.6018255787      4.9201967224      6.8954823859 
  H93          -2.7332785534      3.3229150689      6.1399455208 
  H94          -2.1606763299      6.5509681724      4.2349392405 
  H95          -0.3911161725      6.4764587267      4.2881460251 
  H96          -1.3072226228      6.7792449461      5.7760513807 
   
  principal moments of inertia:
        amu*angstrom^2:              5673.60762              8745.91216              9473.26491
                g*cm^2:          9.42124593E-37          1.45229270E-36          1.57307245E-36
   
  rotational constants:
               cm^(-1):      0.00297124      0.00192749      0.00177950
                   GHz:      0.08907542      0.05778460      0.05334792
   
  Molecular weight:     756.21 amu
   
  Stoichiometry: PdC39PH53BrF
  Molecular Point Group: C1      
  Point Group used: C1
  
 
Number of optimization coordinates:   320
Number of independent coordinates:    320
Number of non-redundant coordinates:  282
Number of frozen coordinates:           0
Number of harmonic constraints:         0
 
Number of geometric degrees of freedom:   282
Maximum geometric degrees of freedom:     282
 " " " " " excluding dummy atoms:         282
 
 
  bond lengths (angstroms):
 
 P1      -Pd2     :   2.396919      P1      -C15     :   1.882695
 P1      -C16     :   1.870846      P1      -C17     :   1.831931
 Pd2     -Br3     :   2.529654      Pd2     -C7      :   2.027554
 C4      -C5      :   1.387723      C4      -C9      :   1.387586
 C4      -F10     :   1.352982      C5      -C6      :   1.397501
 C5      -H11     :   1.087236      C6      -C7      :   1.399177
 C6      -H12     :   1.085222      C7      -C8      :   1.398498
 C8      -C9      :   1.397914      C8      -H13     :   1.085400
 C9      -H14     :   1.087079      C15     -C18     :   1.534591
 C15     -C22     :   1.537277      C15     -H48     :   1.100208
 C16     -C23     :   1.539207      C16     -C27     :   1.541082
 C16     -H59     :   1.101948      C17     -C28     :   1.404548
 C17     -C32     :   1.399149      C18     -C19     :   1.534628
 C18     -H49     :   1.100432      C18     -H50     :   1.094719
 C19     -C20     :   1.529082      C19     -H51     :   1.100320
 C19     -H52     :   1.097801      C20     -C21     :   1.529457
 C20     -H53     :   1.100268      C20     -H54     :   1.097879
 C21     -C22     :   1.532853      C21     -H55     :   1.099963
 C21     -H56     :   1.097196      C22     -H57     :   1.094588
 C22     -H58     :   1.099637      C23     -C24     :   1.531779
 C23     -H60     :   1.092399      C23     -H61     :   1.097446
 C24     -C25     :   1.529736      C24     -H62     :   1.097849
 C24     -H63     :   1.101343      C25     -C26     :   1.530036
 C25     -H64     :   1.097981      C25     -H65     :   1.100602
 C26     -C27     :   1.532531      C26     -H66     :   1.098242
 C26     -H67     :   1.101119      C27     -H68     :   1.100039
 C27     -H69     :   1.095107      C28     -C29     :   1.391343
 C28     -H70     :   1.087559      C29     -C30     :   1.397152
 C29     -H71     :   1.088129      C30     -C31     :   1.391251
 C30     -H72     :   1.087958      C31     -C32     :   1.404396
 C31     -H73     :   1.088162      C32     -C33     :   1.506469
 C33     -C34     :   1.428805      C33     -C38     :   1.431840
 C34     -C35     :   1.397169      C34     -C41     :   1.520957
 C35     -C36     :   1.394288      C35     -H74     :   1.085369
 C36     -C37     :   1.402654      C36     -C43     :   1.518992
 C37     -C38     :   1.388917      C37     -H75     :   1.088399
 C38     -C39     :   1.520264      C39     -C40     :   1.534501
 C39     -C44     :   1.531992      C39     -H76     :   1.095944
 C40     -H77     :   1.096650      C40     -H78     :   1.095551
 C40     -H79     :   1.097289      C41     -C42     :   1.533233
 C41     -C45     :   1.535343      C41     -H80     :   1.095346
 C42     -H81     :   1.096840      C42     -H82     :   1.097216
 C42     -H83     :   1.096702      C43     -C46     :   1.527763
 C43     -C47     :   1.538912      C43     -H84     :   1.099806
 C44     -H85     :   1.096925      C44     -H86     :   1.097286
 C44     -H87     :   1.096794      C45     -H88     :   1.097013
 C45     -H89     :   1.097112      C45     -H90     :   1.096108
 C46     -H91     :   1.098192      C46     -H92     :   1.096102
 C46     -H93     :   1.094663      C47     -H94     :   1.097599
 C47     -H95     :   1.096063      C47     -H96     :   1.097005
 
  bond angles:
 
 C15     -P1      -Pd2     : 111.439781  C16     -P1      -Pd2     : 120.782710
 C16     -P1      -C15     : 109.160340  C17     -P1      -Pd2     : 106.147586
 C17     -P1      -C15     : 103.980845  C17     -P1      -C16     : 103.663290
 Br3     -Pd2     -P1      :  96.373802  C7      -Pd2     -P1      : 177.413255
 C7      -Pd2     -Br3     :  82.553954  C9      -C4      -C5      : 121.791825
 F10     -C4      -C5      : 119.097356  F10     -C4      -C9      : 119.109311
 C6      -C5      -C4      : 118.663444  H11     -C5      -C4      : 119.678930
 H11     -C5      -C6      : 121.656520  C7      -C6      -C5      : 121.091200
 H12     -C6      -C5      : 118.557101  H12     -C6      -C7      : 120.351604
 C6      -C7      -Pd2     : 120.512183  C8      -C7      -Pd2     : 120.876534
 C8      -C7      -C6      : 118.610134  C9      -C8      -C7      : 121.008689
 H13     -C8      -C7      : 120.496091  H13     -C8      -C9      : 118.494837
 C8      -C9      -C4      : 118.745941  H14     -C9      -C4      : 119.596734
 H14     -C9      -C8      : 121.656865  C18     -C15     -P1      : 116.824295
 C22     -C15     -P1      : 112.551697  C22     -C15     -C18     : 110.241735
 H48     -C15     -P1      : 101.416701  H48     -C15     -C18     : 107.646480
 H48     -C15     -C22     : 107.260440  C23     -C16     -P1      : 111.761667
 C27     -C16     -P1      : 110.106431  C27     -C16     -C23     : 108.908909
 H59     -C16     -P1      : 107.729305  H59     -C16     -C23     : 109.220571
 H59     -C16     -C27     : 109.070030  C28     -C17     -P1      : 124.036409
 C32     -C17     -P1      : 116.682377  C32     -C17     -C28     : 119.281214
 C19     -C18     -C15     : 110.659923  H49     -C18     -C15     : 109.544714
 H49     -C18     -C19     : 109.408986  H50     -C18     -C15     : 110.855143
 H50     -C18     -C19     : 109.277001  H50     -C18     -H49     : 107.015565
 C20     -C19     -C18     : 111.882492  H51     -C19     -C18     : 108.706535
 H51     -C19     -C20     : 109.265928  H52     -C19     -C18     : 109.658530
 H52     -C19     -C20     : 110.651393  H52     -C19     -H51     : 106.510316
 C21     -C20     -C19     : 110.755868  H53     -C20     -C19     : 109.147054
 H53     -C20     -C21     : 109.150360  H54     -C20     -C19     : 110.375339
 H54     -C20     -C21     : 110.689879  H54     -C20     -H53     : 106.615161
 C22     -C21     -C20     : 111.402723  H55     -C21     -C20     : 109.545135
 H55     -C21     -C22     : 109.000986  H56     -C21     -C20     : 110.596731
 H56     -C21     -C22     : 109.606358  H56     -C21     -H55     : 106.556951
 C21     -C22     -C15     : 110.705191  H57     -C22     -C15     : 110.477888
 H57     -C22     -C21     : 110.121649  H58     -C22     -C15     : 109.014464
 H58     -C22     -C21     : 108.788012  H58     -C22     -H57     : 107.657622
 C24     -C23     -C16     : 111.176989  H60     -C23     -C16     : 111.640827
 H60     -C23     -C24     : 109.988891  H61     -C23     -C16     : 108.534408
 H61     -C23     -C24     : 109.640608  H61     -C23     -H60     : 105.689428
 C25     -C24     -C23     : 111.264217  H62     -C24     -C23     : 109.363303
 H62     -C24     -C25     : 110.553339  H63     -C24     -C23     : 109.423350
 H63     -C24     -C25     : 109.471694  H63     -C24     -H62     : 106.650339
 C26     -C25     -C24     : 110.591563  H64     -C25     -C24     : 110.756942
 H64     -C25     -C26     : 110.494022  H65     -C25     -C24     : 109.025652
 H65     -C25     -C26     : 109.165660  H65     -C25     -H64     : 106.705859
 C27     -C26     -C25     : 111.618858  H66     -C26     -C25     : 110.671125
 H66     -C26     -C27     : 109.469689  H67     -C26     -C25     : 109.404981
 H67     -C26     -C27     : 108.950957  H67     -C26     -H66     : 106.581936
 C26     -C27     -C16     : 111.455011  H68     -C27     -C16     : 108.357893
 H68     -C27     -C26     : 109.272449  H69     -C27     -C16     : 111.259109
 H69     -C27     -C26     : 109.604880  H69     -C27     -H68     : 106.753632
 C29     -C28     -C17     : 120.986742  H70     -C28     -C17     : 119.744359
 H70     -C28     -C29     : 119.268077  C30     -C29     -C28     : 119.741879
 H71     -C29     -C28     : 119.935673  H71     -C29     -C30     : 120.322225
 C31     -C30     -C29     : 119.577391  H72     -C30     -C29     : 120.368420
 H72     -C30     -C31     : 120.051003  C32     -C31     -C30     : 121.057999
 H73     -C31     -C30     : 120.175504  H73     -C31     -C32     : 118.762753
 C31     -C32     -C17     : 119.321103  C33     -C32     -C17     : 125.139692
 C33     -C32     -C31     : 115.527625  C34     -C33     -C32     : 117.293677
 C38     -C33     -C32     : 118.075203  C38     -C33     -C34     : 119.162759
 C35     -C34     -C33     : 119.129259  C41     -C34     -C33     : 120.310412
 C41     -C34     -C35     : 120.289448  C36     -C35     -C34     : 121.983175
 H74     -C35     -C34     : 118.368620  H74     -C35     -C36     : 119.646948
 C37     -C36     -C35     : 118.298417  C43     -C36     -C35     : 123.186170
 C43     -C36     -C37     : 118.514708  C38     -C37     -C36     : 122.327694
 H75     -C37     -C36     : 118.671656  H75     -C37     -C38     : 118.998946
 C37     -C38     -C33     : 118.906822  C39     -C38     -C33     : 120.154244
 C39     -C38     -C37     : 120.781661  C40     -C39     -C38     : 110.947843
 C44     -C39     -C38     : 112.274435  C44     -C39     -C40     : 111.527837
 H76     -C39     -C38     : 107.323620  H76     -C39     -C40     : 107.120087
 H76     -C39     -C44     : 107.350447  H77     -C40     -C39     : 111.232164
 H78     -C40     -C39     : 110.747953  H78     -C40     -H77     : 108.017476
 H79     -C40     -C39     : 110.629908  H79     -C40     -H77     : 107.956699
 H79     -C40     -H78     : 108.136538  C42     -C41     -C34     : 112.105049
 C45     -C41     -C34     : 110.973733  C45     -C41     -C42     : 111.574613
 H80     -C41     -C34     : 107.457799  H80     -C41     -C42     : 107.079532
 H80     -C41     -C45     : 107.366916  H81     -C42     -C41     : 111.954297
 H82     -C42     -C41     : 110.369942  H82     -C42     -H81     : 107.830669
 H83     -C42     -C41     : 110.511644  H83     -C42     -H81     : 107.910740
 H83     -C42     -H82     : 108.129794  C46     -C43     -C36     : 114.437027
 C47     -C43     -C36     : 110.239835  C47     -C43     -C46     : 110.287693
 H84     -C43     -C36     : 106.019494  H84     -C43     -C46     : 107.554190
 H84     -C43     -C47     : 107.992315  H85     -C44     -C39     : 111.645967
 H86     -C44     -C39     : 110.402108  H86     -C44     -H85     : 107.601814
 H87     -C44     -C39     : 110.787932  H87     -C44     -H85     : 107.950476
 H87     -C44     -H86     : 108.321334  H88     -C45     -C41     : 111.359570
 H89     -C45     -C41     : 110.406701  H89     -C45     -H88     : 107.912647
 H90     -C45     -C41     : 110.974454  H90     -C45     -H88     : 107.967503
 H90     -C45     -H89     : 108.092314  H91     -C46     -C43     : 111.482072
 H92     -C46     -C43     : 109.911828  H92     -C46     -H91     : 107.459226
 H93     -C46     -C43     : 111.279590  H93     -C46     -H91     : 108.612690
 H93     -C46     -H92     : 107.953345  H94     -C47     -C43     : 110.434011
 H95     -C47     -C43     : 111.999904  H95     -C47     -H94     : 107.753017
 H96     -C47     -C43     : 110.511053  H96     -C47     -H94     : 108.080553
 H96     -C47     -H95     : 107.922409
 
  torsional angles:
 
 P1      -Pd2     -C7      -C6      :  23.122163
 P1      -Pd2     -C7      -C8      :-157.273097
 P1      -C15     -C18     -C19     : 173.101716
 P1      -C15     -C18     -H49     : -66.186392
 P1      -C15     -C18     -H50     :  51.688095
 P1      -C15     -C22     -C21     :-170.243354
 P1      -C15     -C22     -H57     : -47.985695
 P1      -C15     -C22     -H58     :  70.124516
 P1      -C16     -C23     -C24     : 179.504778
 P1      -C16     -C23     -H60     : -57.258420
 P1      -C16     -C23     -H61     :  58.836586
 P1      -C16     -C27     -C26     :-179.775918
 P1      -C16     -C27     -H68     : -59.506607
 P1      -C16     -C27     -H69     :  57.558105
 P1      -C17     -C28     -C29     :-178.722422
 P1      -C17     -C28     -H70     :   1.609857
 P1      -C17     -C32     -C31     : 177.903280
 P1      -C17     -C32     -C33     :  -3.392658
 Pd2     -P1      -C15     -C18     :-146.152461
 Pd2     -P1      -C15     -C22     :  84.812870
 Pd2     -P1      -C15     -H48     : -29.494245
 Pd2     -P1      -C16     -C23     : -49.869313
 Pd2     -P1      -C16     -C27     :  71.309629
 Pd2     -P1      -C16     -H59     :-169.853849
 Pd2     -P1      -C17     -C28     :-173.253472
 Pd2     -P1      -C17     -C32     :   6.745387
 Pd2     -C7      -C6      -C5      : 176.431690
 Pd2     -C7      -C6      -H12     :  -3.454808
 Pd2     -C7      -C8      -C9      :-176.474911
 Pd2     -C7      -C8      -H13     :   3.296361
 Br3     -Pd2     -P1      -C15     : -66.707041
 Br3     -Pd2     -P1      -C16     :  63.411519
 Br3     -Pd2     -P1      -C17     :-179.283652
 Br3     -Pd2     -C7      -C6      :  88.779820
 Br3     -Pd2     -C7      -C8      : -91.615439
 C4      -C5      -C6      -C7      :   1.022222
 C4      -C5      -C6      -H12     :-179.089290
 C4      -C9      -C8      -C7      :  -0.938423
 C4      -C9      -C8      -H13     : 179.285829
 C5      -C4      -C9      -C8      :  -1.320159
 C5      -C4      -C9      -H14     : 178.437320
 C5      -C6      -C7      -C8      :  -3.181885
 C6      -C5      -C4      -C9      :   1.278458
 C6      -C5      -C4      -F10     :-179.172353
 C6      -C7      -C8      -C9      :   3.137203
 C6      -C7      -C8      -H13     :-177.091524
 C7      -Pd2     -P1      -C15     :  -1.334725
 C7      -Pd2     -P1      -C16     : 128.783835
 C7      -Pd2     -P1      -C17     :-113.911337
 C7      -C6      -C5      -H11     :-179.361692
 C7      -C8      -C9      -H14     : 179.309317
 C8      -C7      -C6      -H12     : 176.931616
 C8      -C9      -C4      -F10     : 179.130705
 C9      -C4      -C5      -H11     :-178.345408
 F10     -C4      -C5      -H11     :   1.203781
 F10     -C4      -C9      -H14     :  -1.111816
 H11     -C5      -C6      -H12     :   0.526797
 H13     -C8      -C9      -H14     :  -0.466431
 C15     -P1      -C16     -C23     :  81.232765
 C15     -P1      -C16     -C27     :-157.588293
 C15     -P1      -C16     -H59     : -38.751771
 C15     -P1      -C17     -C28     :  69.085535
 C15     -P1      -C17     -C32     :-110.915607
 C15     -C18     -C19     -C20     :  56.009846
 C15     -C18     -C19     -H51     : -64.747461
 C15     -C18     -C19     -H52     : 179.176019
 C15     -C22     -C21     -C20     : -56.875192
 C15     -C22     -C21     -H55     :  64.122477
 C15     -C22     -C21     -H56     :-179.607657
 C16     -P1      -C15     -C18     :  77.914929
 C16     -P1      -C15     -C22     : -51.119739
 C16     -P1      -C15     -H48     :-165.426854
 C16     -P1      -C17     -C28     : -45.031830
 C16     -P1      -C17     -C32     : 134.967028
 C16     -C23     -C24     -C25     : -57.819125
 C16     -C23     -C24     -H62     : 179.763616
 C16     -C23     -C24     -H63     :  63.278928
 C16     -C27     -C26     -C25     :  56.375298
 C16     -C27     -C26     -H66     : 179.253051
 C16     -C27     -C26     -H67     : -64.551686
 C17     -P1      -C15     -C18     : -32.218702
 C17     -P1      -C15     -C22     :-161.253370
 C17     -P1      -C15     -H48     :  84.439515
 C17     -P1      -C16     -C23     :-168.421708
 C17     -P1      -C16     -C27     : -47.242765
 C17     -P1      -C16     -H59     :  71.593756
 C17     -C28     -C29     -C30     :   0.345996
 C17     -C28     -C29     -H71     :-179.825325
 C17     -C32     -C31     -C30     :   1.344615
 C17     -C32     -C31     -H73     :-179.358091
 C17     -C32     -C33     -C34     :-103.803806
 C17     -C32     -C33     -C38     : 102.468754
 C18     -C15     -C22     -C21     :  57.386687
 C18     -C15     -C22     -H57     : 179.644346
 C18     -C15     -C22     -H58     : -62.245443
 C18     -C19     -C20     -C21     : -54.893879
 C18     -C19     -C20     -H53     :  65.301073
 C18     -C19     -C20     -H54     :-177.837002
 C19     -C18     -C15     -C22     : -56.768714
 C19     -C18     -C15     -H48     :  59.921593
 C19     -C20     -C21     -C22     :  55.213079
 C19     -C20     -C21     -H55     : -65.465891
 C19     -C20     -C21     -H56     : 177.375439
 C20     -C19     -C18     -H49     : -64.782723
 C20     -C19     -C18     -H50     : 178.350450
 C20     -C21     -C22     -H57     :-179.340803
 C20     -C21     -C22     -H58     :  62.892875
 C21     -C20     -C19     -H51     :  65.537917
 C21     -C20     -C19     -H52     :-177.496403
 C21     -C22     -C15     -H48     : -59.543789
 C22     -C15     -C18     -H49     :  63.943178
 C22     -C15     -C18     -H50     :-178.182334
 C22     -C21     -C20     -H53     : -64.979901
 C22     -C21     -C20     -H54     : 177.973766
 C23     -C16     -C27     -C26     : -56.906363
 C23     -C16     -C27     -H68     :  63.362948
 C23     -C16     -C27     -H69     :-179.572340
 C23     -C24     -C25     -C26     :  55.394596
 C23     -C24     -C25     -H64     : 178.239030
 C23     -C24     -C25     -H65     : -64.640244
 C24     -C23     -C16     -C27     :  57.634185
 C24     -C23     -C16     -H59     : -61.389753
 C24     -C25     -C26     -C27     : -54.715433
 C24     -C25     -C26     -H66     :-176.905033
 C24     -C25     -C26     -H67     :  65.946592
 C25     -C24     -C23     -H60     : 178.002648
 C25     -C24     -C23     -H61     :  62.195074
 C25     -C26     -C27     -H68     : -63.354268
 C25     -C26     -C27     -H69     : 179.985282
 C26     -C25     -C24     -H62     : 177.122183
 C26     -C25     -C24     -H63     : -65.675142
 C26     -C27     -C16     -H59     :  62.211585
 C27     -C16     -C23     -H60     :-179.129013
 C27     -C16     -C23     -H61     : -63.034007
 C27     -C26     -C25     -H64     :-177.712711
 C27     -C26     -C25     -H65     :  65.235430
 C28     -C17     -C32     -C31     :  -2.097805
 C28     -C17     -C32     -C33     : 176.606257
 C28     -C29     -C30     -C31     :  -1.123156
 C28     -C29     -C30     -H72     : 179.525806
 C29     -C28     -C17     -C32     :   1.278747
 C29     -C30     -C31     -C32     :   0.279470
 C29     -C30     -C31     -H73     :-179.007964
 C30     -C29     -C28     -H70     :-179.984724
 C30     -C31     -C32     -C33     :-177.481000
 C31     -C30     -C29     -H71     : 179.048837
 C31     -C32     -C33     -C34     :  74.944049
 C31     -C32     -C33     -C38     : -78.783391
 C32     -C17     -C28     -H70     :-178.388973
 C32     -C31     -C30     -H72     : 179.632598
 C32     -C33     -C34     -C35     :-149.710155
 C32     -C33     -C34     -C41     :  24.329527
 C32     -C33     -C38     -C37     : 149.836171
 C32     -C33     -C38     -C39     : -25.641779
 C33     -C32     -C31     -H73     :   1.816294
 C33     -C34     -C35     -C36     :  -0.341102
 C33     -C34     -C35     -H74     : 179.249265
 C33     -C34     -C41     -C42     : 122.196028
 C33     -C34     -C41     -C45     :-112.301091
 C33     -C34     -C41     -H80     :   4.806369
 C33     -C38     -C37     -C36     :  -0.331482
 C33     -C38     -C37     -H75     :-179.849934
 C33     -C38     -C39     -C40     : 111.651315
 C33     -C38     -C39     -C44     :-122.798625
 C33     -C38     -C39     -H76     :  -5.066379
 C34     -C33     -C38     -C37     :  -3.390460
 C34     -C33     -C38     -C39     :-178.868410
 C34     -C35     -C36     -C37     :  -3.323458
 C34     -C35     -C36     -C43     : 176.986815
 C34     -C41     -C42     -H81     :  60.554759
 C34     -C41     -C42     -H82     :-179.323452
 C34     -C41     -C42     -H83     : -59.765379
 C34     -C41     -C45     -H88     : -63.803926
 C34     -C41     -C45     -H89     : 176.337643
 C34     -C41     -C45     -H90     :  56.504557
 C35     -C34     -C33     -C38     :   3.722442
 C35     -C34     -C41     -C42     : -63.833816
 C35     -C34     -C41     -C45     :  61.669066
 C35     -C34     -C41     -H80     : 178.776526
 C35     -C36     -C37     -C38     :   3.679835
 C35     -C36     -C37     -H75     :-176.800201
 C35     -C36     -C43     -C46     :  10.141015
 C35     -C36     -C43     -C47     :-114.850965
 C35     -C36     -C43     -H84     : 128.509088
 C36     -C35     -C34     -C41     :-174.382063
 C36     -C37     -C38     -C39     : 175.117181
 C36     -C43     -C46     -H91     : -66.416824
 C36     -C43     -C46     -H92     : 174.539203
 C36     -C43     -C46     -H93     :  55.007347
 C36     -C43     -C47     -H94     :  64.511450
 C36     -C43     -C47     -H95     : -55.585992
 C36     -C43     -C47     -H96     :-175.951080
 C37     -C36     -C35     -H74     : 177.091274
 C37     -C36     -C43     -C46     :-169.548078
 C37     -C36     -C43     -C47     :  65.459942
 C37     -C36     -C43     -H84     : -51.180005
 C37     -C38     -C39     -C40     : -63.740744
 C37     -C38     -C39     -C44     :  61.809316
 C37     -C38     -C39     -H76     : 179.541562
 C38     -C33     -C34     -C41     : 177.762124
 C38     -C37     -C36     -C43     :-176.615678
 C38     -C39     -C40     -H77     :  63.222579
 C38     -C39     -C40     -H78     : -56.911506
 C38     -C39     -C40     -H79     :-176.798712
 C38     -C39     -C44     -H85     : -63.136557
 C38     -C39     -C44     -H86     : 177.211882
 C38     -C39     -C44     -H87     :  57.216168
 C39     -C38     -C37     -H75     :  -4.401271
 C40     -C39     -C44     -H85     :  62.096224
 C40     -C39     -C44     -H86     : -57.555337
 C40     -C39     -C44     -H87     :-177.551051
 C41     -C34     -C35     -H74     :   5.208305
 C42     -C41     -C45     -H88     :  61.995336
 C42     -C41     -C45     -H89     : -57.863094
 C42     -C41     -C45     -H90     :-177.696180
 C43     -C36     -C35     -H74     :  -2.598453
 C43     -C36     -C37     -H75     :   2.904286
 C44     -C39     -C40     -H77     : -62.744287
 C44     -C39     -C40     -H78     : 177.121628
 C44     -C39     -C40     -H79     :  57.234422
 C45     -C41     -C42     -H81     : -64.618148
 C45     -C41     -C42     -H82     :  55.503641
 C45     -C41     -C42     -H83     : 175.061715
 C46     -C43     -C47     -H94     : -62.817009
 C46     -C43     -C47     -H95     : 177.085549
 C46     -C43     -C47     -H96     :  56.720461
 C47     -C43     -C46     -H91     :  58.549903
 C47     -C43     -C46     -H92     : -60.494070
 C47     -C43     -C46     -H93     : 179.974074
 H48     -C15     -C18     -H49     :-179.366516
 H48     -C15     -C18     -H50     : -61.492028
 H48     -C15     -C22     -H57     :  62.713869
 H48     -C15     -C22     -H58     :-179.175919
 H49     -C18     -C19     -H51     : 174.459970
 H49     -C18     -C19     -H52     :  58.383450
 H50     -C18     -C19     -H51     :  57.593142
 H50     -C18     -C19     -H52     : -58.483378
 H51     -C19     -C20     -H53     :-174.267131
 H51     -C19     -C20     -H54     : -57.405206
 H52     -C19     -C20     -H53     : -57.301451
 H52     -C19     -C20     -H54     :  59.560474
 H53     -C20     -C21     -H55     : 174.341129
 H53     -C20     -C21     -H56     :  57.182460
 H54     -C20     -C21     -H55     :  57.294796
 H54     -C20     -C21     -H56     : -59.863874
 H55     -C21     -C22     -H57     : -58.343134
 H55     -C21     -C22     -H58     :-176.109456
 H56     -C21     -C22     -H57     :  57.926732
 H56     -C21     -C22     -H58     : -59.839590
 H59     -C16     -C23     -H60     :  61.847049
 H59     -C16     -C23     -H61     : 177.942055
 H59     -C16     -C27     -H68     :-177.519104
 H59     -C16     -C27     -H69     : -60.454392
 H60     -C23     -C24     -H62     :  55.585389
 H60     -C23     -C24     -H63     : -60.899300
 H61     -C23     -C24     -H62     : -60.222185
 H61     -C23     -C24     -H63     :-176.706874
 H62     -C24     -C25     -H64     : -60.033383
 H62     -C24     -C25     -H65     :  57.087343
 H63     -C24     -C25     -H64     :  57.169292
 H63     -C24     -C25     -H65     : 174.290018
 H64     -C25     -C26     -H66     :  60.097688
 H64     -C25     -C26     -H67     : -57.050686
 H65     -C25     -C26     -H66     : -56.954171
 H65     -C25     -C26     -H67     :-174.102545
 H66     -C26     -C27     -H68     :  59.523485
 H66     -C26     -C27     -H69     : -57.136965
 H67     -C26     -C27     -H68     : 175.718748
 H67     -C26     -C27     -H69     :  59.058298
 H70     -C28     -C29     -H71     :  -0.156045
 H71     -C29     -C30     -H72     :  -0.302201
 H72     -C30     -C31     -H73     :   0.345164
 H76     -C39     -C40     -H77     :-179.934724
 H76     -C39     -C40     -H78     :  59.931191
 H76     -C39     -C40     -H79     : -59.956015
 H76     -C39     -C44     -H85     : 179.147133
 H76     -C39     -C44     -H86     :  59.495571
 H76     -C39     -C44     -H87     : -60.500143
 H80     -C41     -C42     -H81     : 178.170281
 H80     -C41     -C42     -H82     : -61.707930
 H80     -C41     -C42     -H83     :  57.850143
 H80     -C41     -C45     -H88     : 179.032999
 H80     -C41     -C45     -H89     :  59.174568
 H80     -C41     -C45     -H90     : -60.658518
 H84     -C43     -C46     -H91     : 176.088373
 H84     -C43     -C46     -H92     :  57.044400
 H84     -C43     -C46     -H93     : -62.487455
 H84     -C43     -C47     -H94     : 179.915425
 H84     -C43     -C47     -H95     :  59.817983
 H84     -C43     -C47     -H96     : -60.547105
 
  nuclear repulsion energy.......          6390.803480878 hartrees
  
  Detected an organometallic with only one TM atom. 
  
  Oxidation state on metal       2 is     2
  Formal multiplet on metal      2 is     1
  Formal charge on ligand        3 is    -1
  Formal multiplet on ligand     3 is     1
  Formal charge on ligand        4 is    -1
  Formal multiplet on ligand     4 is     1
  
 
  Will use High-Quality Initial guess for organometallics
       including d-d repulsion (iguess=30)
 
 Non-default options chosen:
   SCF calculation type: DFT(b3pw91-d3)              
   DFT=Becke_3_Parameter/HF+Slater+Becke88+PW91+PW-GGAIIC (B3PW91-D3)
   Geometry will be optimized in redundant internal coordinates
   Solvation energy will be computed using PBF
     -solute cavity energy will not be included
     -surface area terms will not be included
   Vibrational frequencies and related properties will be computed
      from analytic second derivatives
   IR intensities will be computed
   Thermochemical properties will be computed
   Maximum number of geometry steps: 100
   Scaling standard convergence criteria by a factor of   5.00
   Solvent: benzene                                                         
   Internal dielectric constant:    1.000
   Continuum dielectric constant:   2.283
   Solvent probe molecule radius:   2.600
  
 Non-default print settings:
     11=  2
  
 Temporary integer options set:
     21= -1  73=  2
  
  atom       vdw   vdw2    cov     mass  grid  daf  charge   basis
  P1        2.147  2.074  1.060   30.974    Y    Y      Y    ps_6-31g*
  Pd2       1.450  1.450  1.280  105.903    Y    Y      Y    lacv3p*
  Br3       2.095  2.095  1.140   78.918    Y    Y      Y    lav3p*
  C4        1.949  1.900  0.770   12.000    Y    Y      Y    ps_6-31g*
  C5        1.949  1.900  0.770   12.000    Y    Y      Y    ps_6-31g*
  C6        1.949  1.900  0.770   12.000    Y    Y      Y    ps_6-31g*
  C7        1.949  1.900  0.770   12.000    Y    Y      Y    ps_6-31g*
  C8        1.949  1.900  0.770   12.000    Y    Y      Y    ps_6-31g*
  C9        1.949  1.900  0.770   12.000    Y    Y      Y    ps_6-31g*
  F10       1.736  1.682  0.720   18.998    Y    Y      Y    ps_6-31g*
  H11       1.597  1.150  0.320    1.008    Y    Y      Y    ps_6-31g*
  H12       1.597  1.150  0.320    1.008    Y    Y      Y    ps_6-31g*
  H13       1.597  1.150  0.320    1.008    Y    Y      Y    ps_6-31g*
  H14       1.597  1.150  0.320    1.008    Y    Y      Y    ps_6-31g*
  C15       1.949  1.900  0.770   12.000    Y    Y      Y    ps_6-31g*
  C16       1.949  1.900  0.770   12.000    Y    Y      Y    ps_6-31g*
  C17       1.949  1.900  0.770   12.000    Y    Y      Y    ps_6-31g*
  C18       1.949  1.900  0.770   12.000    Y    Y      Y    ps_6-31g*
  C19       1.949  1.900  0.770   12.000    Y    Y      Y    ps_6-31g*
  C20       1.949  1.900  0.770   12.000    Y    Y      Y    ps_6-31g*
  C21       1.949  1.900  0.770   12.000    Y    Y      Y    ps_6-31g*
  C22       1.949  1.900  0.770   12.000    Y    Y      Y    ps_6-31g*
  C23       1.949  1.900  0.770   12.000    Y    Y      Y    ps_6-31g*
  C24       1.949  1.900  0.770   12.000    Y    Y      Y    ps_6-31g*
  C25       1.949  1.900  0.770   12.000    Y    Y      Y    ps_6-31g*
  C26       1.949  1.900  0.770   12.000    Y    Y      Y    ps_6-31g*
  C27       1.949  1.900  0.770   12.000    Y    Y      Y    ps_6-31g*
  C28       1.949  1.900  0.770   12.000    Y    Y      Y    ps_6-31g*
  C29       1.949  1.900  0.770   12.000    Y    Y      Y    ps_6-31g*
  C30       1.949  1.900  0.770   12.000    Y    Y      Y    ps_6-31g*
  C31       1.949  1.900  0.770   12.000    Y    Y      Y    ps_6-31g*
  C32       1.949  1.900  0.770   12.000    Y    Y      Y    ps_6-31g*
  C33       1.949  1.900  0.770   12.000    Y    Y      Y    ps_6-31g*
  C34       1.949  1.900  0.770   12.000    Y    Y      Y    ps_6-31g*
  C35       1.949  1.900  0.770   12.000    Y    Y      Y    ps_6-31g*
  C36       1.949  1.900  0.770   12.000    Y    Y      Y    ps_6-31g*
  C37       1.949  1.900  0.770   12.000    Y    Y      Y    ps_6-31g*
  C38       1.949  1.900  0.770   12.000    Y    Y      Y    ps_6-31g*
  C39       1.949  1.900  0.770   12.000    Y    Y      Y    ps_6-31g*
  C40       1.949  1.900  0.770   12.000    Y    Y      Y    ps_6-31g*
  C41       1.949  1.900  0.770   12.000    Y    Y      Y    ps_6-31g*
  C42       1.949  1.900  0.770   12.000    Y    Y      Y    ps_6-31g*
  C43       1.949  1.900  0.770   12.000    Y    Y      Y    ps_6-31g*
  C44       1.949  1.900  0.770   12.000    Y    Y      Y    ps_6-31g*
  C45       1.949  1.900  0.770   12.000    Y    Y      Y    ps_6-31g*
  C46       1.949  1.900  0.770   12.000    Y    Y      Y    ps_6-31g*
  C47       1.949  1.900  0.770   12.000    Y    Y      Y    ps_6-31g*
  H48       1.597  1.150  0.320    1.008    Y    Y      Y    ps_6-31g*
  H49       1.597  1.150  0.320    1.008    Y    Y      Y    ps_6-31g*
  H50       1.597  1.150  0.320    1.008    Y    Y      Y    ps_6-31g*
  H51       1.597  1.150  0.320    1.008    Y    Y      Y    ps_6-31g*
  H52       1.597  1.150  0.320    1.008    Y    Y      Y    ps_6-31g*
  H53       1.597  1.150  0.320    1.008    Y    Y      Y    ps_6-31g*
  H54       1.597  1.150  0.320    1.008    Y    Y      Y    ps_6-31g*
  H55       1.597  1.150  0.320    1.008    Y    Y      Y    ps_6-31g*
  H56       1.597  1.150  0.320    1.008    Y    Y      Y    ps_6-31g*
  H57       1.597  1.150  0.320    1.008    Y    Y      Y    ps_6-31g*
  H58       1.597  1.150  0.320    1.008    Y    Y      Y    ps_6-31g*
  H59       1.597  1.150  0.320    1.008    Y    Y      Y    ps_6-31g*
  H60       1.597  1.150  0.320    1.008    Y    Y      Y    ps_6-31g*
  H61       1.597  1.150  0.320    1.008    Y    Y      Y    ps_6-31g*
  H62       1.597  1.150  0.320    1.008    Y    Y      Y    ps_6-31g*
  H63       1.597  1.150  0.320    1.008    Y    Y      Y    ps_6-31g*
  H64       1.597  1.150  0.320    1.008    Y    Y      Y    ps_6-31g*
  H65       1.597  1.150  0.320    1.008    Y    Y      Y    ps_6-31g*
  H66       1.597  1.150  0.320    1.008    Y    Y      Y    ps_6-31g*
  H67       1.597  1.150  0.320    1.008    Y    Y      Y    ps_6-31g*
  H68       1.597  1.150  0.320    1.008    Y    Y      Y    ps_6-31g*
  H69       1.597  1.150  0.320    1.008    Y    Y      Y    ps_6-31g*
  H70       1.597  1.150  0.320    1.008    Y    Y      Y    ps_6-31g*
  H71       1.597  1.150  0.320    1.008    Y    Y      Y    ps_6-31g*
  H72       1.597  1.150  0.320    1.008    Y    Y      Y    ps_6-31g*
  H73       1.597  1.150  0.320    1.008    Y    Y      Y    ps_6-31g*
  H74       1.597  1.150  0.320    1.008    Y    Y      Y    ps_6-31g*
  H75       1.597  1.150  0.320    1.008    Y    Y      Y    ps_6-31g*
  H76       1.597  1.150  0.320    1.008    Y    Y      Y    ps_6-31g*
  H77       1.597  1.150  0.320    1.008    Y    Y      Y    ps_6-31g*
  H78       1.597  1.150  0.320    1.008    Y    Y      Y    ps_6-31g*
  H79       1.597  1.150  0.320    1.008    Y    Y      Y    ps_6-31g*
  H80       1.597  1.150  0.320    1.008    Y    Y      Y    ps_6-31g*
  H81       1.597  1.150  0.320    1.008    Y    Y      Y    ps_6-31g*
  H82       1.597  1.150  0.320    1.008    Y    Y      Y    ps_6-31g*
  H83       1.597  1.150  0.320    1.008    Y    Y      Y    ps_6-31g*
  H84       1.597  1.150  0.320    1.008    Y    Y      Y    ps_6-31g*
  H85       1.597  1.150  0.320    1.008    Y    Y      Y    ps_6-31g*
  H86       1.597  1.150  0.320    1.008    Y    Y      Y    ps_6-31g*
  H87       1.597  1.150  0.320    1.008    Y    Y      Y    ps_6-31g*
  H88       1.597  1.150  0.320    1.008    Y    Y      Y    ps_6-31g*
  H89       1.597  1.150  0.320    1.008    Y    Y      Y    ps_6-31g*
  H90       1.597  1.150  0.320    1.008    Y    Y      Y    ps_6-31g*
  H91       1.597  1.150  0.320    1.008    Y    Y      Y    ps_6-31g*
  H92       1.597  1.150  0.320    1.008    Y    Y      Y    ps_6-31g*
  H93       1.597  1.150  0.320    1.008    Y    Y      Y    ps_6-31g*
  H94       1.597  1.150  0.320    1.008    Y    Y      Y    ps_6-31g*
  H95       1.597  1.150  0.320    1.008    Y    Y      Y    ps_6-31g*
  H96       1.597  1.150  0.320    1.008    Y    Y      Y    ps_6-31g*
 
  atom      formal  2spin      esp    mulk    frag
  P1           0       0        Y    0.000       0
  Pd2          2       0        Y    0.000       0
  Br3         -1       0        Y    0.000       0
  C4          -1       0        Y    0.000       0
  
  end of program pre
   
 Time(pre)  user:       1.168  user+sys:       1.168  wallclock:       1.166
  
  start of program onee
  
  smallest eigenvalue of S:    3.202E-04
  number of canonical orbitals.....          722
  end of program onee
   
 Time(onee)  user:      11.842  user+sys:      11.842  wallclock:       9.005
  
  start of program hfig
  
  initial wavefunction generated automatically from atomic wavefunctions
  Only one state below 0.010000
  Skip d-d repulsion considerations 
 
  Irreducible     Total no   No of occupied orbitals 
  representation  orbitals   Shell_1  Shell_2    ...
  No Symm          722        168
  ------------------------
  Orbital occupation/shell    1.000
 
  end of program hfig
   
 Time(hfig)  user:       1.485  user+sys:       1.485  wallclock:       1.576
  
  start of program probe
  
  end of program probe
   
 Time(probe)  user:       0.833  user+sys:       0.833  wallclock:       0.706
  
  start of program grid
  
   grid     grid set  grid #  grid sym
  ------    --------  ------  --------
  coarse        0        0        1
  medium        2        1        1
  fine          0        0        1
  ultrafine     4        2        1
  charge       -1        3        1
  gradient      4        2        1
  density       0        0        1
  DFT-fine    -11        4        1
  DFT-med.    -10        5        1
  DFT-grad    -12        6        1
  DFT-der2     -8        7        1
  DFT-cphf     -9        8        1
  LMP2-enrg     4        2        1
  LMP2-grad     2        1        1
  DFT-cphf2   -15        9        1
  PBF-dens      0        0        1
  plotting      0        0        1
  Rel-grad    -17        0        1
  
  number of gridpoints: 
     atom           P1         Pd2         Br3          C4          C5          C6          C7
  grid # 1         606         350         494          80          94          95         100
  grid # 2         436         313         487         332         321         324         392
  grid # 3           6         215         305          30          25          15          10
  grid # 4        8714        8714        8714        8714        8714        8714        8714
  grid # 5        1192        1192        1192        1192        1192        1192        1192
  grid # 6        9132        9132        9132        5922        5922        5922        5922
  grid # 7       23034       32968       11582       13950       13950       13950       13950
  grid # 8         722        1150         694         748         748         748         748
  grid # 9         366        2198         358         394         394         394         394
   
  number of gridpoints: 
     atom           C8          C9         F10         H11         H12         H13         H14
  grid # 1          95          94         582         114         109         110         114
  grid # 2         324         321         564         463         440         442         458
  grid # 3          16          25         320         371         134         168         351
  grid # 4        8714        8714        8714        8714        8714        8714        8714
  grid # 5        1192        1192        1192        1192        1192        1192        1192
  grid # 6        5922        5922        5922        5922        5922        5922        5922
  grid # 7       13950       13950       23190       15206       15206       15206       15206
  grid # 8         748         748         770         786         786         786         786
  grid # 9         394         394         420         420         420         420         420
   
  number of gridpoints: 
     atom          C15         C16         C17         C18         C19         C20         C21
  grid # 1          81          79          95          92          92          92          92
  grid # 2         328         326         380         278         276         278         275
  grid # 3           6           6           7           6           6           6           6
  grid # 4        8714        8714        8714        8714        8714        8714        8714
  grid # 5        1192        1192        1192        1192        1192        1192        1192
  grid # 6        5922        5922        5922        5922        5922        5922        5922
  grid # 7       13950       13950       13950       13950       13950       13950       13950
  grid # 8         748         748         748         748         748         748         748
  grid # 9         394         394         394         394         394         394         394
   
  number of gridpoints: 
     atom          C22         C23         C24         C25         C26         C27         C28
  grid # 1          91          90          92          92          92          90          93
  grid # 2         277         279         278         278         276         279         321
  grid # 3           6           6           6           6           6           6           9
  grid # 4        8714        8714        8714        8714        8714        8714        8714
  grid # 5        1192        1192        1192        1192        1192        1192        1192
  grid # 6        5922        5922        5922        5922        5922        5922        5922
  grid # 7       13950       13950       13950       13950       13950       13950       13950
  grid # 8         748         748         748         748         748         748         748
  grid # 9         394         394         394         394         394         394         394
   
  number of gridpoints: 
     atom          C29         C30         C31         C32         C33         C34         C35
  grid # 1          95          95          95          98          98          96          94
  grid # 2         324         324         322         348         359         357         322
  grid # 3          29          32          12           7           7           7          16
  grid # 4        8714        8714        8714        8714        8714        8714        8714
  grid # 5        1192        1192        1192        1192        1192        1192        1192
  grid # 6        5922        5922        5922        5922        5922        5922        5922
  grid # 7       13950       13950       13950       13950       13950       13950       13950
  grid # 8         748         748         748         748         748         748         748
  grid # 9         394         394         394         394         394         394         394
   
  number of gridpoints: 
     atom          C36         C37         C38         C39         C40         C41         C42
  grid # 1          97          94          98          90          81          89          79
  grid # 2         355         322         360         302         238         303         241
  grid # 3          12          14           7           6           6           6           6
  grid # 4        8714        8714        8714        8714        8714        8714        8714
  grid # 5        1192        1192        1192        1192        1192        1192        1192
  grid # 6        5922        5922        5922        5922        5922        5922        5922
  grid # 7       13950       13950       13950       13950       13950       13950       13950
  grid # 8         748         748         748         748         748         748         748
  grid # 9         394         394         394         394         394         394         394
   
  number of gridpoints: 
     atom          C43         C44         C45         C46         C47         H48         H49
  grid # 1          91          79          80          81          81         100         107
  grid # 2         303         240         242         240         237         416         437
  grid # 3           6           6           6           6           6          36         153
  grid # 4        8714        8714        8714        8714        8714        8714        8714
  grid # 5        1192        1192        1192        1192        1192        1192        1192
  grid # 6        5922        5922        5922        5922        5922        5922        5922
  grid # 7       13950       13950       13950       13950       13950       15206       15206
  grid # 8         748         748         748         748         748         786         786
  grid # 9         394         394         394         394         394         420         420
   
  number of gridpoints: 
     atom          H50         H51         H52         H53         H54         H55         H56
  grid # 1         106         109         112         110         112         110         112
  grid # 2         433         443         455         453         457         446         454
  grid # 3         145         206         324         264         331         229         326
  grid # 4        8714        8714        8714        8714        8714        8714        8714
  grid # 5        1192        1192        1192        1192        1192        1192        1192
  grid # 6        5922        5922        5922        5922        5922        5922        5922
  grid # 7       15206       15206       15206       15206       15206       15206       15206
  grid # 8         786         786         786         786         786         786         786
  grid # 9         420         420         420         420         420         420         420
   
  number of gridpoints: 
     atom          H57         H58         H59         H60         H61         H62         H63
  grid # 1         102         104         103         103         103         112         110
  grid # 2         431         431         425         426         430         455         450
  grid # 3         100         130          97         110         101         324         262
  grid # 4        8714        8714        8714        8714        8714        8714        8714
  grid # 5        1192        1192        1192        1192        1192        1192        1192
  grid # 6        5922        5922        5922        5922        5922        5922        5922
  grid # 7       15206       15206       15206       15206       15206       15206       15206
  grid # 8         786         786         786         786         786         786         786
  grid # 9         420         420         420         420         420         420         420
   
  number of gridpoints: 
     atom          H64         H65         H66         H67         H68         H69         H70
  grid # 1         112         110         112         110         102         104         107
  grid # 2         457         453         454         451         419         430         437
  grid # 3         331         253         313         260          47         130         159
  grid # 4        8714        8714        8714        8714        8714        8714        8714
  grid # 5        1192        1192        1192        1192        1192        1192        1192
  grid # 6        5922        5922        5922        5922        5922        5922        5922
  grid # 7       15206       15206       15206       15206       15206       15206       15206
  grid # 8         786         786         786         786         786         786         786
  grid # 9         420         420         420         420         420         420         420
   
  number of gridpoints: 
     atom          H71         H72         H73         H74         H75         H76         H77
  grid # 1         118         118         112         105         107         104         107
  grid # 2         465         465         442         419         427         422         447
  grid # 3         412         402         193          85         102          60         238
  grid # 4        8714        8714        8714        8714        8714        8714        8714
  grid # 5        1192        1192        1192        1192        1192        1192        1192
  grid # 6        5922        5922        5922        5922        5922        5922        5922
  grid # 7       15206       15206       15206       15206       15206       15206       15206
  grid # 8         786         786         786         786         786         786         786
  grid # 9         420         420         420         420         420         420         420
   
  number of gridpoints: 
     atom          H78         H79         H80         H81         H82         H83         H84
  grid # 1         107         110         103         106         110         103         106
  grid # 2         447         452         422         437         446         427         435
  grid # 3         232         305          54         192         255          95         129
  grid # 4        8714        8714        8714        8714        8714        8714        8714
  grid # 5        1192        1192        1192        1192        1192        1192        1192
  grid # 6        5922        5922        5922        5922        5922        5922        5922
  grid # 7       15206       15206       15206       15206       15206       15206       15206
  grid # 8         786         786         786         786         786         786         786
  grid # 9         420         420         420         420         420         420         420
   
  number of gridpoints: 
     atom          H85         H86         H87         H88         H89         H90         H91
  grid # 1         106         108         103         107         110         107         107
  grid # 2         439         446         427         446         452         447         440
  grid # 3         202         250          88         249         309         224         248
  grid # 4        8714        8714        8714        8714        8714        8714        8714
  grid # 5        1192        1192        1192        1192        1192        1192        1192
  grid # 6        5922        5922        5922        5922        5922        5922        5922
  grid # 7       15206       15206       15206       15206       15206       15206       15206
  grid # 8         786         786         786         786         786         786         786
  grid # 9         420         420         420         420         420         420         420
   
  number of gridpoints: 
     atom          H92         H93         H94         H95         H96       total
  grid # 1         110         105         110         107         110       11289
  grid # 2         453         432         453         444         453       37113
  grid # 3         299         140         301         243         318       12532
  grid # 4        8714        8714        8714        8714        8714      836544
  grid # 5        1192        1192        1192        1192        1192      114432
  grid # 6        5922        5922        5922        5922        5922      578142
  grid # 7       15206       15206       15206       15206       15206     1440742
  grid # 8         786         786         786         786         786       74166
  grid # 9         420         420         420         420         420       40968
   
  end of program grid
   
 Time(grid)  user:     625.943  user+sys:     625.943  wallclock:     316.965
  
  start of program rwr
  
  end of program rwr
   
 Time(rwr)  user:      25.936  user+sys:      25.936  wallclock:      32.694
  
  start of program scf
  
 number of electrons..........        336
 number of alpha electrons....        168
 number of beta electrons.....        168
 number of orbitals, total....        722
 number of doubly-occ'd orbs..        168
 number of open shell orbs....          0
 number of occupied orbitals..        168
 number of virtual orbitals...        554
 number of hamiltonians.......          1
 number of shells.............          1
 SCF type: DFT=Becke_3_Parameter/HF+Slater+Becke88+PW91+PW-GGAIIC (B3PW91-D3)
 Energy computed using pseudospectral method.
 Convergence Criterion:
    Energy (econv):       1.00E-05
    RMS density (dconv):  5.00E-06
  
       i  u  d  i  g                   
       t  p  i  c  r                                 RMS    maximum
       e  d  i  u  i                       energy  density   DIIS  
       r  t  s  t  d       total energy    change  change    error 
  
etot    1  N  N  5  M   -2093.38281669483           1.9E-03  2.4E-01
etot    2  Y  Y  6  M   -2097.16644137356  3.8E+00  2.9E-03  1.4E-01
etot    3  Y  Y  6  M   -2098.31567167383  1.1E+00  1.0E-03  6.6E-02
etot    4  N  Y  2  U   -2098.56924016760  2.5E-01  8.4E-04  5.0E-02
etot    5  Y  Y  6  M   -2098.64639236900  7.7E-02  7.5E-04  3.4E-02
etot    6  N  Y  2  U   -2098.66250931746  1.6E-02  5.8E-04  1.5E-02
etot    7  Y  Y  6  M   -2098.68401162011  2.2E-02  6.5E-05  3.8E-03
etot    8  N  Y  2  U   -2098.68766215956  3.7E-03  3.5E-05  1.3E-03
etot    9  N  Y  2  U   -2098.68785832033  2.0E-04  1.8E-05  7.2E-04
etot   10  N  Y  2  U   -2098.68790057636  4.2E-05  4.8E-06  1.1E-04
etot   11  N  N  2  U   -2098.68790272196  2.1E-06  0.0E+00  0.0E+00
 
  Computing the dispersion energy correction and its gradients...
  
  
 Energy components, in hartrees:
   (A)  Nuclear repulsion............    6390.80348087811
   (E)  Total one-electron terms.....  -15644.67294454560
   (F)    Electron-nuclear...........  -17642.59914831963
   (H)    Kinetic....................    1997.92620377403
   (I)  Total two-electron terms.....    7155.18156094553
   (J)    Coulomb....................    7435.51940311208
   (K)    Exchange+Correlation.......    -280.33784216655
   (L)  Electronic energy............   -8489.49138360007  (E+I)
   (N0) D3 correction................      -0.18804012081
   (N)  Total energy.................   -2098.87594284277  (A+L+N0)
   (O)  Gas phase energy.............   -2098.87594284277
  
 SCFE: SCF energy: DFT(b3pw91-d3)     -2098.87594284277 hartrees   iterations:  11
  
 
 HOMO energy:    -0.20174
 LUMO energy:    -0.06929
 
  Orbital energies (hartrees): 
   -77.06841   -24.66727   -10.23165   -10.20748   -10.20622   -10.19954
   -10.19792   -10.19738   -10.19666   -10.19549   -10.19342   -10.19205
   -10.18852   -10.18841   -10.18704   -10.18434   -10.18236   -10.17694
   -10.17315   -10.17200   -10.17131   -10.16933   -10.16661   -10.16494
   -10.16234   -10.16157   -10.16142   -10.16102   -10.15979   -10.15961
   -10.15906   -10.15844   -10.15830   -10.15802   -10.15762   -10.15706
   -10.15701   -10.15627   -10.15580   -10.15579   -10.15041    -6.57069
    -4.72894    -4.72804    -4.72496    -3.33819    -2.07487    -2.06261
    -2.03910    -1.19916    -0.89718    -0.87308    -0.84577    -0.83999
    -0.83823    -0.82761    -0.82470    -0.79132    -0.78422    -0.77750
    -0.75701    -0.74795    -0.74662    -0.74327    -0.73778    -0.73442
    -0.72829    -0.72032    -0.69354    -0.69225    -0.68713    -0.67348
    -0.66349    -0.64483    -0.64012    -0.62320    -0.61756    -0.60987
    -0.60930    -0.60538    -0.60173    -0.60030    -0.58157    -0.56906
    -0.56156    -0.55911    -0.55211    -0.54618    -0.52686    -0.52226
    -0.50035    -0.49589    -0.48520    -0.48260    -0.47536    -0.46772
    -0.46273    -0.45829    -0.45461    -0.45146    -0.45027    -0.44801
    -0.44668    -0.44606    -0.44437    -0.44206    -0.43996    -0.43670
    -0.43554    -0.43192    -0.42956    -0.42667    -0.42008    -0.41872
    -0.41114    -0.40914    -0.40605    -0.40306    -0.39857    -0.39273
    -0.39214    -0.38707    -0.38457    -0.38208    -0.38091    -0.37930
    -0.37519    -0.37491    -0.37127    -0.36975    -0.36887    -0.36125
    -0.35780    -0.35173    -0.35145    -0.34943    -0.34812    -0.34699
    -0.34544    -0.34390    -0.34295    -0.33953    -0.33719    -0.33572
    -0.33251    -0.32266    -0.32170    -0.31944    -0.31782    -0.31651
    -0.31142    -0.30513    -0.30278    -0.29961    -0.29173    -0.29070
    -0.28291    -0.27083    -0.26727    -0.26165    -0.25758    -0.24952
    -0.24419    -0.23436    -0.22791    -0.21346    -0.21254    -0.20174
    -0.06929    -0.04563    -0.02875    -0.01954    -0.01274     0.01388
     0.02730     0.03438     0.04810     0.05832
 
  end of program scf
   
 Time(scf)  user:     671.103  user+sys:     671.103  wallclock:     356.162
  
  start of program der1a
  
  end of program der1a
   
 Time(der1a)  user:      36.403  user+sys:      36.403  wallclock:      19.153
  
  start of program rwr
  
  end of program rwr
   
 Time(rwr)  user:      29.996  user+sys:      29.996  wallclock:      37.791
  
  start of program der1b
  
   
  forces (hartrees/bohr) : total     
   
 atom  label           x              y              z
 ---- --------   -------------  -------------  -------------
    1 P1         -5.806263E-05  -4.403539E-04   1.788824E-03
    2 Pd2         1.077313E-03  -1.212809E-03   6.128499E-04
    3 Br3        -1.168918E-03   1.919769E-03  -1.069121E-03
    4 C4          5.622091E-04  -2.766562E-04   1.807167E-03
    5 C5         -5.895277E-04  -4.181917E-05  -9.887421E-04
    6 C6         -1.541411E-04   1.213871E-04   1.435309E-04
    7 C7          5.994080E-04  -1.117978E-03   3.357840E-04
    8 C8          5.107097E-05   2.411210E-04   7.878673E-05
    9 C9          2.069967E-04   2.376679E-04  -1.065429E-03
   10 F10         5.083773E-05  -5.125695E-04  -1.891122E-03
   11 H11        -4.403518E-04  -3.889617E-04  -1.828456E-05
   12 H12        -1.328619E-05  -4.429221E-04   1.266373E-04
   13 H13         3.162293E-04  -3.655390E-04   2.448423E-05
   14 H14         3.964236E-04   7.212714E-05  -9.988199E-05
   15 C15         9.575264E-05  -1.256845E-04  -5.020042E-04
   16 C16        -8.141415E-05   7.483787E-05  -1.646683E-04
   17 C17         3.769129E-04  -4.404709E-04  -1.185887E-03
   18 C18         3.167266E-04   2.635920E-04   1.930163E-04
   19 C19        -2.836128E-04  -9.541989E-05  -4.004246E-04
   20 C20         2.587694E-04  -6.813721E-05   1.643967E-04
   21 C21        -2.399759E-04   8.483423E-05  -5.057472E-05
   22 C22         2.396822E-04  -9.031642E-06   4.256526E-04
   23 C23         9.699165E-05  -9.986593E-05   4.595242E-04
   24 C24         3.451682E-06   4.731167E-05  -9.030002E-05
   25 C25         1.729089E-05  -1.080148E-04  -9.202407E-05
   26 C26        -7.200535E-05  -6.688515E-05   7.963943E-05
   27 C27         7.206571E-05   2.848851E-05   1.698919E-05
   28 C28        -5.219939E-04   8.860917E-04  -2.144766E-04
   29 C29         1.877781E-04  -7.933101E-05   7.948946E-04
   30 C30         7.389044E-04  -1.998018E-03   9.202150E-04
   31 C31        -1.445202E-05  -1.386055E-04  -1.050880E-03
   32 C32         6.357909E-05   2.857620E-04  -2.068034E-06
   33 C33        -6.029350E-04   1.612734E-03   6.259405E-04
   34 C34         3.993121E-04   1.592176E-04  -1.253015E-04
   35 C35         6.717701E-04   7.999588E-04   1.427963E-04
   36 C36        -4.526491E-04  -3.041154E-04  -3.382182E-04
   37 C37        -1.325600E-03   2.052278E-04  -6.323306E-04
   38 C38        -2.949533E-04  -1.067955E-04   1.372610E-04
   39 C39         7.487522E-05   2.802487E-04  -1.138778E-04
   40 C40        -9.974406E-05  -1.223965E-04  -2.598548E-04
   41 C41        -3.274723E-04  -1.818341E-04   3.731980E-04
   42 C42         9.419115E-05   1.500516E-04  -3.461865E-04
   43 C43         1.695893E-04  -1.227103E-04   8.659905E-05
   44 C44        -2.518193E-04  -4.233722E-04   1.733084E-04
   45 C45         1.539601E-04  -8.966784E-05   1.259717E-04
   46 C46        -7.033130E-05  -1.846353E-04  -1.541785E-05
   47 C47         3.836364E-05  -1.493269E-04  -1.761024E-04
   48 H48        -1.324522E-04  -1.172205E-04   1.584294E-04
   49 H49        -8.262315E-05  -2.578353E-04  -1.935010E-04
   50 H50        -1.105316E-04   2.404446E-04  -1.796471E-04
   51 H51        -1.138258E-05   1.544673E-04   2.690763E-04
   52 H52        -9.305048E-05   7.190298E-05  -1.233173E-04
   53 H53        -1.325186E-04  -2.348504E-04  -2.479860E-04
   54 H54        -1.072743E-04   4.295863E-06   6.591202E-05
   55 H55         1.225790E-05   4.998445E-05   1.933491E-04
   56 H56        -7.723350E-05  -1.230994E-04   1.111415E-04
   57 H57        -1.294998E-04   3.639566E-05   2.835934E-04
   58 H58        -5.190725E-05   3.661027E-05  -2.183042E-04
   59 H59        -1.400349E-04  -4.928258E-06  -1.969161E-04
   60 H60        -4.472993E-04   8.301230E-05   2.404095E-04
   61 H61         3.896039E-04   4.813951E-05  -3.428093E-05
   62 H62        -1.032122E-04   3.404742E-04  -1.874272E-04
   63 H63        -2.094133E-04  -1.460680E-04  -3.253231E-05
   64 H64         9.540484E-05   1.779083E-04  -5.117072E-05
   65 H65         1.379816E-04   8.147021E-05  -2.101031E-04
   66 H66         1.974261E-04  -4.481461E-05  -5.130900E-05
   67 H67        -3.844322E-05  -8.686657E-05   1.538203E-04
   68 H68         2.305407E-04  -7.435255E-05  -1.629160E-04
   69 H69        -1.782771E-05   4.176117E-05  -3.100588E-05
   70 H70         4.489437E-05   1.158964E-04   4.961589E-04
   71 H71         1.131661E-04   5.377933E-06   6.231918E-04
   72 H72         2.196668E-04  -5.226506E-04   2.580987E-04
   73 H73         1.869100E-04  -5.107787E-04   1.430485E-04
   74 H74         2.472718E-04  -1.546916E-04  -1.260543E-05
   75 H75        -2.227225E-04  -3.267283E-04  -8.649223E-05
   76 H76         3.462074E-04  -2.857650E-04  -2.494388E-04
   77 H77        -5.488993E-05  -1.051617E-04  -3.036461E-05
   78 H78        -1.186023E-04   3.254899E-04  -1.335178E-04
   79 H79        -2.779319E-04  -1.170506E-04   2.913146E-04
   80 H80        -3.284351E-05   3.186563E-04   3.062501E-04
   81 H81         2.052393E-04   1.876171E-04  -4.254211E-04
   82 H82         1.316825E-04   3.041579E-04  -1.889990E-05
   83 H83        -3.235370E-05   3.868609E-04   9.295933E-05
   84 H84        -2.196937E-04  -2.336951E-04  -5.267481E-05
   85 H85        -1.597969E-04  -2.008843E-04  -1.934118E-04
   86 H86        -3.200926E-04  -3.058028E-05   4.453103E-05
   87 H87         5.014274E-05   2.752941E-04   6.049527E-05
   88 H88         1.808611E-04  -2.727253E-04  -3.332052E-04
   89 H89         2.429956E-04   1.675703E-04   2.254421E-04
   90 H90        -4.638233E-05  -3.389704E-04   1.232793E-04
   91 H91         2.103099E-04   1.594073E-05   9.818551E-05
   92 H92        -4.468356E-05  -3.009202E-04  -3.413045E-04
   93 H93         9.963754E-05   2.549849E-04   6.720610E-05
   94 H94         2.060801E-04  -5.930721E-05   1.663845E-04
   95 H95        -2.638777E-04   2.326824E-05   9.453663E-05
   96 H96        -4.267341E-05  -1.531301E-04  -2.459541E-04
 -------------   -------------  -------------  -------------
     total        9.424041E-05  -3.198592E-03  -7.326021E-04
   
  end of program der1b
   
 Time(der1b)  user:     242.739  user+sys:     242.739  wallclock:     127.542
  
  start of program geopt
  
 ----------------------------------------------------------------------------
  Geometry optimization step  1
  Total energy:     -2098.87594284277 hartrees
 ----------------------------------------------------------------------------
  
  gradient maximum:        1.2732E-02 .  (  2.2500E-03 )
  gradient rms:            1.8611E-03 .  (  1.5000E-03 )
  displacement maximum:    7.8072E-02 .  (  9.0000E-03 )
  displacement rms:        9.0167E-03 .  (  6.0000E-03 )
  
  predicted energy change:  -5.6503E-04
  step size:     0.16130
  trust radius:  0.30000
  
  molecular structure not yet converged...
  
  center of mass moved by:
     x:     3.8112E-02     y:    -1.9253E-02     z:    -8.8538E-03
  
  new geometry: 
                                   angstroms
  atom               x                 y                 z
  P1           -0.0464502169      0.0257472126     -0.0829890823 
  Pd2          -0.1455580158      0.5356356992      2.2465629059 
  Br3           0.7382437740     -1.6865654563      3.0312100029 
  C4           -0.1214843800      1.6135752037      6.9258707707 
  C5            0.9924217608      1.9163237904      6.1574921228 
  C6            0.9913391726      1.5630411397      4.8071466881 
  C7           -0.1170007757      0.9393536902      4.2270862364 
  C8           -1.2031274500      0.6070320460      5.0404622827 
  C9           -1.2185838908      0.9531858423      6.3931198155 
  F10          -0.1355276067      1.9652936376      8.2297961176 
  H11           1.8432126047      2.4110209862      6.6177367063 
  H12           1.8720400314      1.7807998779      4.2121002263 
  H13          -2.0546459300      0.0728502894      4.6313391154 
  H14          -2.0620556414      0.7126490515      7.0343188028 
  C15           1.7325328126     -0.0404586745     -0.6896322023 
  C16          -0.9970940605     -1.4208203931     -0.7872027154 
  C17          -0.7590663178      1.4599180481     -0.9615961536 
  C18           1.9908751749      0.3941816006     -2.1388002273 
  C19           3.4970612150      0.4532835268     -2.4238047844 
  C20           4.1877836035     -0.8779115925     -2.1206383926 
  C21           3.9038108092     -1.3231867749     -0.6845666998 
  C22           2.3984454838     -1.3963313348     -0.4100195485 
  C23          -0.7926602644     -2.6979522566      0.0468790725 
  C24          -1.5947014055     -3.8679675859     -0.5316013906 
  C25          -3.0865444880     -3.5390100733     -0.6010295749 
  C26          -3.3174242541     -2.2530379642     -1.3954207979 
  C27          -2.5003395516     -1.0873398260     -0.8296475295 
  C28          -0.9530144866      1.5029364123     -2.3501631276 
  C29          -1.4811867255      2.6310311659     -2.9631896583 
  C30          -1.8197080092      3.7415498361     -2.1905752194 
  C31          -1.6466075535      3.7019809732     -0.8131656399 
  C32          -1.1300392865      2.5614848157     -0.1820893325 
  C33          -1.0549876889      2.6369755744      1.3205369214 
  C34          -2.2766624587      2.4943557356      2.0449276724 
  C35          -2.4233262979      3.1458898055      3.2713405567 
  C36          -1.4125613948      3.9350874120      3.8118898322 
  C37          -0.1960689404      4.0181202467      3.1215220358 
  C38           0.0100319902      3.3953478348      1.8981278153 
  C39           1.3047279620      3.5985276286      1.1296107821 
  C40           1.4606562810      5.0635159860      0.6999195872 
  C41          -3.4534801531      1.7599866891      1.4262558104 
  C42          -3.9258428034      0.5956107923      2.2995544917 
  C43          -1.5625848664      4.7006387093      5.1139511978 
  C44           2.5228054819      3.1071540459      1.9165760159 
  C45          -4.5999458177      2.7295464659      1.1127914593 
  C46          -2.8151800646      4.3462909207      5.9126313263 
  C47          -1.5087383077      6.2153042961      4.8493006011 
  H48           2.2115879393      0.6970744395     -0.0285692773 
  H49           1.5163982551     -0.3215717839     -2.8276967403 
  H50           1.5461691120      1.3748128982     -2.3389285283 
  H51           3.9417907502      1.2431621174     -1.7992839709 
  H52           3.6638893427      0.7491517180     -3.4679457701 
  H53           3.8149183877     -1.6446390327     -2.8169787538 
  H54           5.2685707436     -0.7951666152     -2.2938088606 
  H55           4.3617592659     -0.6126191807      0.0196817351 
  H56           4.3612967518     -2.3003197660     -0.4845865478 
  H57           2.2173714912     -1.7051510296      0.6248284939 
  H58           1.9539472552     -2.1559328949     -1.0695625513 
  H59          -0.6386839212     -1.5929023118     -1.8151417365 
  H60           0.2627321126     -2.9674914105      0.1200072542 
  H61          -1.1168738370     -2.4983050014      1.0759397974 
  H62          -1.4263090263     -4.7618809442      0.0818962897 
  H63          -1.2249825878     -4.1042921802     -1.5416968455 
  H64          -3.6484224996     -4.3706690987     -1.0454751566 
  H65          -3.4720579571     -3.4054943186      0.4207830080 
  H66          -4.3822695050     -1.9855741012     -1.4000938455 
  H67          -3.0296445054     -2.4156852922     -2.4454752453 
  H68          -2.8348541259     -0.8727723854      0.1957106167 
  H69          -2.6906936681     -0.1843955834     -1.4195126403 
  H70          -0.6915438491      0.6392826471     -2.9561527492 
  H71          -1.6265414835      2.6463219073     -4.0404667490 
  H72          -2.2275711043      4.6326421472     -2.6609459319 
  H73          -1.9226204215      4.5568607888     -0.2000091313 
  H74          -3.3594271167      3.0308328821      3.8078351612 
  H75           0.6141425123      4.5957351185      3.5612423556 
  H76           1.2440045808      2.9972691260      0.2147557788 
  H77           1.5267195129      5.7265543945      1.5707871019 
  H78           0.6071417769      5.3865509829      0.0929912749 
  H79           2.3723747752      5.1957539425      0.1050029530 
  H80          -3.1137945281      1.3366768456      0.4755992816 
  H81          -4.2613160787      0.9377320606      3.2855495851 
  H82          -4.7638243484      0.0749890079      1.8202450686 
  H83          -3.1135740791     -0.1248375302      2.4509297475 
  H84          -0.6913855695      4.4288695815      5.7273409061 
  H85           2.6607760321      3.6761197949      2.8436945277 
  H86           3.4347586362      3.2205261031      1.3178169793 
  H87           2.4141821619      2.0492778925      2.1833265943 
  H88          -4.9957207574      3.1875975389      2.0268364409 
  H89          -5.4230924848      2.2015281758      0.6168514667 
  H90          -4.2626465412      3.5336957617      0.4495262961 
  H91          -3.7280011974      4.6545899927      5.3863071694 
  H92          -2.8015189223      4.8646981960      6.8775379530 
  H93          -2.8699344675      3.2712326702      6.1092240748 
  H94          -2.3648532956      6.5281544086      4.2385510485 
  H95          -0.5958489410      6.5085425946      4.3190910982 
  H96          -1.5439629173      6.7717086673      5.7935781293 
   
 
  bond lengths (angstroms):
 
 P1      -Pd2     :   2.386760      P1      -C15     :   1.880739
 P1      -C16     :   1.868742      P1      -C17     :   1.826641
 Pd2     -Br3     :   2.516934      Pd2     -C7      :   2.021454
 C4      -C5      :   1.386668      C4      -C9      :   1.386926
 C4      -F10     :   1.350601      C5      -C6      :   1.395795
 C5      -H11     :   1.086460      C6      -C7      :   1.397810
 C6      -H12     :   1.084958      C7      -C8      :   1.397029
 C8      -C9      :   1.396332      C8      -H13     :   1.085272
 C9      -H14     :   1.086480      C15     -C18     :   1.534842
 C15     -C22     :   1.536234      C15     -H48     :   1.100206
 C16     -C23     :   1.539010      C16     -C27     :   1.540376
 C16     -H59     :   1.102147      C17     -C28     :   1.402706
 C17     -C32     :   1.399536      C18     -C19     :   1.534052
 C18     -H49     :   1.100913      C18     -H50     :   1.095195
 C19     -C20     :   1.530061      C19     -H51     :   1.100781
 C19     -H52     :   1.097998      C20     -C21     :   1.530102
 C20     -H53     :   1.100813      C20     -H54     :   1.097696
 C21     -C22     :   1.531944      C21     -H55     :   1.100268
 C21     -H56     :   1.097303      C22     -H57     :   1.095020
 C22     -H58     :   1.099805      C23     -C24     :   1.531942
 C23     -H60     :   1.091720      C23     -H61     :   1.097242
 C24     -C25     :   1.529258      C24     -H62     :   1.097186
 C24     -H63     :   1.101287      C25     -C26     :   1.529080
 C25     -H64     :   1.097677      C25     -H65     :   1.100249
 C26     -C27     :   1.531855      C26     -H66     :   1.097932
 C26     -H67     :   1.100857      C27     -H68     :   1.099681
[...]
    H48      Z     0.00074   0.00012   0.00026  -0.00002   0.00005  -0.00028
    H49      X     0.00376  -0.00001   0.00226  -0.00006  -0.00006  -0.00005
    H49      Y     0.00552  -0.00001   0.00315  -0.00008  -0.00009  -0.00006
    H49      Z     0.00514  -0.00002   0.00291  -0.00008  -0.00008  -0.00005
    H50      X     0.00130  -0.00002   0.00119   0.00004  -0.00009  -0.00010
    H50      Y    -0.00530   0.00005  -0.00376  -0.00010   0.00017   0.00018
    H50      Z     0.00021  -0.00001   0.00016   0.00004  -0.00002  -0.00002
    H51      X     0.00070   0.00001   0.00031  -0.00002   0.00001   0.00005
    H51      Y     0.00100   0.00001   0.00044  -0.00003   0.00001   0.00009
    H51      Z     0.00086   0.00001   0.00035  -0.00003   0.00002   0.00008
    H52      X    -0.00019   0.00002  -0.00027   0.00002   0.00008   0.00008
    H52      Y    -0.00008   0.00002  -0.00021   0.00002   0.00005   0.00004
    H52      Z     0.00024  -0.00008   0.00074  -0.00007  -0.00018  -0.00014
    H53      X     0.00001  -0.00001   0.00003  -0.00002  -0.00003  -0.00000
    H53      Y     0.00014  -0.00001   0.00009  -0.00003  -0.00005   0.00001
    H53      Z     0.00011  -0.00001   0.00008  -0.00003  -0.00004   0.00002
    H54      X     0.00049   0.00009  -0.00013   0.00007   0.00015   0.00020
    H54      Y    -0.00005   0.00001  -0.00006   0.00001   0.00001   0.00001
    H54      Z    -0.00002  -0.00002   0.00005  -0.00001  -0.00002  -0.00003
    H55      X     0.00010  -0.00001   0.00001  -0.00001  -0.00003   0.00007
    H55      Y     0.00015  -0.00000  -0.00001  -0.00001  -0.00003   0.00013
    H55      Z     0.00015  -0.00000   0.00001  -0.00001  -0.00004   0.00009
    H56      X     0.00005   0.00003  -0.00015   0.00005   0.00012   0.00013
    H56      Y    -0.00021  -0.00006   0.00012  -0.00008  -0.00019  -0.00023
    H56      Z     0.00006   0.00001   0.00001   0.00001   0.00003   0.00003
    H57      X     0.00007  -0.00002   0.00008  -0.00001   0.00005  -0.00003
    H57      Y    -0.00010  -0.00001  -0.00005  -0.00002   0.00008  -0.00002
    H57      Z     0.00003   0.00009  -0.00006   0.00006  -0.00026  -0.00005
    H58      X     0.00016  -0.00001   0.00015  -0.00003  -0.00006   0.00000
    H58      Y     0.00044  -0.00002   0.00035  -0.00006  -0.00011  -0.00001
    H58      Z     0.00032  -0.00003   0.00027  -0.00006  -0.00009   0.00002
    H59      X    -0.00199   0.00000  -0.00106   0.00001  -0.00021  -0.00018
    H59      Y     0.00043  -0.00001   0.00011   0.00001  -0.00020  -0.00020
    H59      Z     0.00614  -0.00003   0.00348  -0.00005   0.00002  -0.00004
    H60      X     0.00031  -0.00010  -0.00020  -0.00008   0.00016   0.00033
    H60      Y    -0.00012   0.00003  -0.00001   0.00002  -0.00003  -0.00007
    H60      Z     0.00002   0.00001  -0.00001   0.00001   0.00001   0.00000
    H61      X    -0.00008   0.00006  -0.00000  -0.00001   0.00001  -0.00005
    H61      Y    -0.00015  -0.00001  -0.00010   0.00001   0.00001   0.00002
    H61      Z     0.00024  -0.00009  -0.00002   0.00008  -0.00005   0.00005
    H62      X     0.00010   0.00001   0.00005   0.00000   0.00004   0.00002
    H62      Y    -0.00035  -0.00003   0.00009  -0.00005  -0.00030  -0.00021
    H62      Z     0.00026   0.00002   0.00001   0.00003   0.00016   0.00012
    H63      X    -0.00007   0.00001  -0.00007  -0.00001  -0.00004  -0.00001
    H63      Y     0.00009  -0.00001   0.00006   0.00000   0.00003   0.00001
    H63      Z     0.00020  -0.00004   0.00024   0.00001   0.00010   0.00001
    H64      X    -0.00012  -0.00004   0.00014  -0.00004  -0.00008  -0.00008
    H64      Y    -0.00026  -0.00005   0.00018  -0.00006  -0.00012  -0.00013
    H64      Z    -0.00011  -0.00003   0.00010  -0.00003  -0.00006  -0.00006
    H65      X    -0.00010   0.00000  -0.00004  -0.00003  -0.00008  -0.00001
    H65      Y     0.00001   0.00000  -0.00002   0.00001   0.00002   0.00000
    H65      Z     0.00033   0.00000   0.00014   0.00010   0.00020   0.00002
    H66      X    -0.00041  -0.00005   0.00042  -0.00019  -0.00029  -0.00020
    H66      Y     0.00008   0.00001  -0.00005   0.00003   0.00002   0.00001
    H66      Z    -0.00001   0.00000  -0.00001  -0.00001  -0.00001   0.00000
    H67      X    -0.00019   0.00001  -0.00017  -0.00001  -0.00003  -0.00000
    H67      Y     0.00023  -0.00000   0.00017   0.00000   0.00001  -0.00000
    H67      Z     0.00081  -0.00002   0.00062   0.00004   0.00012   0.00003
    H68      X    -0.00060   0.00002  -0.00026   0.00003  -0.00001  -0.00002
    H68      Y     0.00001  -0.00001  -0.00004   0.00002   0.00002   0.00003
    H68      Z     0.00205  -0.00005   0.00097  -0.00005   0.00006   0.00011
    H69      X     0.00118  -0.00001   0.00067   0.00006  -0.00001  -0.00002
    H69      Y    -0.00193   0.00003  -0.00154  -0.00018   0.00007   0.00009
    H69      Z     0.00058  -0.00001   0.00049   0.00015  -0.00003  -0.00006
    H70      X    -0.14022  -0.00003  -0.09756   0.00119   0.00058   0.00032
    H70      Y     0.47037   0.00009   0.32598  -0.00402  -0.00189  -0.00105
    H70      Z     0.32247   0.00006   0.22052  -0.00277  -0.00125  -0.00067
    H71      X     0.04184   0.00011   0.08966  -0.00093  -0.00044  -0.00024
    H71      Y    -0.00565   0.00000  -0.00173   0.00001   0.00003   0.00004
    H71      Z     0.26888   0.00075   0.60344  -0.00638  -0.00288  -0.00154
    H72      X    -0.19357   0.00044   0.20761  -0.00273  -0.00087  -0.00039
    H72      Y     0.40932  -0.00094  -0.44114   0.00578   0.00186   0.00084
    H72      Z    -0.22233   0.00050   0.23298  -0.00311  -0.00098  -0.00044
    H73      X    -0.11958   0.00028   0.06673  -0.00087  -0.00040  -0.00030
    H73      Y     0.38177  -0.00089  -0.21391   0.00309   0.00134   0.00091
    H73      Z     0.26998  -0.00062  -0.15325   0.00226   0.00093   0.00061
    H74      X     0.00078   0.00475  -0.01000  -0.80787  -0.06045  -0.00019
    H74      Y     0.00014   0.00052  -0.00106  -0.08069  -0.00571   0.00001
    H74      Z    -0.00045  -0.00291   0.00607   0.49510   0.03689   0.00014
    H75      X     0.00041  -0.00472  -0.00142   0.00353  -0.00123   0.01141
    H75      Y     0.00035  -0.00327  -0.00103   0.00179  -0.00089   0.00802
    H75      Z     0.00025  -0.00242  -0.00079   0.00074  -0.00065   0.00555
    H76      X    -0.00001   0.00006   0.00011  -0.00001  -0.00000  -0.00010
    H76      Y     0.00013  -0.00004  -0.00021  -0.00035   0.00003   0.00032
    H76      Z     0.00016  -0.00001  -0.00028  -0.00061   0.00009   0.00044
    H77      X    -0.00021  -0.00002   0.00009  -0.00011   0.00001   0.00011
    H77      Y    -0.00094  -0.00008   0.00033  -0.00047   0.00001   0.00059
    H77      Z    -0.00144  -0.00008   0.00056  -0.00057   0.00003   0.00069
    H78      X    -0.00412  -0.00006   0.00194  -0.00007  -0.00009   0.00035
    H78      Y     0.00197  -0.00000  -0.00084   0.00003   0.00003  -0.00006
    H78      Z    -0.00292  -0.00002   0.00132  -0.00005  -0.00006   0.00018
    H79      X    -0.00150   0.00033   0.00006   0.00037   0.00003  -0.00059
    H79      Y    -0.00008   0.00006  -0.00006  -0.00001  -0.00000  -0.00009
    H79      Z     0.00091  -0.00023   0.00000  -0.00027  -0.00002   0.00040
    H80      X     0.00005   0.00003  -0.00009  -0.00300  -0.00029  -0.00003
    H80      Y    -0.00003   0.00000  -0.00020   0.00066   0.00021   0.00010
    H80      Z    -0.00010   0.00000  -0.00010   0.00280   0.00067   0.00023
    H81      X    -0.00010  -0.00023  -0.00007  -0.00571  -0.00138   0.00002
    H81      Y     0.00014   0.00023   0.00009   0.00650   0.00155  -0.00001
    H81      Z     0.00039   0.00077   0.00016   0.01890   0.00539   0.00014
    H82      X     0.00027   0.00082   0.00059   0.00177   0.00325   0.00011
    H82      Y     0.00010   0.00046   0.00035   0.00052   0.00193   0.00011
    H82      Z     0.00011   0.00053   0.00030   0.00124   0.00219   0.00007
    H83      X    -0.00058   0.00227   0.00031  -0.00494   0.00884   0.00045
    H83      Y     0.00056  -0.00200  -0.00036   0.00452  -0.00754  -0.00034
    H83      Z    -0.00015   0.00059   0.00007  -0.00101   0.00310   0.00024
    H84      X    -0.00003   0.00099   0.00003   0.00128  -0.00084   0.00105
    H84      Y     0.00001  -0.00036  -0.00001   0.00046   0.00022  -0.00062
    H84      Z    -0.00001   0.00067  -0.00002   0.00196  -0.00041   0.00084
    H85      X     0.00004   0.00010  -0.00005  -0.00016  -0.00003  -0.00033
    H85      Y     0.00016   0.00014  -0.00010  -0.00030  -0.00014  -0.00037
    H85      Z     0.00030  -0.00082  -0.00023  -0.00053  -0.00042   0.00260
    H86      X    -0.00020   0.00123  -0.00048   0.00032   0.00028  -0.00134
    H86      Y    -0.00006   0.00013  -0.00004   0.00002   0.00003   0.00003
    H86      Z     0.00013  -0.00093   0.00032  -0.00026  -0.00024   0.00098
    H87      X     0.00006   0.00078  -0.00001  -0.00004   0.00015  -0.00153
    H87      Y     0.00075   0.00470  -0.00053  -0.00029   0.00087  -0.00665
    H87      Z    -0.00023  -0.00206   0.00015   0.00006  -0.00042   0.00448
    H88      X     0.00082   0.00003  -0.00046  -0.00803  -0.00079  -0.00009
    H88      Y    -0.00097  -0.00003   0.00053   0.00952   0.00097   0.00009
    H88      Z    -0.00232  -0.00007   0.00130   0.01961   0.00188   0.00019
    H89      X     0.00162  -0.00006  -0.00004   0.00237   0.00028   0.00013
    H89      Y     0.00110  -0.00004  -0.00009   0.00216   0.00022   0.00007
    H89      Z     0.00086  -0.00003  -0.00003   0.00157   0.00016   0.00007
    H90      X     0.00209  -0.00002  -0.00110  -0.00205  -0.00040   0.00000
    H90      Y     0.00597  -0.00006  -0.00285  -0.00519  -0.00093   0.00002
    H90      Z    -0.00474   0.00005   0.00226   0.00405   0.00075  -0.00003
    H91      X    -0.00009   0.00034  -0.00008  -0.01378  -0.00113   0.00009
    H91      Y     0.00004   0.00007   0.00002   0.00363   0.00031   0.00002
    H91      Z    -0.00004   0.00008  -0.00004  -0.00900  -0.00068  -0.00001
    H92      X    -0.00001  -0.00000  -0.00003  -0.00173  -0.00019  -0.00001
    H92      Y    -0.00007   0.00042  -0.00022  -0.00569  -0.00079   0.00006
    H92      Z    -0.00012   0.00070  -0.00039  -0.00896  -0.00123   0.00012
    H93      X     0.00000   0.00011  -0.00003  -0.00054   0.00015   0.00013
    H93      Y    -0.00004   0.00007  -0.00025  -0.00727  -0.00166   0.00035
    H93      Z     0.00002   0.00012   0.00006   0.00079   0.00016  -0.00009
    H94      X    -0.00002   0.00062   0.00001  -0.00194  -0.00035   0.00042
    H94      Y     0.00001  -0.00029   0.00000   0.00083   0.00018  -0.00014
    H94      Z    -0.00001   0.00043   0.00003  -0.00147  -0.00028   0.00026
    H95      X     0.00009   0.00017  -0.00001  -0.00217  -0.00059   0.00066
    H95      Y     0.00003   0.00008   0.00001  -0.00078  -0.00025   0.00024
    H95      Z    -0.00004  -0.00018   0.00002   0.00122   0.00037  -0.00045
    H96      X     0.00000  -0.00005  -0.00000  -0.00002   0.00002  -0.00002
    H96      Y    -0.00004   0.00030  -0.00020   0.00137   0.00023   0.00009
    H96      Z    -0.00008   0.00047  -0.00031   0.00174   0.00031   0.00010
  
  Number of imaginary frequencies:   0
   
  Writing vibrational animation data to ox_add_Br_trans_L1_PL146_2.vib
  Writing IR vibrational spectrum data to ox_add_Br_trans_L1_PL146_2_vib.spm
  rotational symmetry number:  1

  rotational temperatures (K):      0.004252      0.002785      0.002564
   
  The Quasi-Harmonic approximation will be applied to compute
  vibrational constributions to thermodynamic properties.
  Frequencies will be adjusted to a minimum value of  100.00 cm^-1.

  vibrational temperatures:
       mode:      1        2        3        4        5        6
  temp. (K):   143.88   143.88   143.88   143.88   143.88   143.88
   
       mode:      7        8        9       10       11       12
  temp. (K):   143.88   143.88   143.88   143.88   143.88   143.88
   
       mode:     13       14       15       16       17       18
  temp. (K):   143.88   143.88   143.88   143.88   143.88   148.67
   
       mode:     19       20       21       22       23       24
  temp. (K):   152.10   174.65   189.72   202.33   210.21   211.91
   
       mode:     25       26       27       28       29       30
  temp. (K):   227.90   237.03   249.67   260.77   270.01   289.08
   
       mode:     31       32       33       34       35       36
  temp. (K):   299.28   311.41   318.52   338.78   351.12   359.03
   
       mode:     37       38       39       40       41       42
  temp. (K):   367.00   373.17   374.33   377.82   387.02   398.43
   
       mode:     43       44       45       46       47       48
  temp. (K):   410.01   430.86   441.48   448.19   454.61   464.12
   
       mode:     49       50       51       52       53       54
  temp. (K):   480.09   482.05   500.57   513.10   537.21   550.77
   
       mode:     55       56       57       58       59       60
  temp. (K):   560.74   580.31   589.87   594.67   610.36   636.95
   
       mode:     61       62       63       64       65       66
  temp. (K):   646.02   649.22   658.99   679.87   693.36   707.99
   
       mode:     67       68       69       70       71       72
  temp. (K):   711.00   734.32   751.11   766.66   775.04   801.19
   
       mode:     73       74       75       76       77       78
  temp. (K):   811.36   824.41   859.78   876.03   896.84   909.35
   
       mode:     79       80       81       82       83       84
  temp. (K):   944.69   961.16   993.91  1015.07  1043.12  1084.71
   
       mode:     85       86       87       88       89       90
  temp. (K):  1099.46  1118.50  1135.51  1145.40  1166.30  1175.32
   
       mode:     91       92       93       94       95       96
  temp. (K):  1181.69  1189.84  1200.41  1205.29  1209.50  1215.64
   
       mode:     97       98       99      100      101      102
  temp. (K):  1237.92  1261.78  1265.40  1305.04  1305.81  1311.22
   
       mode:    103      104      105      106      107      108
  temp. (K):  1312.52  1318.22  1326.66  1328.28  1338.96  1350.37
   
       mode:    109      110      111      112      113      114
  temp. (K):  1361.30  1367.42  1367.79  1370.28  1373.12  1374.60
   
       mode:    115      116      117      118      119      120
  temp. (K):  1385.74  1397.45  1417.73  1419.42  1422.35  1428.77
   
       mode:    121      122      123      124      125      126
  temp. (K):  1469.42  1469.72  1478.08  1478.92  1484.69  1527.11
   
       mode:    127      128      129      130      131      132
  temp. (K):  1534.03  1537.08  1547.78  1552.56  1554.21  1579.26
   
       mode:    133      134      135      136      137      138
  temp. (K):  1594.15  1597.73  1600.87  1601.21  1605.28  1605.92
   
       mode:    139      140      141      142      143      144
  temp. (K):  1619.92  1638.30  1640.03  1649.35  1652.48  1656.29
   
       mode:    145      146      147      148      149      150
  temp. (K):  1664.51  1669.97  1690.03  1719.51  1722.55  1741.40
   
       mode:    151      152      153      154      155      156
  temp. (K):  1741.83  1753.82  1759.34  1765.99  1772.15  1805.94
   
       mode:    157      158      159      160      161      162
  temp. (K):  1826.71  1840.82  1859.39  1865.35  1871.50  1876.62
   
       mode:    163      164      165      166      167      168
  temp. (K):  1881.74  1889.13  1898.61  1899.72  1902.76  1905.46
   
       mode:    169      170      171      172      173      174
  temp. (K):  1923.76  1929.15  1933.18  1939.16  1943.10  1962.73
   
       mode:    175      176      177      178      179      180
  temp. (K):  1963.74  1969.21  1974.64  1975.39  1977.31  1994.19
   
       mode:    181      182      183      184      185      186
  temp. (K):  1997.36  2000.79  2011.10  2018.54  2019.59  2022.32
   
       mode:    187      188      189      190      191      192
  temp. (K):  2025.41  2029.09  2030.76  2048.05  2050.08  2052.63
   
       mode:    193      194      195      196      197      198
  temp. (K):  2053.24  2077.30  2079.73  2082.03  2126.09  2128.73
   
       mode:    199      200      201      202      203      204
  temp. (K):  2151.37  2164.43  2170.09  2173.07  2173.77  2176.07
   
       mode:    205      206      207      208      209      210
  temp. (K):  2177.65  2178.04  2179.71  2180.21  2182.06  2185.05
   
       mode:    211      212      213      214      215      216
  temp. (K):  2187.37  2189.70  2189.85  2198.29  2200.03  2201.42
   
       mode:    217      218      219      220      221      222
  temp. (K):  2204.04  2206.60  2208.36  2208.80  2213.64  2215.67
   
       mode:    223      224      225      226      227      228
  temp. (K):  2222.67  2295.12  2355.95  2370.21  2373.24  2386.95
   
       mode:    229      230      231      232      233      234
  temp. (K):  2398.35  4339.75  4353.04  4353.71  4355.85  4357.31
   
       mode:    235      236      237      238      239      240
  temp. (K):  4360.10  4363.84  4366.93  4368.64  4379.00  4379.22
   
       mode:    241      242      243      244      245      246
  temp. (K):  4381.35  4382.37  4384.04  4386.76  4387.16  4388.89
   
       mode:    247      248      249      250      251      252
  temp. (K):  4390.52  4427.84  4427.98  4435.07  4435.99  4441.00
   
       mode:    253      254      255      256      257      258
  temp. (K):  4443.38  4449.43  4452.81  4457.58  4477.46  4484.63
   
       mode:    259      260      261      262      263      264
  temp. (K):  4489.61  4491.39  4492.52  4492.84  4497.12  4497.58
   
       mode:    265      266      267      268      269      270
  temp. (K):  4498.68  4503.39  4505.94  4506.93  4509.63  4513.83
   
       mode:    271      272      273      274      275      276
  temp. (K):  4531.78  4537.02  4585.41  4589.72  4601.70  4615.52
   
       mode:    277      278      279      280      281      282
  temp. (K):  4615.75  4619.12  4630.02  4635.88  4643.83  4652.70
   
   
  Thermodynamic properties calculated assuming an ideal gas

  In the table below, the units for temperature
  are kelvins, the units for U, H, and G are
  kcal/mol and the units for Cv and S are cal/(mol K)

  The zero point energy (ZPE):    528.719 kcal/mol
  is not included in U, H, or G in the table below
  
 
  =============================================================================
  Thermodynamic properties for P = 1.00E+00 atm, calculated at   1 temperatures


  T =   298.15 K, P = 1.00E+00 atm
   
                  U         Cv          S          H          G        ln(Q)
              =========  =========  =========  =========  =========  =========
  trans.          0.889      2.981     45.749      1.481    -12.159   20.52160
  rot.            0.889      2.981     38.301      0.889    -10.531   17.77379
  vib.           25.647    168.102    156.823     25.647    -21.109   35.62870
  elec.           0.000      0.000      0.000      0.000      0.000    0.00000
  ----------------------------------------------------------------------------
  total          27.425    174.064    240.872     28.017    -43.799   73.92409
   
   Total internal energy, Utot(SCFE + ZPE + U):   -2097.998314 hartrees
   Total enthalpy, Htot (Utot + nRT), with n=1:   -2097.997370 hartrees
    Total Gibbs free energy, Gtot (Htot - T*S):   -2098.111816 hartrees
   
  end of program freq
   
 Time(freq)  user:       0.460  user+sys:       0.460  wallclock:       0.500
  
  start of program post
  
  Writing input files for PBF
  end of program post
   
 Time(post)  user:       0.241  user+sys:       0.241  wallclock:       0.127

 Total cpu seconds     user:  122437.928   user+sys:  122437.928
  
 Total elapsed time:    70737 seconds

Job ox_add_Br_trans_L1_PL146_2 completed on bp1-compute051.data.bp.acrc.priv at Fri Apr  4 06:48:02 2025
