Job PL146 started on bp1-compute089 at Fri Apr 18 17:33:54 2025
jobid: bp1-compute089-0-68027eee

  +--------------------------------------------------------------------+
  |  Jaguar version 12.5, release 138                                  |
  |                                                                    |
  |  Copyright Schrodinger, Inc.                                       |
  |  All Rights Reserved.                                              |
  |                                                                    |
  |  The following have contributed to Jaguar (listed alphabetically): |
  |  Ty Balduf, Mike Beachy, Chandler Bennett, Art Bochevarov,         |
  |  Dale Braden, Yixiang Cao, Alan Chien, Chris Cortis,               |
  |  Rich Friesner, Jim Furness, Bill Goddard, Hod Greeley,            |
  |  Tom Hughes, Leif Jacobson, Jean-Marc Langlois, Daniel Levine,     |
  |  Rob Murphy, Dean Philipp, Tom Pollard, Murco Ringnalda,           |
  |  Daniel Mainz, Pablo Videla, Mark Watson, Haoyu Yu.                |
  |                                                                    |
  |  Use of this program should be acknowledged in publications as:    |
  |                                                                    |
  |  Jaguar, version 12.5, Schrodinger, Inc., New York, NY, 2024.      |
  |                                                                    |
  |  A. D. Bochevarov, E. Harder, T. F. Hughes, J. R. Greenwood,       |
  |  D. A. Braden, D. M. Philipp, D. Rinaldo, M. D. Halls,             |
  |  J. Zhang, R. A. Friesner, "Jaguar: A High-Performance Quantum     |
  |  Chemistry Software Program with Strengths in Life and Materials   |
  |  Sciences", Int. J. Quantum Chem., 2013, 113(18), 2110-2142.       |
  +--------------------------------------------------------------------+
  
  start of program pre
  
  Job name: PL146
  Executables used: /software/local/apps/schrodinger2024-3/jaguar-v12.5/bin/Linux-x86_64
  Temporary files : /tmp/ar21627/PL146#bp1-compute089-0-68027eee
  Basis file : using default basis file from /software/local/apps/schrodinger2024-3
  Maestro file (input):  PL146.mae
  Maestro file (output): PL146.01.mae
  
 Contents of input file: &gen and (if present) &atomic sections only
 ----------------Contents start----------------
&gen
dftname=b3pw91-d3
basis=6-31G*
numd=5
ip11=2
iaccg=3
isolv=2
igeopt=1
solvent=benzene
ifreq=1
&
 -----------------Contents end-----------------
 
  PS calculation requested. Using PS version of 6-31g*
  basis set:               6-31g*                          
  net molecular charge:    0
  multiplicity:            1
  
  Using up to   4 threads per process
  
  number of basis functions....          578
  
 Input geometry:
                                   angstroms
  atom               x                 y                 z
  P1            0.0000000000      0.0000000000      0.0000000000 
  C2            0.0000000000      0.0000000000      1.9230173909 
  C3            1.8929941591      0.0000000000     -0.3293476141 
  C4           -0.4124824190     -1.8153723000     -0.2549056678 
  C5           -1.4538961888     -0.0356698180      2.4588474603 
  C6           -2.1916169773      1.3084496239      2.2817338682 
  C7           -1.4089368217      2.4756630396      2.9151673994 
  C8            0.0309272880      2.5399727564      2.3690202484 
  C9            0.7531292023      1.1915021793      2.5632499665 
  C10           2.3348487039     -0.8596070974     -1.5377062808 
  C11           3.8625590384     -0.7898734949     -1.7547301159 
  C12           4.3472494024      0.6599436322     -1.9428494560 
  C13           3.8856203855      1.5508047832     -0.7741362502 
  C14           2.3582344129      1.4621036810     -0.5644705346 
  C15           0.4212412234     -2.8109385803      0.3081034946 
  C16           0.2267326030     -4.1760211656      0.0635631132 
  C17          -0.8188668756     -4.5788395866     -0.7793901744 
  C18          -1.6672221200     -3.6121814176     -1.3320671385 
  C19          -1.5053706703     -2.2293081695     -1.0725618017 
  C20          -2.5550836222     -1.3169985008     -1.6639007222 
  C21          -2.3177352009     -0.6096999386     -2.8764689234 
  C22          -3.3619740305      0.1342473794     -3.4544874895 
  C23          -4.6425414642      0.2008074882     -2.8785913537 
  C24          -4.8595130540     -0.5157624001     -1.6927431982 
  C25          -3.8512284479     -1.2783678243     -1.0729892634 
  C26          -4.2057486369     -2.0702963648      0.1921524691 
  C27          -4.9379257140     -1.2146466349      1.2492656922 
  C28          -0.9754471344     -0.7008100272     -3.6060563649 
  C29          -1.0870434265     -1.6204372606     -4.8446423190 
  C30          -5.7742519310      1.0017007082     -3.5212361051 
  C31          -5.0550406495     -3.3174804664     -0.1511083415 
  C32          -0.4097502639      0.6825372805     -3.9901938968 
  C33          -6.1874000425      0.4092426312     -4.8878673150 
  C34          -5.4216214562      2.4998483542     -3.6530913795 
  H35           0.5102076109     -0.9339278655      2.2329464620 
  H36          -2.0203172605     -0.8542478562      1.9767567273 
  H37          -1.4115499316     -0.2824872820      3.5409467913 
  H38          -3.2008461941      1.2418772902      2.7313765558 
  H39          -2.3364255448      1.5066028856      1.2015249401 
  H40          -1.9338942355      3.4330317576      2.7347242378 
  H41          -1.3729189746      2.3379225882      4.0162077828 
  H42           0.5992048540      3.3464121584      2.8710692036 
  H43          -0.0002919403      2.7960329556      1.2910398892 
  H44           0.8255195866      0.9870412744      3.6530013793 
  H45           1.7957572069      1.2442640509      2.1996227018 
  H46           2.4050883153     -0.3918141018      0.5774706059 
  H47           1.8243281977     -0.4885955386     -2.4494130018 
  H48           2.0250355301     -1.9110808010     -1.4092505932 
  H49           4.3741387276     -1.2371371198     -0.8771295756 
  H50           4.1439216504     -1.4085073514     -2.6288445860 
  H51           3.9326344427      1.0609243502     -2.8906784875 
  H52           5.4491652391      0.6910059658     -2.0431152670 
  H53           4.4003622164      1.2320113375      0.1560361654 
  H54           4.1803418365      2.6032416116     -0.9502282996 
  H55           2.0566039097      2.1195057828      0.2707570773 
  H56           1.8399522326      1.8526207605     -1.4639662647 
  H57           1.2603877056     -2.5068797875      0.9461881099 
  H58           0.8961515266     -4.9172018288      0.5160885650 
  H59          -0.9774162228     -5.6402437414     -1.0033343580 
  H60          -2.4916184273     -3.9235387314     -1.9842355156 
  H61          -3.1699902697      0.6699205186     -4.3928698445 
  H62          -5.8583803519     -0.4837789104     -1.2381773451 
  H63          -3.2623083649     -2.4253194680      0.6456713790 
  H64          -5.9511053995     -0.9267274166      0.9138250152 
  H65          -5.0553999087     -1.7868595716      2.1880179362 
  H66          -4.3841173384     -0.2884595164      1.4765982546 
  H67          -0.2535689042     -1.1723398054     -2.9160201938 
  H68          -1.8079172111     -1.2130135754     -5.5773517025 
  H69          -1.4302127015     -2.6315952992     -4.5619483143 
  H70          -0.1077624459     -1.7193591981     -5.3490927763 
  H71          -6.6500864527      0.9232119352     -2.8459838613 
  H72          -6.0088431363     -3.0228174725     -0.6266424841 
  H73          -4.5270115530     -3.9917363009     -0.8469226835 
  H74          -5.2944312764     -3.8907862840      0.7640306960 
  H75          -1.0434503822      1.1956106135     -4.7367996851 
  H76          -0.3304232197      1.3354427374     -3.1031898104 
  H77           0.5968816787      0.5758352602     -4.4361925363 
  H78          -5.3550351680      0.4641617123     -5.6136796360 
  H79          -6.4797681980     -0.6513404010     -4.7924289290 
  H80          -7.0424000237      0.9658499824     -5.3146149399 
  H81          -4.5631770466      2.6512474995     -4.3331877729 
  H82          -6.2769439123      3.0681074155     -4.0633976711 
  H83          -5.1550058590      2.9356393271     -2.6742566354 
   
  principal moments of inertia:
        amu*angstrom^2:              3609.95247              5760.43630              6216.04247
                g*cm^2:          5.99446635E-37          9.56542833E-37          1.03219801E-36
   
  rotational constants:
               cm^(-1):      0.00466976      0.00292645      0.00271196
                   GHz:      0.13999603      0.08773277      0.08130237
   
  Molecular weight:     476.36 amu
   
  Stoichiometry: C33PH49
  Molecular Point Group: C1      
  Point Group used: C1
  
 
Number of optimization coordinates:   275
Number of independent coordinates:    275
Number of non-redundant coordinates:  243
Number of frozen coordinates:           0
Number of harmonic constraints:         0
 
Number of geometric degrees of freedom:   243
Maximum geometric degrees of freedom:     243
 " " " " " excluding dummy atoms:         243
 
 
  bond lengths (angstroms):
 
 P1      -C2      :   1.923017      P1      -C3      :   1.921431
 P1      -C4      :   1.879014      C2      -C5      :   1.549903
 C2      -C9      :   1.548153      C2      -H35     :   1.108417
 C3      -C10     :   1.547349      C3      -C14     :   1.552249
 C3      -H46     :   1.112690      C4      -C15     :   1.415354
 C4      -C19     :   1.426292      C5      -C6      :   1.543457
 C5      -H36     :   1.106035      C5      -H37     :   1.110698
 C6      -C7      :   1.541497      C6      -H38     :   1.106867
 C6      -H39     :   1.107739      C7      -C8      :   1.541305
 C7      -H40     :   1.106659      C7      -H41     :   1.110207
 C8      -C9      :   1.541971      C8      -H42     :   1.106949
 C8      -H43     :   1.108415      C9      -H44     :   1.111127
 C9      -H45     :   1.105478      C10     -C11     :   1.544623
 C10     -H47     :   1.108824      C10     -H48     :   1.103668
 C11     -C12     :   1.540222      C11     -H49     :   1.109928
 C11     -H50     :   1.107226      C12     -C13     :   1.540333
 C12     -H51     :   1.109536      C12     -H52     :   1.106904
 C13     -C14     :   1.544259      C13     -H53     :   1.109869
 C13     -H54     :   1.107020      C14     -H55     :   1.104882
 C14     -H56     :   1.109149      C15     -C16     :   1.400387
 C15     -H57     :   1.097165      C16     -C17     :   1.402181
 C16     -H58     :   1.096472      C17     -C18     :   1.399852
 C17     -H59     :   1.096297      C18     -C19     :   1.416290
 C18     -H60     :   1.096310      C19     -C20     :   1.511254
 C20     -C21     :   1.423702      C20     -C25     :   1.425012
 C21     -C22     :   1.406413      C21     -C28     :   1.530469
 C22     -C23     :   1.405681      C22     -H61     :   1.097436
 C23     -C24     :   1.402421      C23     -C30     :   1.528133
 C24     -C25     :   1.407942      C24     -H62     :   1.097902
 C25     -C26     :   1.534086      C26     -C27     :   1.544574
 C26     -C31     :   1.547447      C26     -H63     :   1.105351
 C27     -H64     :   1.105419      C27     -H65     :   1.105660
 C27     -H66     :   1.102817      C28     -C29     :   1.546694
 C28     -C32     :   1.543122      C28     -H67     :   1.104354
 C29     -H68     :   1.105675      C29     -H69     :   1.104591
 C29     -H70     :   1.106005      C30     -C33     :   1.545762
 C30     -C34     :   1.544727      C30     -H71     :   1.108698
 C31     -H72     :   1.105757      C31     -H73     :   1.103446
 C31     -H74     :   1.106104      C32     -H75     :   1.105550
 C32     -H76     :   1.104244      C32     -H77     :   1.106168
 C33     -H78     :   1.105735      C33     -H79     :   1.104275
 C33     -H80     :   1.105871      C34     -H81     :   1.105613
 C34     -H82     :   1.105824      C34     -H83     :   1.104135
 
  bond angles:
 
 C3      -P1      -C2      :  99.869663  C4      -P1      -C2      :  97.796742
 C4      -P1      -C3      : 101.129008  C5      -C2      -P1      : 110.225655
 C9      -C2      -P1      : 114.427783  C9      -C2      -C5      : 109.334188
 H35     -C2      -P1      : 106.237171  H35     -C2      -C5      : 108.404939
 H35     -C2      -C9      : 107.993855  C10     -C3      -P1      : 114.530992
 C14     -C3      -P1      : 108.738399  C14     -C3      -C10     : 108.626525
 H46     -C3      -P1      : 108.283933  H46     -C3      -C10     : 108.022526
 H46     -C3      -C14     : 108.493009  C15     -C4      -P1      : 119.755950
 C19     -C4      -P1      : 121.760168  C19     -C4      -C15     : 118.376372
 C6      -C5      -C2      : 112.870273  H36     -C5      -C2      : 110.288010
 H36     -C5      -C6      : 110.470479  H37     -C5      -C2      : 107.828364
 H37     -C5      -C6      : 108.877037  H37     -C5      -H36     : 106.242930
 C7      -C6      -C5      : 111.688884  H38     -C6      -C5      : 109.682780
 H38     -C6      -C7      : 109.972249  H39     -C6      -C5      : 109.278472
 H39     -C6      -C7      : 109.368047  H39     -C6      -H38     : 106.720307
 C8      -C7      -C6      : 111.119276  H40     -C7      -C6      : 110.315734
 H40     -C7      -C8      : 110.442708  H41     -C7      -C6      : 109.272256
 H41     -C7      -C8      : 109.043408  H41     -C7      -H40     : 106.524526
 C9      -C8      -C7      : 110.880247  H42     -C8      -C7      : 110.442883
 H42     -C8      -C9      : 109.848157  H43     -C8      -C7      : 109.143692
 H43     -C8      -C9      : 109.738035  H43     -C8      -H42     : 106.693345
 C8      -C9      -C2      : 113.148337  H44     -C9      -C2      : 107.197303
 H44     -C9      -C8      : 108.359219  H45     -C9      -C2      : 111.070473
 H45     -C9      -C8      : 111.012010  H45     -C9      -H44     : 105.660717
 C11     -C10     -C3      : 111.535059  H47     -C10     -C3      : 108.949826
 H47     -C10     -C11     : 108.950050  H48     -C10     -C3      : 110.990481
 H48     -C10     -C11     : 109.694376  H48     -C10     -H47     : 106.572605
 C12     -C11     -C10     : 111.771122  H49     -C11     -C10     : 109.061338
 H49     -C11     -C12     : 109.319890  H50     -C11     -C10     : 109.696037
 H50     -C11     -C12     : 110.459117  H50     -C11     -H49     : 106.376208
 C13     -C12     -C11     : 110.942310  H51     -C12     -C11     : 109.082283
 H51     -C12     -C13     : 109.096110  H52     -C12     -C11     : 110.533150
 H52     -C12     -C13     : 110.538831  H52     -C12     -H51     : 106.527590
 C14     -C13     -C12     : 111.482343  H53     -C13     -C12     : 109.315895
 H53     -C13     -C14     : 109.173598  H54     -C13     -C12     : 110.448202
 H54     -C13     -C14     : 109.847928  H54     -C13     -H53     : 106.434155
 C13     -C14     -C3      : 111.784356  H55     -C14     -C3      : 111.353201
 H55     -C14     -C13     : 109.783937  H56     -C14     -C3      : 108.326266
 H56     -C14     -C13     : 109.380637  H56     -C14     -H55     : 106.021373
 C16     -C15     -C4      : 122.302591  H57     -C15     -C4      : 119.139461
 H57     -C15     -C16     : 118.550545  C17     -C16     -C15     : 119.247991
 H58     -C16     -C15     : 120.136337  H58     -C16     -C17     : 120.609277
 C18     -C17     -C16     : 119.398808  H59     -C17     -C16     : 120.582884
 H59     -C17     -C18     : 120.017803  C19     -C18     -C17     : 122.184864
 H60     -C18     -C17     : 119.634540  H60     -C18     -C19     : 118.179578
 C18     -C19     -C4      : 118.422930  C20     -C19     -C4      : 125.545532
 C20     -C19     -C18     : 115.999328  C21     -C20     -C19     : 121.156190
 C25     -C20     -C19     : 119.070899  C25     -C20     -C21     : 119.428950
 C22     -C21     -C20     : 119.278166  C28     -C21     -C20     : 121.510289
 C28     -C21     -C22     : 119.127788  C23     -C22     -C21     : 122.212921
 H61     -C22     -C21     : 118.667765  H61     -C22     -C23     : 119.115381
 C24     -C23     -C22     : 117.591975  C30     -C23     -C22     : 121.815870
 C30     -C23     -C24     : 120.584671  C25     -C24     -C23     : 122.558935
 H62     -C24     -C23     : 118.422208  H62     -C24     -C25     : 119.017135
 C24     -C25     -C20     : 118.916218  C26     -C25     -C20     : 122.559613
 C26     -C25     -C24     : 118.497934  C27     -C26     -C25     : 112.829766
 C31     -C26     -C25     : 111.097305  C31     -C26     -C27     : 109.763135
 H63     -C26     -C25     : 107.873887  H63     -C26     -C27     : 107.560751
 H63     -C26     -C31     : 107.493099  H64     -C27     -C26     : 111.782376
 H65     -C27     -C26     : 110.166918  H65     -C27     -H64     : 107.160983
 H66     -C27     -C26     : 111.609592  H66     -C27     -H64     : 107.702847
 H66     -C27     -H65     : 108.238721  C29     -C28     -C21     : 110.723687
 C32     -C28     -C21     : 112.756783  C32     -C28     -C29     : 111.107420
 H67     -C28     -C21     : 107.508563  H67     -C28     -C29     : 107.077070
 H67     -C28     -C32     : 107.378252  H68     -C29     -C28     : 111.015539
 H69     -C29     -C28     : 111.207957  H69     -C29     -H68     : 107.719670
 H70     -C29     -C28     : 110.765184  H70     -C29     -H68     : 107.937661
 H70     -C29     -H69     : 108.055122  C33     -C30     -C23     : 111.646155
 C34     -C30     -C23     : 112.032464  C34     -C30     -C33     : 110.932604
 H71     -C30     -C23     : 106.965884  H71     -C30     -C33     : 107.469347
 H71     -C30     -C34     : 107.516477  H72     -C31     -C26     : 110.734336
 H73     -C31     -C26     : 111.698713  H73     -C31     -H72     : 107.722991
 H74     -C31     -C26     : 110.670589  H74     -C31     -H72     : 107.893010
 H74     -C31     -H73     : 107.973044  H75     -C32     -C28     : 111.963700
 H76     -C32     -C28     : 110.880679  H76     -C32     -H75     : 108.013654
 H77     -C32     -C28     : 110.334537  H77     -C32     -H75     : 107.103658
 H77     -C32     -H76     : 108.392931  H78     -C33     -C30     : 111.106568
 H79     -C33     -C30     : 111.251836  H79     -C33     -H78     : 107.682178
 H80     -C33     -C30     : 110.787717  H80     -C33     -H78     : 107.679988
 H80     -C33     -H79     : 108.183340  H81     -C34     -C30     : 111.257536
 H82     -C34     -C30     : 110.700723  H82     -C34     -H81     : 107.574618
 H83     -C34     -C30     : 111.237807  H83     -C34     -H81     : 107.685304
 H83     -C34     -H82     : 108.232989
 
  torsional angles:
 
 P1      -C2      -C5      -C6      : -73.253693
 P1      -C2      -C5      -H36     :  50.843499
 P1      -C2      -C5      -H37     : 166.447280
 P1      -C2      -C9      -C8      :  69.839709
 P1      -C2      -C9      -H44     :-170.760170
 P1      -C2      -C9      -H45     : -55.795242
 P1      -C3      -C10     -C11     : 178.967899
 P1      -C3      -C10     -H47     :  58.662390
 P1      -C3      -C10     -H48     : -58.386012
 P1      -C3      -C14     -C13     : 177.437470
 P1      -C3      -C14     -H55     :  54.233776
 P1      -C3      -C14     -H56     : -61.976442
 P1      -C4      -C15     -C16     :-174.766399
 P1      -C4      -C15     -H57     :   4.228897
 P1      -C4      -C19     -C18     : 173.353000
 P1      -C4      -C19     -C20     :  -8.800125
 C2      -P1      -C3      -C10     : 142.363133
 C2      -P1      -C3      -C14     : -95.931163
 C2      -P1      -C3      -H46     :  21.768398
 C2      -P1      -C4      -C15     : -57.264926
 C2      -P1      -C4      -C19     : 126.566854
 C2      -C5      -C6      -C7      : -54.655229
 C2      -C5      -C6      -H38     :-176.841249
 C2      -C5      -C6      -H39     :  66.490560
 C2      -C9      -C8      -C7      :  56.021338
 C2      -C9      -C8      -H42     : 178.374187
 C2      -C9      -C8      -H43     : -64.627093
 C3      -P1      -C2      -C5      :-178.594590
 C3      -P1      -C2      -C9      :  57.703683
 C3      -P1      -C2      -H35     : -61.352087
 C3      -P1      -C4      -C15     :  44.462627
 C3      -P1      -C4      -C19     :-131.705592
 C3      -C10     -C11     -C12     : -56.734751
 C3      -C10     -C11     -H49     :  64.257191
 C3      -C10     -C11     -H50     :-179.605434
 C3      -C14     -C13     -C12     :  56.578971
 C3      -C14     -C13     -H53     : -64.297862
 C3      -C14     -C13     -H54     : 179.345252
 C4      -P1      -C2      -C5      : -75.793391
 C4      -P1      -C2      -C9      : 160.504882
 C4      -P1      -C2      -H35     :  41.449112
 C4      -P1      -C3      -C10     :  42.309986
 C4      -P1      -C3      -C14     : 164.015689
 C4      -P1      -C3      -H46     : -78.284749
 C4      -C15     -C16     -C17     :   0.738873
 C4      -C15     -C16     -H58     : 179.824555
 C4      -C19     -C18     -C17     :   2.079058
 C4      -C19     -C18     -H60     :-178.289505
 C4      -C19     -C20     -C21     :  83.034551
 C4      -C19     -C20     -C25     :-103.738408
 C5      -C2      -C9      -C8      : -54.338402
 C5      -C2      -C9      -H44     :  65.061718
 C5      -C2      -C9      -H45     :-179.973354
 C5      -C6      -C7      -C8      :  54.554957
 C5      -C6      -C7      -H40     : 177.392316
 C5      -C6      -C7      -H41     : -65.816069
 C6      -C5      -C2      -C9      :  53.354084
 C6      -C5      -C2      -H35     : 170.855937
 C6      -C7      -C8      -C9      : -54.910391
 C6      -C7      -C8      -H42     :-176.916508
 C6      -C7      -C8      -H43     :  66.089609
 C7      -C6      -C5      -H36     :-178.652105
 C7      -C6      -C5      -H37     :  65.041175
 C7      -C8      -C9      -H44     : -62.708437
 C7      -C8      -C9      -H45     :-178.312355
 C8      -C7      -C6      -H38     : 176.574611
 C8      -C7      -C6      -H39     : -66.538804
 C8      -C9      -C2      -H35     :-172.098440
 C9      -C2      -C5      -H36     : 177.451276
 C9      -C2      -C5      -H37     : -66.944943
 C9      -C8      -C7      -H40     :-177.674561
 C9      -C8      -C7      -H41     :  65.595938
 C10     -C3      -C14     -C13     : -57.323029
 C10     -C3      -C14     -H55     : 179.473276
 C10     -C3      -C14     -H56     :  63.263058
 C10     -C11     -C12     -C13     :  54.026433
 C10     -C11     -C12     -H51     : -66.175834
 C10     -C11     -C12     -H52     : 177.015852
 C11     -C10     -C3      -C14     :  57.201032
 C11     -C10     -C3      -H46     : -60.292824
 C11     -C12     -C13     -C14     : -53.838866
 C11     -C12     -C13     -H53     :  66.954748
 C11     -C12     -C13     -H54     :-176.260687
 C12     -C11     -C10     -H47     :  63.570627
 C12     -C11     -C10     -H48     : 179.879627
 C12     -C13     -C14     -H55     :-179.332528
 C12     -C13     -C14     -H56     : -63.390429
 C13     -C12     -C11     -H49     : -66.815246
 C13     -C12     -C11     -H50     : 176.461883
 C13     -C14     -C3      -H46     :  59.870670
 C14     -C3      -C10     -H47     : -63.104477
 C14     -C3      -C10     -H48     : 179.847121
 C14     -C13     -C12     -H51     :  66.355179
 C14     -C13     -C12     -H52     :-176.825007
 C15     -C4      -C19     -C18     :  -2.866236
 C15     -C4      -C19     -C20     : 174.980639
 C15     -C16     -C17     -C18     :  -1.602027
 C15     -C16     -C17     -H59     : 178.656620
 C16     -C15     -C4      -C19     :   1.530851
 C16     -C17     -C18     -C19     :   0.188293
 C16     -C17     -C18     -H60     :-179.437939
 C17     -C16     -C15     -H57     :-178.262095
 C17     -C18     -C19     -C20     :-175.971871
 C18     -C17     -C16     -H58     : 179.316725
 C18     -C19     -C20     -C21     : -99.072221
 C18     -C19     -C20     -C25     :  74.154821
 C19     -C4      -C15     -H57     :-179.473853
 C19     -C18     -C17     -H59     : 179.931133
 C19     -C20     -C21     -C22     : 174.375127
 C19     -C20     -C21     -C28     :  -2.267333
 C19     -C20     -C25     -C24     :-174.638039
 C19     -C20     -C25     -C26     :   3.469593
 C20     -C19     -C18     -H60     :   3.659566
 C20     -C21     -C22     -C23     :  -0.308851
 C20     -C21     -C22     -H61     :-179.580567
 C20     -C21     -C28     -C29     : 103.761067
 C20     -C21     -C28     -C32     :-131.052637
 C20     -C21     -C28     -H67     : -12.891385
 C20     -C25     -C24     -C23     :   0.564123
 C20     -C25     -C24     -H62     :-179.921150
 C20     -C25     -C26     -C27     : 132.138114
 C20     -C25     -C26     -C31     :-104.106539
 C20     -C25     -C26     -H63     :  13.470863
 C21     -C20     -C25     -C24     :  -1.292214
 C21     -C20     -C25     -C26     : 176.815418
 C21     -C22     -C23     -C24     :  -0.422366
 C21     -C22     -C23     -C30     :-179.432290
 C21     -C28     -C29     -H68     :  62.381643
 C21     -C28     -C29     -H69     : -57.539468
 C21     -C28     -C29     -H70     :-177.716506
 C21     -C28     -C32     -H75     : -65.615057
 C21     -C28     -C32     -H76     :  55.097315
 C21     -C28     -C32     -H77     : 175.198607
 C22     -C21     -C20     -C25     :   1.171943
 C22     -C21     -C28     -C29     : -72.886321
 C22     -C21     -C28     -C32     :  52.299976
 C22     -C21     -C28     -H67     : 170.461228
 C22     -C23     -C24     -C25     :   0.291501
 C22     -C23     -C24     -H62     :-179.225979
 C22     -C23     -C30     -C33     :  65.196098
 C22     -C23     -C30     -C34     : -59.921832
 C22     -C23     -C30     -H71     :-177.497986
 C23     -C22     -C21     -C28     : 176.414375
 C23     -C24     -C25     -C26     :-177.621058
 C23     -C30     -C33     -H78     : -63.401301
 C23     -C30     -C33     -H79     :  56.562744
 C23     -C30     -C33     -H80     : 176.946055
 C23     -C30     -C34     -H81     :  63.862493
 C23     -C30     -C34     -H82     :-176.575810
 C23     -C30     -C34     -H83     : -56.197656
 C24     -C23     -C22     -H61     : 178.846203
 C24     -C23     -C30     -C33     :-113.784622
 C24     -C23     -C30     -C34     : 121.097447
 C24     -C23     -C30     -H71     :   3.521293
 C24     -C25     -C26     -C27     : -49.746700
 C24     -C25     -C26     -C31     :  74.008647
 C24     -C25     -C26     -H63     :-168.413952
 C25     -C20     -C21     -C28     :-175.470517
 C25     -C24     -C23     -C30     : 179.314228
 C25     -C26     -C27     -H64     :  68.269412
 C25     -C26     -C27     -H65     :-172.700781
 C25     -C26     -C27     -H66     : -52.428580
 C25     -C26     -C31     -H72     : -61.202281
 C25     -C26     -C31     -H73     :  58.860948
 C25     -C26     -C31     -H74     : 179.197665
 C26     -C25     -C24     -H62     :   1.893669
 C27     -C26     -C31     -H72     :  64.284822
 C27     -C26     -C31     -H73     :-175.651950
 C27     -C26     -C31     -H74     : -55.315233
 C28     -C21     -C22     -H61     :  -2.857341
 C29     -C28     -C32     -H75     :  59.362434
 C29     -C28     -C32     -H76     :-179.925195
 C29     -C28     -C32     -H77     : -59.823903
 C30     -C23     -C22     -H61     :  -0.163721
 C30     -C23     -C24     -H62     :  -0.203251
 C31     -C26     -C27     -H64     : -56.219378
 C31     -C26     -C27     -H65     :  62.810429
 C31     -C26     -C27     -H66     :-176.917369
 C32     -C28     -C29     -H68     : -63.730638
 C32     -C28     -C29     -H69     : 176.348251
 C32     -C28     -C29     -H70     :  56.171214
 C33     -C30     -C34     -H81     : -61.647938
 C33     -C30     -C34     -H82     :  57.913758
 C33     -C30     -C34     -H83     : 178.291913
 C34     -C30     -C33     -H78     :  62.325234
 C34     -C30     -C33     -H79     :-177.710721
 C34     -C30     -C33     -H80     : -57.327410
 H35     -C2      -C5      -H36     : -65.046870
 H35     -C2      -C5      -H37     :  50.556910
 H35     -C2      -C9      -H44     : -52.698319
 H35     -C2      -C9      -H45     :  62.266608
 H36     -C5      -C6      -H38     :  59.161875
 H36     -C5      -C6      -H39     : -57.506316
 H37     -C5      -C6      -H38     : -57.144844
 H37     -C5      -C6      -H39     :-173.813036
 H38     -C6      -C7      -H40     : -60.588030
 H38     -C6      -C7      -H41     :  56.203585
 H39     -C6      -C7      -H40     :  56.298555
 H39     -C6      -C7      -H41     : 173.090170
 H40     -C7      -C8      -H42     :  60.319322
 H40     -C7      -C8      -H43     : -56.674561
 H41     -C7      -C8      -H42     : -56.410179
 H41     -C7      -C8      -H43     :-173.404062
 H42     -C8      -C9      -H44     :  59.644412
 H42     -C8      -C9      -H45     : -55.959506
 H43     -C8      -C9      -H44     : 176.643132
 H43     -C8      -C9      -H45     :  61.039214
 H46     -C3      -C10     -H47     : 179.401667
 H46     -C3      -C10     -H48     :  62.353265
 H46     -C3      -C14     -H55     : -63.333025
 H46     -C3      -C14     -H56     :-179.543243
 H47     -C10     -C11     -H49     :-175.437432
 H47     -C10     -C11     -H50     : -59.300056
 H48     -C10     -C11     -H49     : -59.128431
 H48     -C10     -C11     -H50     :  57.008944
 H49     -C11     -C12     -H51     : 172.982487
 H49     -C11     -C12     -H52     :  56.174173
 H50     -C11     -C12     -H51     :  56.259615
 H50     -C11     -C12     -H52     : -60.548698
 H51     -C12     -C13     -H53     :-172.851207
 H51     -C12     -C13     -H54     : -56.066642
 H52     -C12     -C13     -H53     : -56.031392
 H52     -C12     -C13     -H54     :  60.753173
 H53     -C13     -C14     -H55     :  59.790638
 H53     -C13     -C14     -H56     : 175.732738
 H54     -C13     -C14     -H55     : -56.566247
 H54     -C13     -C14     -H56     :  59.375852
 H57     -C15     -C16     -H58     :   0.823587
 H58     -C16     -C17     -H59     :  -0.424628
 H59     -C17     -C18     -H60     :   0.304901
 H63     -C26     -C27     -H64     :-172.881053
 H63     -C26     -C27     -H65     : -53.851246
 H63     -C26     -C27     -H66     :  66.420955
 H63     -C26     -C31     -H72     :-179.010991
 H63     -C26     -C31     -H73     : -58.947763
 H63     -C26     -C31     -H74     :  61.388954
 H67     -C28     -C29     -H68     : 179.300202
 H67     -C28     -C29     -H69     :  59.379091
 H67     -C28     -C29     -H70     : -60.797946
 H67     -C28     -C32     -H75     : 176.147327
 H67     -C28     -C32     -H76     : -63.140302
 H67     -C28     -C32     -H77     :  56.960990
 H71     -C30     -C33     -H78     : 179.596964
 H71     -C30     -C33     -H79     : -60.438990
 H71     -C30     -C33     -H80     :  59.944320
 H71     -C30     -C34     -H81     :-178.890837
 H71     -C30     -C34     -H82     : -59.329141
 H71     -C30     -C34     -H83     :  61.049014
 
  nuclear repulsion energy.......          4069.459560956 hartrees
 
 Non-default options chosen:
   SCF calculation type: DFT(b3pw91-d3)              
   DFT=Becke_3_Parameter/HF+Slater+Becke88+PW91+PW-GGAIIC (B3PW91-D3)
   Geometry will be optimized in redundant internal coordinates
   Solvation energy will be computed using PBF
     -solute cavity energy will not be included
     -surface area terms will not be included
   Vibrational frequencies and related properties will be computed
      from analytic second derivatives
   IR intensities will be computed
   Thermochemical properties will be computed
   Maximum number of geometry steps: 100
   Scaling standard convergence criteria by a factor of   5.00
   Solvent: benzene                                                         
   Internal dielectric constant:    1.000
   Continuum dielectric constant:   2.283
   Solvent probe molecule radius:   2.600
  
 Non-default print settings:
     11=  2
  
 Temporary integer options set:
     73=  2
  
  atom       vdw   vdw2    cov     mass  grid  daf  charge   basis
  P1        2.147  2.074  1.060   30.974    Y    Y      Y    ps_6-31g*
  C2        1.949  1.900  0.770   12.000    Y    Y      Y    ps_6-31g*
  C3        1.949  1.900  0.770   12.000    Y    Y      Y    ps_6-31g*
  C4        1.949  1.900  0.770   12.000    Y    Y      Y    ps_6-31g*
  C5        1.949  1.900  0.770   12.000    Y    Y      Y    ps_6-31g*
  C6        1.949  1.900  0.770   12.000    Y    Y      Y    ps_6-31g*
  C7        1.949  1.900  0.770   12.000    Y    Y      Y    ps_6-31g*
  C8        1.949  1.900  0.770   12.000    Y    Y      Y    ps_6-31g*
  C9        1.949  1.900  0.770   12.000    Y    Y      Y    ps_6-31g*
  C10       1.949  1.900  0.770   12.000    Y    Y      Y    ps_6-31g*
  C11       1.949  1.900  0.770   12.000    Y    Y      Y    ps_6-31g*
  C12       1.949  1.900  0.770   12.000    Y    Y      Y    ps_6-31g*
  C13       1.949  1.900  0.770   12.000    Y    Y      Y    ps_6-31g*
  C14       1.949  1.900  0.770   12.000    Y    Y      Y    ps_6-31g*
  C15       1.949  1.900  0.770   12.000    Y    Y      Y    ps_6-31g*
  C16       1.949  1.900  0.770   12.000    Y    Y      Y    ps_6-31g*
  C17       1.949  1.900  0.770   12.000    Y    Y      Y    ps_6-31g*
  C18       1.949  1.900  0.770   12.000    Y    Y      Y    ps_6-31g*
  C19       1.949  1.900  0.770   12.000    Y    Y      Y    ps_6-31g*
  C20       1.949  1.900  0.770   12.000    Y    Y      Y    ps_6-31g*
  C21       1.949  1.900  0.770   12.000    Y    Y      Y    ps_6-31g*
  C22       1.949  1.900  0.770   12.000    Y    Y      Y    ps_6-31g*
  C23       1.949  1.900  0.770   12.000    Y    Y      Y    ps_6-31g*
  C24       1.949  1.900  0.770   12.000    Y    Y      Y    ps_6-31g*
  C25       1.949  1.900  0.770   12.000    Y    Y      Y    ps_6-31g*
  C26       1.949  1.900  0.770   12.000    Y    Y      Y    ps_6-31g*
  C27       1.949  1.900  0.770   12.000    Y    Y      Y    ps_6-31g*
  C28       1.949  1.900  0.770   12.000    Y    Y      Y    ps_6-31g*
  C29       1.949  1.900  0.770   12.000    Y    Y      Y    ps_6-31g*
  C30       1.949  1.900  0.770   12.000    Y    Y      Y    ps_6-31g*
  C31       1.949  1.900  0.770   12.000    Y    Y      Y    ps_6-31g*
  C32       1.949  1.900  0.770   12.000    Y    Y      Y    ps_6-31g*
  C33       1.949  1.900  0.770   12.000    Y    Y      Y    ps_6-31g*
  C34       1.949  1.900  0.770   12.000    Y    Y      Y    ps_6-31g*
  H35       1.597  1.150  0.320    1.008    Y    Y      Y    ps_6-31g*
  H36       1.597  1.150  0.320    1.008    Y    Y      Y    ps_6-31g*
  H37       1.597  1.150  0.320    1.008    Y    Y      Y    ps_6-31g*
  H38       1.597  1.150  0.320    1.008    Y    Y      Y    ps_6-31g*
  H39       1.597  1.150  0.320    1.008    Y    Y      Y    ps_6-31g*
  H40       1.597  1.150  0.320    1.008    Y    Y      Y    ps_6-31g*
  H41       1.597  1.150  0.320    1.008    Y    Y      Y    ps_6-31g*
  H42       1.597  1.150  0.320    1.008    Y    Y      Y    ps_6-31g*
  H43       1.597  1.150  0.320    1.008    Y    Y      Y    ps_6-31g*
  H44       1.597  1.150  0.320    1.008    Y    Y      Y    ps_6-31g*
  H45       1.597  1.150  0.320    1.008    Y    Y      Y    ps_6-31g*
  H46       1.597  1.150  0.320    1.008    Y    Y      Y    ps_6-31g*
  H47       1.597  1.150  0.320    1.008    Y    Y      Y    ps_6-31g*
  H48       1.597  1.150  0.320    1.008    Y    Y      Y    ps_6-31g*
  H49       1.597  1.150  0.320    1.008    Y    Y      Y    ps_6-31g*
  H50       1.597  1.150  0.320    1.008    Y    Y      Y    ps_6-31g*
  H51       1.597  1.150  0.320    1.008    Y    Y      Y    ps_6-31g*
  H52       1.597  1.150  0.320    1.008    Y    Y      Y    ps_6-31g*
  H53       1.597  1.150  0.320    1.008    Y    Y      Y    ps_6-31g*
  H54       1.597  1.150  0.320    1.008    Y    Y      Y    ps_6-31g*
  H55       1.597  1.150  0.320    1.008    Y    Y      Y    ps_6-31g*
  H56       1.597  1.150  0.320    1.008    Y    Y      Y    ps_6-31g*
  H57       1.597  1.150  0.320    1.008    Y    Y      Y    ps_6-31g*
  H58       1.597  1.150  0.320    1.008    Y    Y      Y    ps_6-31g*
  H59       1.597  1.150  0.320    1.008    Y    Y      Y    ps_6-31g*
  H60       1.597  1.150  0.320    1.008    Y    Y      Y    ps_6-31g*
  H61       1.597  1.150  0.320    1.008    Y    Y      Y    ps_6-31g*
  H62       1.597  1.150  0.320    1.008    Y    Y      Y    ps_6-31g*
  H63       1.597  1.150  0.320    1.008    Y    Y      Y    ps_6-31g*
  H64       1.597  1.150  0.320    1.008    Y    Y      Y    ps_6-31g*
  H65       1.597  1.150  0.320    1.008    Y    Y      Y    ps_6-31g*
  H66       1.597  1.150  0.320    1.008    Y    Y      Y    ps_6-31g*
  H67       1.597  1.150  0.320    1.008    Y    Y      Y    ps_6-31g*
  H68       1.597  1.150  0.320    1.008    Y    Y      Y    ps_6-31g*
  H69       1.597  1.150  0.320    1.008    Y    Y      Y    ps_6-31g*
  H70       1.597  1.150  0.320    1.008    Y    Y      Y    ps_6-31g*
  H71       1.597  1.150  0.320    1.008    Y    Y      Y    ps_6-31g*
  H72       1.597  1.150  0.320    1.008    Y    Y      Y    ps_6-31g*
  H73       1.597  1.150  0.320    1.008    Y    Y      Y    ps_6-31g*
  H74       1.597  1.150  0.320    1.008    Y    Y      Y    ps_6-31g*
  H75       1.597  1.150  0.320    1.008    Y    Y      Y    ps_6-31g*
  H76       1.597  1.150  0.320    1.008    Y    Y      Y    ps_6-31g*
  H77       1.597  1.150  0.320    1.008    Y    Y      Y    ps_6-31g*
  H78       1.597  1.150  0.320    1.008    Y    Y      Y    ps_6-31g*
  H79       1.597  1.150  0.320    1.008    Y    Y      Y    ps_6-31g*
  H80       1.597  1.150  0.320    1.008    Y    Y      Y    ps_6-31g*
  H81       1.597  1.150  0.320    1.008    Y    Y      Y    ps_6-31g*
  H82       1.597  1.150  0.320    1.008    Y    Y      Y    ps_6-31g*
  H83       1.597  1.150  0.320    1.008    Y    Y      Y    ps_6-31g*
  
  end of program pre
   
 Time(pre)  user:       0.793  user+sys:       0.793  wallclock:       1.010
  
  start of program onee
  
  smallest eigenvalue of S:    3.216E-04
  number of canonical orbitals.....          576
  end of program onee
   
 Time(onee)  user:       0.655  user+sys:       0.655  wallclock:       0.657
  
  start of program hfig
  
  initial wavefunction generated automatically from atomic wavefunctions
 
  Irreducible     Total no   No of occupied orbitals 
  representation  orbitals   Shell_1  Shell_2    ...
  No Symm          576        131
  ------------------------
  Orbital occupation/shell    1.000
 
  end of program hfig
   
 Time(hfig)  user:       0.910  user+sys:       0.910  wallclock:       1.119
  
  start of program probe
  
  end of program probe
   
 Time(probe)  user:       0.487  user+sys:       0.487  wallclock:       0.447
  
  start of program grid
  
   grid     grid set  grid #  grid sym
  ------    --------  ------  --------
  coarse        0        0        1
  medium        2        1        1
  fine          0        0        1
  ultrafine     4        2        1
  charge       -1        3        1
  gradient      4        2        1
  density       0        0        1
  DFT-fine    -11        4        1
  DFT-med.    -10        5        1
  DFT-grad    -12        6        1
  DFT-der2     -8        7        1
  DFT-cphf     -9        8        1
  LMP2-enrg     4        2        1
  LMP2-grad     2        1        1
  DFT-cphf2   -15        9        1
  PBF-dens      0        0        1
  plotting      0        0        1
  Rel-grad    -17        0        1
  
  number of gridpoints: 
     atom           P1          C2          C3          C4          C5          C6          C7
  grid # 1         560          91          92         100          87          86          86
  grid # 2         560         325         322         364         295         298         297
  grid # 3          28           6           6           8           6           6           6
  grid # 4        4304        4304        4304        4304        4304        4304        4304
  grid # 5        1192        1192        1192        1192        1192        1192        1192
  grid # 6        8076        5226        5226        5226        5226        5226        5226
  grid # 7       22092       12650       12650       12650       12650       12650       12650
  grid # 8         634         688         688         688         688         688         688
  grid # 9         340         358         358         358         358         358         358
   
  number of gridpoints: 
     atom           C8          C9         C10         C11         C12         C13         C14
  grid # 1          86          87          86          86          86          86          87
  grid # 2         298         295         296         297         298         297         298
  grid # 3           6           6           6           6           6           6           6
  grid # 4        4304        4304        4304        4304        4304        4304        4304
  grid # 5        1192        1192        1192        1192        1192        1192        1192
  grid # 6        5226        5226        5226        5226        5226        5226        5226
  grid # 7       12650       12650       12650       12650       12650       12650       12650
  grid # 8         688         688         688         688         688         688         688
  grid # 9         358         358         358         358         358         358         358
   
  number of gridpoints: 
     atom          C15         C16         C17         C18         C19         C20         C21
  grid # 1          95          96          96          95         100         100          98
  grid # 2         333         339         339         334         354         365         361
  grid # 3          16          31          33          17           8          16          18
  grid # 4        4304        4304        4304        4304        4304        4304        4304
  grid # 5        1192        1192        1192        1192        1192        1192        1192
  grid # 6        5226        5226        5226        5226        5226        5226        5226
  grid # 7       12650       12650       12650       12650       12650       12650       12650
  grid # 8         688         688         688         688         688         688         688
  grid # 9         358         358         358         358         358         358         358
   
  number of gridpoints: 
     atom          C22         C23         C24         C25         C26         C27         C28
  grid # 1          95         100          95          98          90          78          91
  grid # 2         345         364         345         361         314         268         314
  grid # 3          34          21          31          19           6           6           6
  grid # 4        4304        4304        4304        4304        4304        4304        4304
  grid # 5        1192        1192        1192        1192        1192        1192        1192
  grid # 6        5226        5226        5226        5226        5226        5226        5226
  grid # 7       12650       12650       12650       12650       12650       12650       12650
  grid # 8         688         688         688         688         688         688         688
  grid # 9         358         358         358         358         358         358         358
   
  number of gridpoints: 
     atom          C29         C30         C31         C32         C33         C34         H35
  grid # 1          78          90          79          78          78          78         106
  grid # 2         275         318         271         272         272         271         413
  grid # 3           6           6           6           6           6           6         145
  grid # 4        4304        4304        4304        4304        4304        4304        4304
  grid # 5        1192        1192        1192        1192        1192        1192        1192
  grid # 6        5226        5226        5226        5226        5226        5226        5226
  grid # 7       12650       12650       12650       12650       12650       12650       13718
  grid # 8         688         688         688         688         688         688         744
  grid # 9         358         358         358         358         358         358         382
   
  number of gridpoints: 
     atom          H36         H37         H38         H39         H40         H41         H42
  grid # 1         106         108         108         105         112         108         111
  grid # 2         411         435         428         426         440         438         440
  grid # 3          91         253         225         163         330         267         321
  grid # 4        4304        4304        4304        4304        4304        4304        4304
  grid # 5        1192        1192        1192        1192        1192        1192        1192
  grid # 6        5226        5226        5226        5226        5226        5226        5226
  grid # 7       13718       13718       13718       13718       13718       13718       13718
  grid # 8         744         744         744         744         744         744         744
  grid # 9         382         382         382         382         382         382         382
   
  number of gridpoints: 
     atom          H43         H44         H45         H46         H47         H48         H49
  grid # 1         104         108         106         104         102         106         108
  grid # 2         422         434         415         414         405         418         437
  grid # 3         169         253         143          97          64         146         263
  grid # 4        4304        4304        4304        4304        4304        4304        4304
  grid # 5        1192        1192        1192        1192        1192        1192        1192
  grid # 6        5226        5226        5226        5226        5226        5226        5226
  grid # 7       13718       13718       13718       13718       13718       13718       13718
  grid # 8         744         744         744         744         744         744         744
  grid # 9         382         382         382         382         382         382         382
   
  number of gridpoints: 
     atom          H50         H51         H52         H53         H54         H55         H56
  grid # 1         111         108         112         108         111         103         104
  grid # 2         439         436         440         437         441         409         423
  grid # 3         322         247         331         252         325         114         153
  grid # 4        4304        4304        4304        4304        4304        4304        4304
  grid # 5        1192        1192        1192        1192        1192        1192        1192
  grid # 6        5226        5226        5226        5226        5226        5226        5226
  grid # 7       13718       13718       13718       13718       13718       13718       13718
  grid # 8         744         744         744         744         744         744         744
  grid # 9         382         382         382         382         382         382         382
   
  number of gridpoints: 
     atom          H57         H58         H59         H60         H61         H62         H63
  grid # 1         107         118         118         110         105         107         105
  grid # 2         416         451         452         424         408         418         410
  grid # 3         167         418         415         198          93         143         111
  grid # 4        4304        4304        4304        4304        4304        4304        4304
  grid # 5        1192        1192        1192        1192        1192        1192        1192
  grid # 6        5226        5226        5226        5226        5226        5226        5226
  grid # 7       13718       13718       13718       13718       13718       13718       13718
  grid # 8         744         744         744         744         744         744         744
  grid # 9         382         382         382         382         382         382         382
   
  number of gridpoints: 
     atom          H64         H65         H66         H67         H68         H69         H70
  grid # 1         107         108         102         102         107         107         110
  grid # 2         427         435         412         401         432         437         437
  grid # 3         240         300         116          54         257         270         313
  grid # 4        4304        4304        4304        4304        4304        4304        4304
  grid # 5        1192        1192        1192        1192        1192        1192        1192
  grid # 6        5226        5226        5226        5226        5226        5226        5226
  grid # 7       13718       13718       13718       13718       13718       13718       13718
  grid # 8         744         744         744         744         744         744         744
  grid # 9         382         382         382         382         382         382         382
   
  number of gridpoints: 
     atom          H71         H72         H73         H74         H75         H76         H77
  grid # 1         108         108         107         110         106         106         106
  grid # 2         428         434         430         436         427         428         425
  grid # 3         218         265         223         321         233         182         225
  grid # 4        4304        4304        4304        4304        4304        4304        4304
  grid # 5        1192        1192        1192        1192        1192        1192        1192
  grid # 6        5226        5226        5226        5226        5226        5226        5226
  grid # 7       13718       13718       13718       13718       13718       13718       13718
  grid # 8         744         744         744         744         744         744         744
  grid # 9         382         382         382         382         382         382         382
   
  number of gridpoints: 
     atom          H78         H79         H80         H81         H82         H83       total
  grid # 1         108         110         110         107         109         110        8791
  grid # 2         431         442         439         430         440         443       31949
  grid # 3         246         342         322         247         321         335       11655
  grid # 4        4304        4304        4304        4304        4304        4304      357232
  grid # 5        1192        1192        1192        1192        1192        1192       98936
  grid # 6        5226        5226        5226        5226        5226        5226      436608
  grid # 7       13718       13718       13718       13718       13718       13718     1111724
  grid # 8         744         744         744         744         744         744       59794
  grid # 9         382         382         382         382         382         382       30872
   
  end of program grid
   
 Time(grid)  user:     150.166  user+sys:     150.166  wallclock:      77.217
  
  start of program rwr
  
  end of program rwr
   
 Time(rwr)  user:      15.566  user+sys:      15.566  wallclock:      21.236
  
  start of program scf
  
 number of electrons..........        262
 number of alpha electrons....        131
 number of beta electrons.....        131
 number of orbitals, total....        576
 number of doubly-occ'd orbs..        131
 number of open shell orbs....          0
 number of occupied orbitals..        131
 number of virtual orbitals...        445
 number of hamiltonians.......          1
 number of shells.............          1
 SCF type: DFT=Becke_3_Parameter/HF+Slater+Becke88+PW91+PW-GGAIIC (B3PW91-D3)
 Energy computed using pseudospectral method.
 Convergence Criterion:
    Energy (econv):       1.00E-05
    RMS density (dconv):  5.00E-06
  
       i  u  d  i  g                   
       t  p  i  c  r                                 RMS    maximum
       e  d  i  u  i                       energy  density   DIIS  
       r  t  s  t  d       total energy    change  change    error 
  
etot    1  N  N  5  M   -1624.04676145981           3.3E-03  8.5E-02
etot    2  Y  Y  6  M   -1627.32860439702  3.3E+00  2.3E-03  4.1E-02
etot    3  Y  Y  6  M   -1627.62255830285  2.9E-01  9.8E-04  2.9E-02
etot    4  N  Y  2  U   -1627.84717817494  2.2E-01  5.3E-04  3.2E-02
etot    5  Y  Y  6  M   -1627.87782718994  3.1E-02  2.4E-04  1.9E-02
etot    6  N  Y  2  U   -1627.87999184474  2.2E-03  4.4E-04  1.2E-02
etot    7  Y  Y  6  M   -1627.88144829949  1.5E-03  9.3E-05  3.1E-03
etot    8  Y  Y  6  M   -1627.88350837749  2.1E-03  2.5E-05  1.1E-03
etot    9  N  Y  2  U   -1627.88381149886  3.0E-04  8.8E-06  3.4E-04
etot   10  N  Y  2  U   -1627.88381606811  4.6E-06  2.1E-06  5.7E-05
etot   11  N  N  2  U   -1627.88381658803  5.2E-07  0.0E+00  0.0E+00
 
  Computing the dispersion energy correction and its gradients...
  
  
 Energy components, in hartrees:
   (A)  Nuclear repulsion............    4069.45956095635
   (E)  Total one-electron terms.....  -10313.10994771395
   (F)    Electron-nuclear...........  -11930.43670369561
   (H)    Kinetic....................    1617.32675598166
   (I)  Total two-electron terms.....    4615.76657016957
   (J)    Coulomb....................    4836.00890962513
   (K)    Exchange+Correlation.......    -220.24233945556
   (L)  Electronic energy............   -5697.34337754438  (E+I)
   (M)  -V/T.........................       2.00652747540  (-(A+F+I)/H)
   (N0) D3 correction................      -0.12432201368
   (N)  Total energy.................   -1628.00813860171  (A+L+N0)
   (O)  Gas phase energy.............   -1628.00813860171
  
 SCFE: SCF energy: DFT(b3pw91-d3)     -1628.00813860171 hartrees   iterations:  11
  
 
 HOMO energy:    -0.21101
 LUMO energy:    -0.02373
 
  Orbital energies (hartrees): 
   -77.03017   -10.18955   -10.18323   -10.17876   -10.17828   -10.17706
   -10.17477   -10.17471   -10.17466   -10.17450   -10.17416   -10.17267
   -10.17203   -10.17116   -10.16924   -10.16817   -10.16360   -10.16159
   -10.16072   -10.16030   -10.15966   -10.15938   -10.15894   -10.15781
   -10.15732   -10.15731   -10.15679   -10.15416   -10.15334   -10.15253
   -10.15169   -10.15039   -10.15006   -10.14859    -6.53248    -4.69075
    -4.69008    -4.68550    -0.86616    -0.84674    -0.82805    -0.82166
    -0.80564    -0.80338    -0.76808    -0.76013    -0.75748    -0.73862
    -0.73376    -0.73283    -0.72996    -0.71179    -0.70572    -0.67768
    -0.67567    -0.67438    -0.63955    -0.62409    -0.61675    -0.60471
    -0.60294    -0.59953    -0.59371    -0.58817    -0.58111    -0.55914
    -0.54616    -0.54154    -0.52769    -0.51837    -0.50222    -0.48033
    -0.47650    -0.47138    -0.46591    -0.45288    -0.44938    -0.44052
    -0.43956    -0.43647    -0.43222    -0.43140    -0.42942    -0.42579
    -0.42395    -0.42274    -0.42164    -0.41188    -0.41035    -0.40767
    -0.39973    -0.39726    -0.39072    -0.38415    -0.37946    -0.37908
    -0.37615    -0.37577    -0.37191    -0.37178    -0.36783    -0.36648
    -0.36491    -0.35610    -0.35366    -0.34800    -0.34520    -0.34164
    -0.33782    -0.33737    -0.33471    -0.33348    -0.33272    -0.33109
    -0.32796    -0.31952    -0.31697    -0.31427    -0.31086    -0.30592
    -0.30209    -0.29923    -0.29603    -0.29264    -0.28859    -0.27578
    -0.24905    -0.24565    -0.22946    -0.22652    -0.21101    -0.02373
    -0.01156     0.00554     0.00881     0.05410     0.05956     0.07874
     0.08765     0.09264     0.09894
 
  end of program scf
   
 Time(scf)  user:     296.565  user+sys:     296.565  wallclock:     158.330
  
  start of program der1a
  
  end of program der1a
   
 Time(der1a)  user:       1.204  user+sys:       1.204  wallclock:       1.064
  
  start of program rwr
  
  end of program rwr
   
 Time(rwr)  user:      17.667  user+sys:      17.667  wallclock:      25.578
  
  start of program der1b
  
   
  forces (hartrees/bohr) : total     
   
 atom  label           x              y              z
 ---- --------   -------------  -------------  -------------
    1 P1          3.548781E-03  -5.003654E-03   3.470334E-03
    2 C2          1.363681E-05  -5.903178E-04  -5.141152E-04
    3 C3          6.595086E-04   1.656334E-04   1.075292E-03
    4 C4         -1.570876E-03  -3.577019E-03  -1.745857E-03
    5 C5         -3.516047E-04  -1.076777E-03   3.625287E-04
    6 C6         -4.807857E-04  -1.294076E-04  -1.212040E-03
    7 C7          6.582509E-05  -2.176387E-04   9.178412E-04
    8 C8          2.397451E-04   1.684736E-04  -1.309636E-03
    9 C9          6.933789E-04  -4.534027E-04   8.753722E-04
   10 C10        -1.313048E-03  -5.832316E-05  -1.461625E-03
   11 C11         6.266447E-05  -6.319396E-04   8.905676E-04
   12 C12        -8.083813E-04   2.529110E-04  -5.652300E-04
   13 C13         8.638445E-05  -6.716704E-05   1.106543E-03
   14 C14        -1.073294E-03   5.166227E-04  -5.380309E-04
   15 C15        -2.646480E-03  -8.961407E-04  -1.382246E-03
   16 C16        -1.902576E-03   3.214386E-03  -1.470502E-03
   17 C17        -8.744206E-07   4.174825E-03   4.685740E-04
   18 C18         1.848041E-03   1.711001E-03   1.661991E-03
   19 C19         3.051386E-03  -3.678198E-03   2.285209E-03
   20 C20        -3.818434E-03   1.951391E-03  -2.350152E-03
   21 C21        -3.716748E-03   3.214543E-05   2.126026E-03
   22 C22        -1.217273E-04  -1.539701E-03   2.385852E-03
   23 C23         3.635808E-03  -2.645331E-03   1.920416E-03
   24 C24         2.475968E-03   8.060504E-05  -1.188885E-03
   25 C25         1.458084E-03   2.246481E-03  -3.325000E-03
   26 C26         1.794796E-03  -5.551475E-04   5.977381E-04
   27 C27         9.462617E-05   9.297645E-04   4.610899E-04
   28 C28         1.201046E-03  -1.007121E-03   1.595041E-03
   29 C29        -5.102237E-04  -9.031953E-05  -1.010051E-04
   30 C30        -9.438182E-04  -2.077023E-04   8.023913E-04
   31 C31        -2.864429E-05  -1.711957E-04  -5.628580E-04
   32 C32         3.029307E-04   5.730751E-04   3.964802E-04
   33 C33         4.980258E-04  -2.262093E-04  -5.835260E-04
   34 C34         5.681009E-04   3.888466E-04  -1.815088E-04
   35 H35        -2.873674E-03   5.436889E-03  -1.598280E-03
   36 H36         2.933058E-03   4.287454E-03   2.094658E-03
   37 H37        -1.412452E-04   1.569622E-03  -5.776306E-03
   38 H38         5.565122E-03   2.957493E-04  -2.235215E-03
   39 H39         8.078570E-04  -1.205978E-03   5.561154E-03
   40 H40         2.841872E-03  -5.121155E-03   6.873177E-04
   41 H41        -2.912498E-05   3.800382E-04  -5.866839E-03
   42 H42        -2.984019E-03  -4.409020E-03  -2.587194E-03
   43 H43        -1.925428E-05  -1.591641E-03   5.603702E-03
   44 H44        -6.889560E-04   1.094559E-03  -5.813284E-03
   45 H45        -5.611219E-03  -2.407819E-04   1.849583E-03
   46 H46        -2.851594E-03   2.132772E-03  -4.986629E-03
   47 H47         2.781116E-03  -1.696248E-03   4.904263E-03
   48 H48         1.737532E-03   5.784699E-03  -8.709194E-04
   49 H49        -2.939489E-03   2.664293E-03  -4.317703E-03
   50 H50        -1.695013E-03   3.495517E-03   4.541128E-03
   51 H51         1.706469E-03  -2.143156E-03   5.143262E-03
   52 H52        -5.861267E-03  -2.235659E-04   7.765868E-04
   53 H53        -3.012444E-03   1.317839E-03  -4.827571E-03
   54 H54        -1.715046E-03  -5.572034E-03   7.580947E-04
   55 H55         1.782288E-03  -3.577255E-03  -4.377281E-03
   56 H56         2.834398E-03  -2.235835E-03   4.470584E-03
   57 H57        -4.650424E-03  -1.642095E-03  -3.867400E-03
   58 H58        -3.746890E-03   4.272289E-03  -2.561529E-03
   59 H59         8.395428E-04   6.040633E-03   1.299052E-03
   60 H60         4.769625E-03   2.222214E-03   3.642755E-03
   61 H61        -1.355730E-03  -3.240684E-03   5.406759E-03
   62 H62         5.884357E-03  -3.943567E-04  -2.624757E-03
   63 H63        -4.885674E-03   1.979098E-03  -2.383611E-03
   64 H64         5.415188E-03  -1.692668E-03   1.609699E-03
   65 H65         9.454127E-04   2.857592E-03  -4.976943E-03
   66 H66        -2.588630E-03  -5.106511E-03  -1.816932E-03
   67 H67        -3.923873E-03   2.481755E-03  -3.774425E-03
   68 H68         3.454150E-03  -1.597207E-03   3.945621E-03
   69 H69         1.645184E-03   5.401336E-03  -5.994838E-04
   70 H70        -4.915301E-03   7.801486E-04   2.920290E-03
   71 H71         4.584684E-03   6.048655E-04  -3.754862E-03
   72 H72         5.099774E-03  -9.978165E-04   2.414700E-03
   73 H73        -2.365482E-03   4.007831E-03   3.674391E-03
   74 H74         1.473841E-03   3.214944E-03  -4.619460E-03
   75 H75         3.189884E-03  -2.957814E-03   3.952677E-03
   76 H76        -5.047540E-04  -3.841465E-03  -4.186240E-03
   77 H77        -5.136356E-03   2.322253E-04   2.625354E-03
   78 H78        -3.930339E-03  -1.089784E-04   4.107499E-03
   79 H79         1.795349E-03   5.427348E-03   1.887643E-05
   80 H80         4.445205E-03  -2.638804E-03   2.446804E-03
   81 H81        -4.381517E-03  -1.218706E-03   3.527852E-03
   82 H82         4.289462E-03  -3.199067E-03   2.115646E-03
   83 H83        -1.268322E-03  -2.736554E-03  -4.850837E-03
 -------------   -------------  -------------  -------------
     total       -2.430442E-04   2.175766E-03   1.731672E-03
   
  end of program der1b
   
 Time(der1b)  user:     121.237  user+sys:     121.237  wallclock:      63.339
  
  start of program geopt
  
 ----------------------------------------------------------------------------
  Geometry optimization step  1
  Total energy:     -1628.00813860171 hartrees
 ----------------------------------------------------------------------------
  
  gradient maximum:        1.9612E-02 .  (  2.2500E-03 )
  gradient rms:            4.6427E-03 .  (  1.5000E-03 )
  displacement maximum:    6.2713E-02 .  (  9.0000E-03 )
  displacement rms:        1.7726E-02 .  (  6.0000E-03 )
  
  predicted energy change:  -1.0388E-02
  step size:     0.29395
  trust radius:  0.30000
  
  molecular structure not yet converged...
  
  center of mass moved by:
     x:    -4.5461E-03     y:    -1.4436E-02     z:    -5.9909E-04
  
  new geometry: 
                                   angstroms
  atom               x                 y                 z
  P1           -0.0771036804     -0.0523470297     -0.0367100003 
  C2           -0.0561922187     -0.0511949710      1.8541295205 
  C3            1.7732255982      0.0198642660     -0.4062169674 
  C4           -0.4160023314     -1.8574597823     -0.2551847971 
  C5           -1.4915236074     -0.1976929967      2.3800584311 
  C6           -2.3243194487      1.0674099854      2.1673734969 
  C7           -1.6424295362      2.2959262697      2.7715549112 
  C8           -0.2204214889      2.4604103005      2.2333468279 
  C9            0.5970810074      1.1909902429      2.4695549130 
  C10           2.1955186738     -0.8015910163     -1.6307656687 
  C11           3.6987723184     -0.6804780202     -1.8849326056 
  C12           4.1205943050      0.7757922357     -2.0678728159 
  C13           3.6704935383      1.6281582268     -0.8829680390 
  C14           2.1675297351      1.4871580654     -0.6388940089 
  C15           0.4239090967     -2.8282472010      0.3028832839 
  C16           0.2328019891     -4.1821671654      0.0678958512 
  C17          -0.8119813234     -4.5900554686     -0.7554100234 
  C18          -1.6593319524     -3.6389274823     -1.3028941589 
  C19          -1.4895128889     -2.2737858188     -1.0494419260 
  C20          -2.4960736912     -1.3381431321     -1.6230419843 
  C21          -2.2263745504     -0.6485892193     -2.8125264504 
  C22          -3.2232047384      0.1357479704     -3.3816933657 
  C23          -4.4828959420      0.2585443215     -2.8014212640 
  C24          -4.7228980834     -0.4292190732     -1.6176269596 
  C25          -3.7532156214     -1.2255783159     -1.0120208303 
  C26          -4.0898937522     -1.9664663657      0.2691017426 
  C27          -4.7086550716     -1.0530113233      1.3294359813 
  C28          -0.8927385720     -0.8104567680     -3.5133327655 
  C29          -1.0549489006     -1.6521898290     -4.7818196877 
  C30          -5.5654300108      1.0984134836     -3.4420591832 
  C31          -5.0183429592     -3.1515390859     -0.0150255713 
  C32          -0.2108418581      0.5259193083     -3.8061855612 
  C33          -5.9824116087      0.5209070464     -4.7975622996 
  C34          -5.1355605154      2.5606329533     -3.5801954413 
  H35           0.5195655714     -0.9343383450      2.1630152584 
  H36          -1.9811413302     -1.0606164273      1.9110086384 
  H37          -1.4378196984     -0.4160823309      3.4581596021 
  H38          -3.3187221634      0.9334454365      2.6121738413 
  H39          -2.4762176289      1.2244406763      1.0904666318 
  H40          -2.2345268217      3.1974801131      2.5687095397 
  H41          -1.6002714090      2.1846065288      3.8661088740 
  H42           0.2748081141      3.3163383506      2.7099816897 
  H43          -0.2658647917      2.6775263919      1.1565674478 
  H44           0.6736439340      1.0175536366      3.5548973571 
  H45           1.6267213000      1.3133208054      2.1132793426 
  H46           2.3212231562     -0.3591973343      0.4728050726 
  H47           1.6527014923     -0.4317012846     -2.5126891316 
  H48           1.9227446181     -1.8549330684     -1.5136497666 
  H49           4.2428845311     -1.1139998183     -1.0318520872 
  H50           3.9738309586     -1.2740644492     -2.7667922540 
  H51           3.6615405814      1.1686317020     -2.9876669128 
  H52           5.2077217473      0.8472705494     -2.2024760749 
  H53           4.2143406458      1.3127622816      0.0205999440 
  H54           3.9243002322      2.6830587859     -1.0506160821 
  H55           1.8656624598      2.1214122311      0.2020388501 
  H56           1.6180996627      1.8584854137     -1.5168012005 
  H57           1.2598003361     -2.5164301583      0.9251388449 
  H58           0.9038327823     -4.9125448294      0.5130220916 
  H59          -0.9687912942     -5.6443471317     -0.9685914027 
  H60          -2.4817096970     -3.9466638036     -1.9432595676 
  H61          -3.0142898660      0.6565372331     -4.3135467504 
  H62          -5.7046321096     -0.3459219761     -1.1556999676 
  H63          -3.1560866673     -2.3653282124      0.6826749830 
  H64          -5.7166546337     -0.7272784300      1.0469762765 
  H65          -4.7920910763     -1.5857176753      2.2844274596 
  H66          -4.0998899562     -0.1580288454      1.4856861535 
  H67          -0.2322385660     -1.3650286933     -2.8384717918 
  H68          -1.7197369540     -1.1543283174     -5.4988910789 
  H69          -1.4858206551     -2.6321927762     -4.5469624575 
  H70          -0.0846361826     -1.8106820474     -5.2687326395 
  H71          -6.4415601140      1.0670102021     -2.7786393944 
  H72          -5.9639039724     -2.8043135178     -0.4493976672 
  H73          -4.5641989547     -3.8560245766     -0.7187822993 
  H74          -5.2475368167     -3.6936220730      0.9108836565 
  H75          -0.7724370253      1.1214167501     -4.5357780297 
  H76          -0.1092507439      1.1157663197     -2.8886620933 
  H77           0.7901165784      0.3574462213     -4.2230337272 
  H78          -5.1448304045      0.5414149442     -5.5057269971 
  H79          -6.3108075945     -0.5195152698     -4.6978224666 
  H80          -6.8041695923      1.1034184867     -5.2322127920 
  H81          -4.2775619386      2.6571521156     -4.2565504240 
  H82          -5.9528741983      3.1674910002     -3.9888612220 
  H83          -4.8453103207      2.9784869047     -2.6101479674 
   
 
  bond lengths (angstroms):
 
 P1      -C2      :   1.890956      P1      -C3      :   1.888245
 P1      -C4      :   1.849599      C2      -C5      :   1.535656
 C2      -C9      :   1.532494      C2      -H35     :   1.098567
 C3      -C10     :   1.533832      C3      -C14     :   1.537064
 C3      -H46     :   1.103027      C4      -C15     :   1.399757
 C4      -C19     :   1.398784      C5      -C6      :   1.529467
 C5      -H36     :   1.097438      C5      -H37     :   1.101308
 C6      -C7      :   1.529464      C6      -H38     :   1.097557
 C6      -H39     :   1.098845      C7      -C8      :   1.529323
 C7      -H40     :   1.097508      C7      -H41     :   1.101008
 C8      -C9      :   1.528245      C8      -H42     :   1.097746
 C8      -H43     :   1.099390      C9      -H44     :   1.101776
 C9      -H45     :   1.096383      C10     -C11     :   1.529392
 C10     -H47     :   1.099663      C10     -H48     :   1.094373
 C11     -C12     :   1.527129      C11     -H49     :   1.100793
 C11     -H50     :   1.098034      C12     -C13     :   1.527455
 C12     -H51     :   1.100488      C12     -H52     :   1.097758
 C13     -C14     :   1.529168      C13     -H53     :   1.100763
 C13     -H54     :   1.097879      C14     -H55     :   1.095705
 C14     -H56     :   1.100217      C15     -C16     :   1.387386
 C15     -H57     :   1.087725      C16     -C17     :   1.391322
 C16     -H58     :   1.087139      C17     -C18     :   1.386502
 C17     -H59     :   1.086999      C18     -C19     :   1.398817
 C18     -H60     :   1.086773      C19     -C20     :   1.489164
 C20     -C21     :   1.401105      C20     -C25     :   1.402292
 C21     -C22     :   1.390254      C21     -C28     :   1.515228
 C22     -C23     :   1.392342      C22     -H61     :   1.087758
 C23     -C24     :   1.389960      C23     -C30     :   1.512507
 C24     -C25     :   1.393281      C24     -H62     :   1.088171
 C25     -C26     :   1.517743      C26     -C27     :   1.530220
 C26     -C31     :   1.532039      C26     -H63     :   1.096417
 C27     -H64     :   1.096334      C27     -H65     :   1.096698
 C27     -H66     :   1.093619      C28     -C29     :   1.530975
 C28     -C32     :   1.528609      C28     -H67     :   1.095102
 C29     -H68     :   1.097270      C29     -H69     :   1.095999
 C29     -H70     :   1.097138      C30     -C33     :   1.531266
 C30     -C34     :   1.530345      C30     -H71     :   1.099416
 C31     -H72     :   1.096964      C31     -H73     :   1.094450
 C31     -H74     :   1.097129      C32     -H75     :   1.096500
 C32     -H76     :   1.095486      C32     -H77     :   1.097298
 C33     -H78     :   1.097023      C33     -H79     :   1.095569
 C33     -H80     :   1.097054      C34     -H81     :   1.096783
 C34     -H82     :   1.096944      C34     -H83     :   1.095372
 
  bond angles:
 
 C3      -P1      -C2      : 100.650413  C4      -P1      -C2      :  96.934449
 C4      -P1      -C3      : 101.172125  C5      -C2      -P1      : 109.394040
 C9      -C2      -P1      : 114.001933  C9      -C2      -C5      : 109.768717
 H35     -C2      -P1      : 106.646158  H35     -C2      -C5      : 108.473962
 H35     -C2      -C9      : 108.378272  C10     -C3      -P1      : 113.924907
 C14     -C3      -P1      : 108.512353  C14     -C3      -C10     : 108.648787
 H46     -C3      -P1      : 108.526725  H46     -C3      -C10     : 108.384805
 H46     -C3      -C14     : 108.738201  C15     -C4      -P1      : 121.320282
 C19     -C4      -P1      : 119.878794  C19     -C4      -C15     : 118.716083
 C6      -C5      -C2      : 112.482146  H36     -C5      -C2      : 110.220535
 H36     -C5      -C6      : 110.367193  H37     -C5      -C2      : 107.974933
 H37     -C5      -C6      : 109.068851  H37     -C5      -H36     : 106.512771
 C7      -C6      -C5      : 111.512653  H38     -C6      -C5      : 109.634004
 H38     -C6      -C7      : 109.991663  H39     -C6      -C5      : 109.253916
 H39     -C6      -C7      : 109.510838  H39     -C6      -H38     : 106.820442
 C8      -C7      -C6      : 111.218198  H40     -C7      -C6      : 110.260220
 H40     -C7      -C8      : 110.379743  H41     -C7      -C6      : 109.182081
 H41     -C7      -C8      : 108.973671  H41     -C7      -H40     : 106.705506
 C9      -C8      -C7      : 110.711329  H42     -C8      -C7      : 110.519938
 H42     -C8      -C9      : 109.829798  H43     -C8      -C7      : 109.116729
 H43     -C8      -C9      : 109.726783  H43     -C8      -H42     : 106.853639
 C8      -C9      -C2      : 112.531231  H44     -C9      -C2      : 107.314795
 H44     -C9      -C8      : 108.674070  H45     -C9      -C2      : 111.117021
 H45     -C9      -C8      : 111.067007  H45     -C9      -H44     : 105.807853
 C11     -C10     -C3      : 111.154282  H47     -C10     -C3      : 108.919093
 H47     -C10     -C11     : 108.981701  H48     -C10     -C3      : 111.187249
 H48     -C10     -C11     : 109.815824  H48     -C10     -H47     : 106.651289
 C12     -C11     -C10     : 111.525925  H49     -C11     -C10     : 109.018004
 H49     -C11     -C12     : 109.381518  H50     -C11     -C10     : 109.686921
 H50     -C11     -C12     : 110.493697  H50     -C11     -H49     : 106.599405
 C13     -C12     -C11     : 110.966052  H51     -C12     -C11     : 108.984241
 H51     -C12     -C13     : 109.041193  H52     -C12     -C11     : 110.507155
 H52     -C12     -C13     : 110.524222  H52     -C12     -H51     : 106.700568
 C14     -C13     -C12     : 111.222288  H53     -C13     -C12     : 109.347221
 H53     -C13     -C14     : 109.157077  H54     -C13     -C12     : 110.463227
 H54     -C13     -C14     : 109.888338  H54     -C13     -H53     : 106.644773
 C13     -C14     -C3      : 111.365633  H55     -C14     -C3      : 111.452249
 H55     -C14     -C13     : 109.871046  H56     -C14     -C3      : 108.352771
 H56     -C14     -C13     : 109.411138  H56     -C14     -H55     : 106.227837
 C16     -C15     -C4      : 121.778012  H57     -C15     -C4      : 119.365520
 H57     -C15     -C16     : 118.848985  C17     -C16     -C15     : 119.324667
 H58     -C16     -C15     : 120.083126  H58     -C16     -C17     : 120.586283
 C18     -C17     -C16     : 119.437604  H59     -C17     -C16     : 120.578980
 H59     -C17     -C18     : 119.983191  C19     -C18     -C17     : 121.583234
 H60     -C18     -C17     : 120.058399  H60     -C18     -C19     : 118.357987
 C18     -C19     -C4      : 119.112345  C20     -C19     -C4      : 123.398207
 C20     -C19     -C18     : 117.472651  C21     -C20     -C19     : 120.405382
 C25     -C20     -C19     : 119.245869  C25     -C20     -C21     : 120.197229
 C22     -C21     -C20     : 119.156737  C28     -C21     -C20     : 120.630440
 C28     -C21     -C22     : 120.132491  C23     -C22     -C21     : 121.859472
 H61     -C22     -C21     : 118.889321  H61     -C22     -C23     : 119.246251
 C24     -C23     -C22     : 117.873610  C30     -C23     -C22     : 121.331140
 C30     -C23     -C24     : 120.791254  C25     -C24     -C23     : 122.197327
 H62     -C24     -C23     : 118.648671  H62     -C24     -C25     : 119.152442
 C24     -C25     -C20     : 118.712642  C26     -C25     -C20     : 121.835403
 C26     -C25     -C24     : 119.440828  C27     -C26     -C25     : 112.532015
 C31     -C26     -C25     : 110.823294  C31     -C26     -C27     : 110.194525
 H63     -C26     -C25     : 107.881627  H63     -C26     -C27     : 107.468075
 H63     -C26     -C31     : 107.740076  H64     -C27     -C26     : 111.753401
 H65     -C27     -C26     : 110.133005  H65     -C27     -H64     : 107.380636
 H66     -C27     -C26     : 111.249677  H66     -C27     -H64     : 107.786149
 H66     -C27     -H65     : 108.387831  C29     -C28     -C21     : 110.407223
 C32     -C28     -C21     : 112.820363  C32     -C28     -C29     : 111.665691
 H67     -C28     -C21     : 107.453563  H67     -C28     -C29     : 107.221980
 H67     -C28     -C32     : 106.961836  H68     -C29     -C28     : 110.866527
 H69     -C29     -C28     : 110.837571  H69     -C29     -H68     : 107.912400
 H70     -C29     -C28     : 110.697365  H70     -C29     -H68     : 108.139989
 H70     -C29     -H69     : 108.277347  C33     -C30     -C23     : 111.126062
 C34     -C30     -C23     : 111.577050  C34     -C30     -C33     : 110.912492
 H71     -C30     -C23     : 107.392303  H71     -C30     -C33     : 107.841619
 H71     -C30     -C34     : 107.794793  H72     -C31     -C26     : 110.546564
 H73     -C31     -C26     : 111.450291  H73     -C31     -H72     : 107.866912
 H74     -C31     -C26     : 110.626787  H74     -C31     -H72     : 108.089729
 H74     -C31     -H73     : 108.138499  H75     -C32     -C28     : 111.949732
 H76     -C32     -C28     : 110.587178  H76     -C32     -H75     : 108.202119
 H77     -C32     -C28     : 110.210897  H77     -C32     -H75     : 107.326527
 H77     -C32     -H76     : 108.436125  H78     -C33     -C30     : 110.883908
 H79     -C33     -C30     : 111.050764  H79     -C33     -H78     : 107.781132
 H80     -C33     -C30     : 110.759377  H80     -C33     -H78     : 107.831830
 H80     -C33     -H79     : 108.408543  H81     -C34     -C30     : 111.068893
 H82     -C34     -C30     : 110.666943  H82     -C34     -H81     : 107.724609
 H83     -C34     -C30     : 111.037871  H83     -C34     -H81     : 107.773625
 H83     -C34     -H82     : 108.440254
 
  torsional angles:
 
 P1      -C2      -C5      -C6      : -71.846681
 P1      -C2      -C5      -H36     :  51.783883
 P1      -C2      -C5      -H37     : 167.756440
 P1      -C2      -C9      -C8      :  68.019352
 P1      -C2      -C9      -H44     :-172.480418
 P1      -C2      -C9      -H45     : -57.248451
 P1      -C3      -C10     -C11     : 179.083765
 P1      -C3      -C10     -H47     :  58.996702
 P1      -C3      -C10     -H48     : -58.243747
 P1      -C3      -C14     -C13     : 177.454414
 P1      -C3      -C14     -H55     :  54.369684
 P1      -C3      -C14     -H56     : -62.162878
 P1      -C4      -C15     -C16     :-175.423013
 P1      -C4      -C15     -H57     :   3.570132
 P1      -C4      -C19     -C18     : 174.250638
 P1      -C4      -C19     -C20     :  -7.279441
 C2      -P1      -C3      -C10     : 143.340764
 C2      -P1      -C3      -C14     : -95.496817
 C2      -P1      -C3      -H46     :  22.504936
 C2      -P1      -C4      -C15     : -56.533931
 C2      -P1      -C4      -C19     : 126.858642
 C2      -C5      -C6      -C7      : -54.574903
 C2      -C5      -C6      -H38     :-176.633640
 C2      -C5      -C6      -H39     :  66.619428
 C2      -C9      -C8      -C7      :  56.430310
 C2      -C9      -C8      -H42     : 178.755120
 C2      -C9      -C8      -H43     : -64.068877
 C3      -P1      -C2      -C5      :-176.419708
 C3      -P1      -C2      -C9      :  60.263889
 C3      -P1      -C2      -H35     : -59.297759
 C3      -P1      -C4      -C15     :  45.810909
 C3      -P1      -C4      -C19     :-130.796518
 C3      -C10     -C11     -C12     : -57.084456
 C3      -C10     -C11     -H49     :  63.798642
 C3      -C10     -C11     -H50     :-179.825636
 C3      -C14     -C13     -C12     :  57.098670
 C3      -C14     -C13     -H53     : -63.640484
 C3      -C14     -C13     -H54     : 179.735251
 C4      -P1      -C2      -C5      : -73.623838
 C4      -P1      -C2      -C9      : 163.059760
 C4      -P1      -C2      -H35     :  43.498112
 C4      -P1      -C3      -C10     :  43.996624
 C4      -P1      -C3      -C14     : 165.159042
 C4      -P1      -C3      -H46     : -76.839205
 C4      -C15     -C16     -C17     :   0.693140
 C4      -C15     -C16     -H58     : 179.812983
 C4      -C19     -C18     -C17     :   1.838500
 C4      -C19     -C18     -H60     :-178.385925
[...]
    H83      Y    -0.00137  -0.00063   0.00068  -0.00005   0.00183  -0.00481
    H83      Z    -0.00371  -0.00169   0.00166  -0.00017   0.00464  -0.01290
  
  vibration #          241       242       243
                 --------- --------- ---------
  frequencies      3192.98   3205.82   3217.29
  intensities         3.63     25.95     20.33
  reduc. mass         0.33      0.37      0.35
  force const         1.97      2.26      2.12
    P1       X     0.00007  -0.00005   0.00003
    P1       Y    -0.00001   0.00005   0.00003
    P1       Z     0.00005  -0.00005   0.00002
    C2       X     0.00017  -0.00006   0.00001
    C2       Y    -0.00037   0.00010  -0.00007
    C2       Z     0.00019  -0.00006   0.00004
    C3       X     0.00014  -0.00004   0.00002
    C3       Y    -0.00013   0.00003  -0.00004
    C3       Z     0.00022  -0.00008   0.00002
    C4       X    -0.00049   0.00090   0.00003
    C4       Y     0.00085  -0.00072   0.00039
    C4       Z    -0.00032   0.00064   0.00008
    C5       X     0.00000  -0.00001  -0.00000
    C5       Y     0.00002  -0.00001   0.00001
    C5       Z     0.00004  -0.00004   0.00006
    C6       X    -0.00001  -0.00001  -0.00005
    C6       Y    -0.00001   0.00001  -0.00000
    C6       Z     0.00006  -0.00005   0.00006
    C7       X     0.00000  -0.00000  -0.00001
    C7       Y    -0.00001   0.00001   0.00002
    C7       Z     0.00002  -0.00003   0.00002
    C8       X     0.00001  -0.00001   0.00002
    C8       Y    -0.00000  -0.00000   0.00003
    C8       Z     0.00009  -0.00007   0.00007
    C9       X     0.00001  -0.00000   0.00003
    C9       Y     0.00002  -0.00000   0.00001
    C9       Z    -0.00001  -0.00001   0.00003
    C10      X    -0.00007   0.00005  -0.00005
    C10      Y    -0.00042   0.00028  -0.00012
    C10      Z     0.00016  -0.00012  -0.00000
    C11      X     0.00003  -0.00004   0.00004
    C11      Y    -0.00002   0.00004  -0.00005
    C11      Z     0.00008  -0.00005  -0.00002
    C12      X     0.00000  -0.00002   0.00003
    C12      Y    -0.00001   0.00001   0.00001
    C12      Z     0.00001  -0.00002  -0.00001
    C13      X     0.00001  -0.00001   0.00002
    C13      Y    -0.00003   0.00002   0.00002
    C13      Z     0.00002  -0.00002   0.00001
    C14      X    -0.00003  -0.00001  -0.00003
    C14      Y     0.00001   0.00000   0.00004
    C14      Z    -0.00004   0.00000  -0.00001
    C15      X     0.02909  -0.01841   0.00825
    C15      Y     0.01215  -0.00972   0.00486
    C15      Z     0.02246  -0.01434   0.00648
    C16      X     0.01579  -0.03617   0.02139
    C16      Y    -0.02111   0.04029  -0.02084
    C16      Z     0.01065  -0.02510   0.01511
    C17      X     0.00740   0.00514  -0.00633
    C17      Y     0.05752   0.01421  -0.05269
    C17      Z     0.01185   0.00556  -0.01047
    C18      X    -0.02232  -0.03777  -0.04280
    C18      Y    -0.01074  -0.01579  -0.01449
    C18      Z    -0.01857  -0.03113  -0.03491
    C19      X    -0.00057  -0.00011  -0.00025
    C19      Y     0.00062   0.00181   0.00234
    C19      Z    -0.00032   0.00013   0.00007
    C20      X     0.00000  -0.00003  -0.00008
    C20      Y     0.00001  -0.00010  -0.00011
    C20      Z    -0.00000  -0.00002  -0.00005
    C21      X     0.00004   0.00006   0.00012
    C21      Y    -0.00004  -0.00007  -0.00009
    C21      Z     0.00005   0.00007   0.00006
    C22      X    -0.00002  -0.00005   0.00002
    C22      Y     0.00003  -0.00003   0.00017
    C22      Z    -0.00004   0.00008  -0.00023
    C23      X     0.00001   0.00002  -0.00000
    C23      Y    -0.00000  -0.00001   0.00001
    C23      Z    -0.00000  -0.00001  -0.00002
    C24      X     0.00010   0.00017  -0.00018
    C24      Y    -0.00001  -0.00000   0.00002
    C24      Z    -0.00005  -0.00008   0.00009
    C25      X     0.00005   0.00006   0.00007
    C25      Y    -0.00002  -0.00004  -0.00007
    C25      Z     0.00003   0.00004   0.00008
    C26      X     0.00014   0.00013   0.00008
    C26      Y    -0.00006  -0.00007  -0.00006
    C26      Z     0.00001  -0.00003  -0.00004
    C27      X    -0.00004  -0.00010  -0.00014
    C27      Y    -0.00008  -0.00012  -0.00017
    C27      Z     0.00002  -0.00003   0.00003
    C28      X     0.00002   0.00001  -0.00001
    C28      Y    -0.00002  -0.00003  -0.00001
    C28      Z     0.00002   0.00001  -0.00002
    C29      X    -0.00010  -0.00017  -0.00009
    C29      Y    -0.00020  -0.00036  -0.00032
    C29      Z     0.00010   0.00019   0.00011
    C30      X     0.00001   0.00002  -0.00002
    C30      Y     0.00000  -0.00000   0.00000
    C30      Z    -0.00000  -0.00001   0.00001
    C31      X     0.00143   0.00192   0.00159
    C31      Y    -0.00104  -0.00145  -0.00134
    C31      Z    -0.00145  -0.00192  -0.00154
    C32      X     0.00002  -0.00005  -0.00000
    C32      Y    -0.00001  -0.00001  -0.00001
    C32      Z    -0.00004  -0.00003  -0.00009
    C33      X     0.00001   0.00003  -0.00002
    C33      Y    -0.00000  -0.00004  -0.00000
    C33      Z     0.00000   0.00001  -0.00001
    C34      X     0.00000   0.00003  -0.00002
    C34      Y    -0.00000  -0.00002   0.00001
    C34      Z    -0.00000   0.00000  -0.00002
    H35      X    -0.00290   0.00120  -0.00048
    H35      Y     0.00475  -0.00189   0.00085
    H35      Z    -0.00271   0.00122  -0.00044
    H36      X    -0.00015   0.00006  -0.00017
    H36      Y    -0.00015   0.00012  -0.00012
    H36      Z     0.00005  -0.00001   0.00004
    H37      X     0.00006  -0.00001   0.00005
    H37      Y     0.00003  -0.00003   0.00007
    H37      Z    -0.00063   0.00057  -0.00079
    H38      X     0.00004   0.00017   0.00066
    H38      Y     0.00006  -0.00005   0.00001
    H38      Z    -0.00006  -0.00007  -0.00032
    H39      X    -0.00012   0.00007  -0.00012
    H39      Y     0.00009  -0.00010   0.00007
    H39      Z    -0.00065   0.00065  -0.00042
    H40      X    -0.00008   0.00009   0.00017
    H40      Y     0.00012  -0.00015  -0.00029
    H40      Z    -0.00003   0.00003   0.00008
    H41      X     0.00002  -0.00000   0.00000
    H41      Y     0.00001  -0.00000   0.00003
    H41      Z    -0.00026   0.00033  -0.00037
    H42      X    -0.00008   0.00012  -0.00026
    H42      Y    -0.00003   0.00011  -0.00045
    H42      Z    -0.00007   0.00010  -0.00027
    H43      X     0.00002  -0.00002   0.00002
    H43      Y     0.00020  -0.00015   0.00017
    H43      Z    -0.00088   0.00066  -0.00057
    H44      X    -0.00006   0.00000  -0.00005
    H44      Y    -0.00010  -0.00000  -0.00005
    H44      Z    -0.00048   0.00036  -0.00070
    H45      X    -0.00012   0.00007  -0.00016
    H45      Y    -0.00003   0.00002  -0.00000
    H45      Z     0.00007  -0.00004   0.00010
    H46      X    -0.00177   0.00078  -0.00027
    H46      Y     0.00174  -0.00088   0.00037
    H46      Z    -0.00335   0.00152  -0.00049
    H47      X    -0.00078   0.00057   0.00003
    H47      Y     0.00097  -0.00066   0.00004
    H47      Z    -0.00179   0.00123   0.00002
    H48      X     0.00136  -0.00098   0.00061
    H48      Y     0.00421  -0.00269   0.00140
    H48      Z     0.00033  -0.00008  -0.00008
    H49      X    -0.00051   0.00050  -0.00016
    H49      Y     0.00029  -0.00030   0.00009
    H49      Z    -0.00074   0.00079  -0.00028
    H50      X    -0.00001   0.00010  -0.00030
    H50      Y    -0.00004  -0.00013   0.00046
    H50      Z    -0.00005  -0.00024   0.00069
    H51      X    -0.00007   0.00011   0.00006
    H51      Y     0.00011  -0.00016  -0.00002
    H51      Z    -0.00018   0.00029   0.00009
    H52      X     0.00008   0.00013  -0.00051
    H52      Y     0.00004  -0.00001  -0.00002
    H52      Z     0.00001  -0.00002   0.00005
    H53      X    -0.00015   0.00015  -0.00007
    H53      Y     0.00005  -0.00006   0.00006
    H53      Z    -0.00023   0.00023  -0.00013
    H54      X    -0.00003  -0.00000  -0.00020
    H54      Y     0.00017  -0.00014  -0.00040
    H54      Z    -0.00002   0.00001   0.00009
    H55      X    -0.00009   0.00006   0.00005
    H55      Y     0.00038  -0.00022   0.00001
    H55      Z     0.00038  -0.00023  -0.00004
    H56      X     0.00016   0.00001   0.00015
    H56      Y     0.00011  -0.00012  -0.00008
    H56      Z     0.00003   0.00017   0.00021
    H57      X    -0.33121   0.20721  -0.09165
    H57      Y    -0.13088   0.08463  -0.03831
    H57      Z    -0.25473   0.15949  -0.07067
    H58      X    -0.19793   0.40860  -0.22250
    H58      Y     0.22131  -0.44690   0.23934
    H58      Z    -0.13700   0.28350  -0.15480
    H59      X    -0.08807  -0.02668   0.07493
    H59      Y    -0.66977  -0.16812   0.57400
    H59      Z    -0.13925  -0.03864   0.11884
    H60      X     0.27315   0.44027   0.47426
    H60      Y     0.11023   0.17485   0.18372
    H60      Z     0.22278   0.35874   0.38604
    H61      X    -0.00007   0.00022  -0.00049
    H61      Y    -0.00029   0.00044  -0.00185
    H61      Z     0.00044  -0.00078   0.00296
    H62      X    -0.00105  -0.00173   0.00252
    H62      Y     0.00002   0.00004  -0.00019
    H62      Z     0.00053   0.00089  -0.00110
    H63      X    -0.00145  -0.00115  -0.00086
    H63      Y     0.00040   0.00026   0.00019
    H63      Z    -0.00064  -0.00058  -0.00023
    H64      X    -0.00006   0.00023   0.00074
    H64      Y     0.00003  -0.00003  -0.00019
    H64      Z     0.00000   0.00011   0.00024
    H65      X     0.00000  -0.00007   0.00001
    H65      Y     0.00018  -0.00010   0.00048
    H65      Z    -0.00025   0.00019  -0.00086
    H66      X     0.00043   0.00091   0.00102
    H66      Y     0.00082   0.00185   0.00211
    H66      Z     0.00018   0.00039   0.00047
    H67      X    -0.00027  -0.00026   0.00006
    H67      Y     0.00025   0.00016   0.00007
    H67      Z    -0.00041  -0.00028  -0.00018
    H68      X    -0.00043  -0.00086  -0.00056
    H68      Y     0.00036   0.00071   0.00055
    H68      Z    -0.00042  -0.00085  -0.00056
    H69      X     0.00074   0.00138   0.00127
    H69      Y     0.00209   0.00367   0.00322
    H69      Z    -0.00028  -0.00054  -0.00056
    H70      X     0.00082   0.00153   0.00032
    H70      Y    -0.00002  -0.00009   0.00003
    H70      Z    -0.00042  -0.00079  -0.00010
    H71      X    -0.00006  -0.00019   0.00018
    H71      Y    -0.00000  -0.00001   0.00000
    H71      Z     0.00004   0.00013  -0.00011
    H72      X    -0.00479  -0.00664  -0.00553
    H72      Y     0.00152   0.00221   0.00193
    H72      Z    -0.00263  -0.00348  -0.00282
    H73      X    -0.01229  -0.01654  -0.01450
    H73      Y     0.01461   0.01974   0.01702
    H73      Z     0.01592   0.02180   0.01919
    H74      X    -0.00116  -0.00141  -0.00066
    H74      Y    -0.00330  -0.00410  -0.00238
    H74      Z     0.00497   0.00613   0.00347
    H75      X     0.00006   0.00010   0.00044
    H75      Y    -0.00006  -0.00009  -0.00040
    H75      Z     0.00009   0.00010   0.00050
    H76      X     0.00005   0.00004   0.00009
    H76      Y     0.00021   0.00038   0.00056
    H76      Z     0.00021   0.00054   0.00062
    H77      X    -0.00026   0.00053  -0.00044
    H77      Y     0.00004  -0.00005   0.00003
    H77      Z     0.00014  -0.00029   0.00016
    H78      X    -0.00003  -0.00003  -0.00002
    H78      Y    -0.00001  -0.00003  -0.00000
    H78      Z     0.00004   0.00005  -0.00000
    H79      X     0.00001   0.00009   0.00004
    H79      Y     0.00001   0.00019   0.00018
    H79      Z     0.00000   0.00001  -0.00001
    H80      X    -0.00008  -0.00042   0.00024
    H80      Y     0.00006   0.00029  -0.00016
    H80      Z    -0.00004  -0.00021   0.00014
    H81      X    -0.00002  -0.00004  -0.00003
    H81      Y    -0.00001  -0.00003   0.00001
    H81      Z     0.00002   0.00005  -0.00000
    H82      X    -0.00005  -0.00034   0.00031
    H82      Y     0.00004   0.00027  -0.00025
    H82      Z    -0.00002  -0.00016   0.00015
    H83      X     0.00001   0.00003   0.00003
    H83      Y     0.00001   0.00000   0.00009
    H83      Z     0.00004   0.00006   0.00017
  
  Number of imaginary frequencies:   0
   
  Writing vibrational animation data to PL146.vib
  Writing IR vibrational spectrum data to PL146_vib.spm
  rotational symmetry number:  1

  rotational temperatures (K):      0.006887      0.004351      0.004134
   
  The Quasi-Harmonic approximation will be applied to compute
  vibrational constributions to thermodynamic properties.
  Frequencies will be adjusted to a minimum value of  100.00 cm^-1.

  vibrational temperatures:
       mode:      1        2        3        4        5        6
  temp. (K):   143.88   143.88   143.88   143.88   143.88   143.88
   
       mode:      7        8        9       10       11       12
  temp. (K):   143.88   143.88   143.88   143.88   143.88   143.88
   
       mode:     13       14       15       16       17       18
  temp. (K):   154.02   166.86   189.49   201.23   204.81   231.13
   
       mode:     19       20       21       22       23       24
  temp. (K):   246.19   259.29   285.47   292.70   314.98   340.34
   
       mode:     25       26       27       28       29       30
  temp. (K):   346.15   361.11   371.47   375.97   379.54   388.69
   
       mode:     31       32       33       34       35       36
  temp. (K):   391.78   399.16   412.01   431.73   440.12   452.83
   
       mode:     37       38       39       40       41       42
  temp. (K):   471.75   479.36   483.75   512.50   542.79   551.34
   
       mode:     43       44       45       46       47       48
  temp. (K):   565.21   576.84   626.13   646.58   654.16   663.67
   
       mode:     49       50       51       52       53       54
  temp. (K):   671.36   697.78   711.03   714.71   731.15   755.11
   
       mode:     55       56       57       58       59       60
  temp. (K):   773.28   810.42   817.10   853.02   875.44   924.53
   
       mode:     61       62       63       64       65       66
  temp. (K):   933.56   961.00   980.19  1015.93  1076.59  1082.63
   
       mode:     67       68       69       70       71       72
  temp. (K):  1114.31  1136.51  1160.87  1165.08  1166.82  1190.04
   
       mode:     73       74       75       76       77       78
  temp. (K):  1204.27  1215.39  1246.83  1261.07  1265.63  1276.40
   
       mode:     79       80       81       82       83       84
  temp. (K):  1296.80  1302.77  1307.29  1313.23  1315.05  1316.64
   
       mode:     85       86       87       88       89       90
  temp. (K):  1327.97  1361.71  1366.89  1367.29  1367.90  1382.69
   
       mode:     91       92       93       94       95       96
  temp. (K):  1391.67  1402.06  1411.88  1412.27  1415.01  1421.54
   
       mode:     97       98       99      100      101      102
  temp. (K):  1459.54  1476.13  1477.92  1486.93  1525.69  1530.15
   
       mode:    103      104      105      106      107      108
  temp. (K):  1535.39  1539.80  1544.04  1571.27  1590.37  1595.37
   
       mode:    109      110      111      112      113      114
  temp. (K):  1598.85  1604.56  1611.21  1621.23  1640.61  1643.92
   
       mode:    115      116      117      118      119      120
  temp. (K):  1645.14  1646.06  1653.69  1662.58  1671.58  1683.47
   
       mode:    121      122      123      124      125      126
  temp. (K):  1685.28  1722.24  1737.83  1743.38  1750.60  1767.42
   
       mode:    127      128      129      130      131      132
  temp. (K):  1774.76  1796.36  1836.38  1859.89  1869.92  1876.05
   
       mode:    133      134      135      136      137      138
  temp. (K):  1881.41  1887.04  1892.49  1894.19  1896.30  1900.04
   
       mode:    139      140      141      142      143      144
  temp. (K):  1918.99  1922.97  1933.89  1943.98  1951.73  1956.84
   
       mode:    145      146      147      148      149      150
  temp. (K):  1957.08  1962.91  1969.43  1976.46  1996.36  2000.01
   
       mode:    151      152      153      154      155      156
  temp. (K):  2008.79  2010.60  2014.46  2017.50  2021.72  2023.49
   
       mode:    157      158      159      160      161      162
  temp. (K):  2027.03  2029.84  2045.88  2049.91  2051.51  2073.94
   
       mode:    163      164      165      166      167      168
  temp. (K):  2078.02  2080.39  2123.76  2139.95  2162.42  2167.43
   
       mode:    169      170      171      172      173      174
  temp. (K):  2168.71  2172.41  2173.96  2175.64  2176.22  2178.17
   
       mode:    175      176      177      178      179      180
  temp. (K):  2178.65  2180.10  2183.52  2184.99  2186.55  2187.64
   
       mode:    181      182      183      184      185      186
  temp. (K):  2192.66  2200.98  2202.95  2203.79  2206.55  2207.30
   
       mode:    187      188      189      190      191      192
  temp. (K):  2211.98  2215.57  2217.56  2218.37  2342.02  2352.71
   
       mode:    193      194      195      196      197      198
  temp. (K):  2387.47  2415.41  4313.35  4344.07  4350.31  4352.78
   
       mode:    199      200      201      202      203      204
  temp. (K):  4356.36  4357.51  4361.70  4373.96  4377.57  4379.12
   
       mode:    205      206      207      208      209      210
  temp. (K):  4381.23  4382.37  4384.17  4384.87  4385.85  4386.00
   
       mode:    211      212      213      214      215      216
  temp. (K):  4387.44  4398.37  4403.05  4426.35  4434.61  4435.55
   
       mode:    217      218      219      220      221      222
  temp. (K):  4436.97  4445.75  4446.89  4450.66  4453.91  4456.71
   
       mode:    223      224      225      226      227      228
  temp. (K):  4466.03  4481.53  4484.88  4486.66  4487.41  4493.91
   
       mode:    229      230      231      232      233      234
  temp. (K):  4494.34  4495.29  4496.21  4501.78  4506.37  4509.58
   
       mode:    235      236      237      238      239      240
  temp. (K):  4517.05  4529.58  4559.54  4575.45  4580.45  4583.53
   
       mode:    241      242      243
  temp. (K):  4593.98  4612.45  4628.96
   
   
  Thermodynamic properties calculated assuming an ideal gas

  In the table below, the units for temperature
  are kelvins, the units for U, H, and G are
  kcal/mol and the units for Cv and S are cal/(mol K)

  The zero point energy (ZPE):    474.610 kcal/mol
  is not included in U, H, or G in the table below
  
 
  =============================================================================
  Thermodynamic properties for P = 1.00E+00 atm, calculated at   1 temperatures


  T =   298.15 K, P = 1.00E+00 atm
   
                  U         Cv          S          H          G        ln(Q)
              =========  =========  =========  =========  =========  =========
  trans.          0.889      2.981     44.371      1.481    -11.748   19.82838
  rot.            0.889      2.981     36.904      0.889    -10.114   17.07082
  vib.           19.691    133.050    118.664     19.691    -15.689   26.47993
  elec.           0.000      0.000      0.000      0.000      0.000    0.00000
  ----------------------------------------------------------------------------
  total          21.468    139.011    199.939     22.061    -37.551   63.37913
   
   Total internal energy, Utot(SCFE + ZPE + U):   -1627.227088 hartrees
   Total enthalpy, Htot (Utot + nRT), with n=1:   -1627.226144 hartrees
    Total Gibbs free energy, Gtot (Htot - T*S):   -1627.321141 hartrees
   
  end of program freq
   
 Time(freq)  user:       0.369  user+sys:       0.369  wallclock:       0.564
  
  start of program post
  
  Writing input files for PBF
  end of program post
   
 Time(post)  user:       0.184  user+sys:       0.184  wallclock:       0.122

 Total cpu seconds     user:   39380.792   user+sys:   39380.792
  
 Total elapsed time:    21701 seconds

Job PL146 completed on bp1-compute089 at Fri Apr 18 23:35:35 2025
