Job red_elim_Ar_trans_L1_PL146 started on bp1-compute089 at Sun Apr 20 21:15:30 2025
jobid: bp1-compute089-0-680555dd

  +--------------------------------------------------------------------+
  |  Jaguar version 12.5, release 138                                  |
  |                                                                    |
  |  Copyright Schrodinger, Inc.                                       |
  |  All Rights Reserved.                                              |
  |                                                                    |
  |  The following have contributed to Jaguar (listed alphabetically): |
  |  Ty Balduf, Mike Beachy, Chandler Bennett, Art Bochevarov,         |
  |  Dale Braden, Yixiang Cao, Alan Chien, Chris Cortis,               |
  |  Rich Friesner, Jim Furness, Bill Goddard, Hod Greeley,            |
  |  Tom Hughes, Leif Jacobson, Jean-Marc Langlois, Daniel Levine,     |
  |  Rob Murphy, Dean Philipp, Tom Pollard, Murco Ringnalda,           |
  |  Daniel Mainz, Pablo Videla, Mark Watson, Haoyu Yu.                |
  |                                                                    |
  |  Use of this program should be acknowledged in publications as:    |
  |                                                                    |
  |  Jaguar, version 12.5, Schrodinger, Inc., New York, NY, 2024.      |
  |                                                                    |
  |  A. D. Bochevarov, E. Harder, T. F. Hughes, J. R. Greenwood,       |
  |  D. A. Braden, D. M. Philipp, D. Rinaldo, M. D. Halls,             |
  |  J. Zhang, R. A. Friesner, "Jaguar: A High-Performance Quantum     |
  |  Chemistry Software Program with Strengths in Life and Materials   |
  |  Sciences", Int. J. Quantum Chem., 2013, 113(18), 2110-2142.       |
  +--------------------------------------------------------------------+
  
  start of program pre
  
  Job name: red_elim_Ar_trans_L1_PL146
  Executables used: /software/local/apps/schrodinger2024-3/jaguar-v12.5/bin/Linux-x86_64
  Temporary files : /tmp/ar21627/red_elim_Ar_trans_L1_PL146#bp1-compute089-0-680555dd
  Basis file : using default basis file from /software/local/apps/schrodinger2024-3
  Maestro file (input):  red_elim_Ar_trans_L1_PL146.mae
  Maestro file (output): red_elim_Ar_trans_L1_PL146.01.mae
  
 Contents of input file: &gen and (if present) &atomic sections only
 ----------------Contents start----------------
&gen
dftname=b3pw91-d3
basis=6-31G*
numd=5
ip11=2
iaccg=3
isolv=2
igeopt=1
solvent=benzene
ifreq=1
&
&atomic
atom basis
Pd2 lacv3p*
&
 -----------------Contents end-----------------
 
  PS calculation requested. Using PS version of 6-31g*
  basis set:               non_standard                    
  net molecular charge:    0
  multiplicity:            1
  
  Using up to   4 threads per process
  
  This run will use ECP on 1 atom
  number of basis functions....          825
  
 Input geometry:
                                   angstroms
  atom               x                 y                 z
  P1            0.0000000000      0.0000000000      0.0000000000 
  Pd2           0.0000000000      0.0000000000      2.3082054643 
  N2           -0.1005293340      0.1479244229      4.2821546393 
  C17           2.9773984197     -3.7986221476      2.4728587299 
  C18           1.5899715229     -3.9699300694      2.4268368548 
  C19           0.7231263382     -2.8752292420      2.3585086104 
  C20           1.2280328233     -1.5711661023      2.3361678490 
  C21           2.6153409370     -1.3886841729      2.3892643642 
  C22           3.4725036577     -2.4887385191      2.4562393944 
  F10           3.8062011882     -4.8417014659      2.5171363382 
  H24          -3.9939943006      0.9025821211      2.8186005210 
  H25          -0.3505334282     -3.0489103508      2.3388949646 
  H26           3.0363610661     -0.3856820779      2.3924677039 
  H27           4.5492490504     -2.3232496984      2.5037733082 
  H15           0.5084615109      0.9212798199      4.7731246798 
  C16          -0.0451187636     -3.4277613099      6.6094358907 
  C23           1.0884489763     -2.5994355251      6.5675452784 
  C24           1.0702091474     -1.4224051106      5.8014597990 
  C25          -0.0815984302     -1.0737004677      5.0772649521 
  C26          -1.2151674714     -1.9019424443      5.1191010253 
  C27          -1.1969263412     -3.0790566670      5.8852410438 
  H22          -0.0307892251     -4.3524571972      7.2112861547 
  H23           1.9933073786     -2.8735057740      7.1365543911 
  H28           1.9607367056     -0.7716956576      5.7685641186 
  H29          -2.1199306280     -1.6279362986      4.5501744900 
  H30          -2.0874539064     -3.7297661097      5.9181367401 
  C3            1.7314260000      0.0000000000     -0.7803510000 
  C4           -0.8389310000     -1.6125100000     -0.4671430000 
  C5           -0.9848230000      1.4026410000     -0.7940230000 
  C6            1.8547750000      0.7516540000     -2.1227420000 
  C7            3.3180330000      0.9088290000     -2.5641460000 
  C8            3.9857420000     -0.4642000000     -2.7094370000 
  C9            3.8697970000     -1.2539880000     -1.4001690000 
  C10           2.4046590000     -1.3782340000     -0.9523140000 
  C11          -0.5056190000     -2.7173740000      0.5550030000 
  C12          -1.0578700000     -4.0832580000      0.1240010000 
  C13          -2.5787210000     -4.0214240000     -0.0639300000 
  C14          -2.9499870000     -2.9127210000     -1.0567430000 
  C15          -2.3764560000     -1.5612970000     -0.6035480000 
  C40          -1.2326260000      1.0727740000     -2.1445640000 
  C41          -2.0074230000      1.8467040000     -3.0133740000 
  C42          -2.5762550000      3.0149250000     -2.5108640000 
  C43          -2.3457000000      3.3486970000     -1.1711310000 
  C44          -1.5716150000      2.5946540000     -0.2583740000 
  C45          -1.4845710000      3.1859880000      1.0425790000 
  C46          -2.6698889287      3.3414962365      1.8356114934 
  C47          -2.5854415831      3.9124277817      3.1190423042 
  C48          -1.3898575111      4.3507224433      3.6913668957 
  C49          -0.2467501181      4.2142942852      2.9007836011 
  C50          -0.2633434738      3.6587206710      1.6069551385 
  C51           1.0328782683      3.7483472611      0.8216905825 
  C28           0.8821195259      4.7659539113     -0.3242452689 
  C29          -4.0724433430      2.8298206187      1.4901342090 
  C30          -4.6044778252      1.8112124666      2.5261582206 
  C31          -1.3343219493      4.9470109030      5.0829286582 
  C32           2.3235249936      4.0867575042      1.5989937497 
  C33          -5.0972786967      3.9743220404      1.3529532855 
  C34          -1.7191193296      3.8937481800      6.1341686824 
  C35          -2.2174107965      6.2006116833      5.1942826086 
  H36           2.3867450000      0.5770350000     -0.0919280000 
  H37           1.3141700000      0.1937620000     -2.9206610000 
  H38           1.4022340000      1.7673630000     -2.0399630000 
  H39           3.8741960000      1.5227350000     -1.8158020000 
  H40           3.3667480000      1.4574500000     -3.5356390000 
  H41           3.4933720000     -1.0343290000     -3.5330210000 
  H42           5.0594910000     -0.3409120000     -2.9901210000 
  H43           4.4602150000     -0.7409420000     -0.6036040000 
  H44           4.3155280000     -2.2694410000     -1.5316230000 
  H45           2.3928530000     -1.9481030000      0.0023690000 
  H46           1.8435120000     -1.9816870000     -1.7025810000 
  H47          -0.4389790000     -1.9178500000     -1.4612040000 
  H48           0.5926800000     -2.8081600000      0.7031910000 
  H49          -0.9307450000     -2.4449230000      1.5495160000 
  H50          -0.8025950000     -4.8567340000      0.8878940000 
  H51          -0.5737560000     -4.3948660000     -0.8321230000 
  H52          -2.9612600000     -5.0058110000     -0.4263340000 
  H53          -3.0671780000     -3.8197310000      0.9193380000 
  H54          -4.0610290000     -2.8453320000     -1.1480450000 
  H55          -2.5540330000     -3.1666150000     -2.0689060000 
  H56          -2.8409550000     -1.2901760000      0.3698920000 
  H57          -2.6950660000     -0.7836810000     -1.3332440000 
  H58          -0.8269830000      0.1490770000     -2.5831970000 
  H59          -2.1683160000      1.5442320000     -4.0620710000 
  H60          -3.1860710000      3.6639080000     -3.1622960000 
  H61          -2.7801850000      4.3120260000     -0.8732000000 
  H62          -3.4904661167      4.0157623647      3.7336082801 
  H63           0.6832923833      4.5942260705      3.3427430350 
  H64           1.2166283954      2.7612284381      0.3857115447 
  H65           0.6814295316      5.7849621064      0.0786600444 
  H66           0.0466573048      4.5103246518     -1.0138135839 
  H67           1.8063805923      4.8190776135     -0.9446458659 
  H68          -4.0694915148      2.2180196230      0.5607667684 
  H69          -4.7822756146      2.2550096530      3.5307623337 
  H70          -5.5791262497      1.3793563014      2.1992762483 
  H71           1.0868329090     -4.8839682771      2.3045150000 
  H72          -0.2857261350      5.2645437269      5.3017864796 
  H73           2.3352770184      5.1426959244      1.9537260649 
  H74           3.2212817548      3.9670995408      0.9489891358 
  H75           2.4675507703      3.4141341843      2.4748512321 
  H76          -5.2946874125      4.4750437771      2.3275745847 
  H77          -6.0744348930      3.5923111821      0.9774149824 
  H78          -4.7587360870      4.7678924340      0.6503614189 
  H79          -2.7725135202      3.5533226607      6.0128209114 
  H80          -1.6160607544      4.3003729246      7.1666462674 
  H81          -1.0611489064      2.9971936049      6.0567722611 
  H82          -3.2965933416      5.9657223027      5.0531713029 
  H83          -1.9295622484      6.9574231058      4.4284113756 
  H84          -2.1109918475      6.6771526018      6.1960752709 
   
  principal moments of inertia:
        amu*angstrom^2:              7473.51532              9633.02955             11982.35551
                g*cm^2:          1.24100626E-36          1.59960199E-36          1.98971670E-36
   
  rotational constants:
               cm^(-1):      0.00225565      0.00174998      0.00140687
                   GHz:      0.06762266      0.05246314      0.04217693
   
  Molecular weight:     769.34 amu
   
  Stoichiometry: PdC45PNH59F
  Molecular Point Group: C1      
  Point Group used: C1
  
 
Number of optimization coordinates:   373
Number of independent coordinates:    373
Number of non-redundant coordinates:  318
Number of frozen coordinates:           0
Number of harmonic constraints:         0
 
Number of geometric degrees of freedom:   318
Maximum geometric degrees of freedom:     318
 " " " " " excluding dummy atoms:         318
 
 
  bond lengths (angstroms):
 
 P1      -Pd2     :   2.308205      P1      -C3      :   1.899153
 P1      -C4      :   1.876757      P1      -C5      :   1.888849
 Pd2     -N2      :   1.982035      Pd2     -C20     :   1.994344
 N2      -H15     :   1.100000      N2      -C25     :   1.457713
 C17     -C18     :   1.398720      C17     -C22     :   1.400429
 C17     -F10     :   1.333000      C18     -C19     :   1.398020
 C18     -H71     :   1.050513      C19     -C20     :   1.398574
 C19     -H25     :   1.087794      C20     -C21     :   1.400265
 C21     -C22     :   1.396185      C21     -H26     :   1.087787
 C22     -H27     :   1.090425      H24     -C30     :   1.133059
 C16     -C23     :   1.404583      C16     -C27     :   1.404533
 C16     -H22     :   1.103400      C23     -C24     :   1.404500
 C23     -H23     :   1.103474      C24     -C25     :   1.404533
 C24     -H28     :   1.103424      C25     -C26     :   1.404533
 C26     -C27     :   1.404600      C26     -H29     :   1.103337
 C27     -H30     :   1.103424      C3      -C6      :   1.543442
 C3      -C10     :   1.543484      C3      -H36     :   1.111908
 C4      -C11     :   1.541624      C4      -C15     :   1.544413
 C4      -H47     :   1.114159      C5      -C40     :   1.412154
 C5      -C44     :   1.432529      C6      -C7      :   1.536446
 C6      -H37     :   1.113630      C6      -H38     :   1.115038
 C7      -C8      :   1.533673      C7      -H39     :   1.116341
 C7      -H40     :   1.116762      C8      -C9      :   1.533425
 C8      -H41     :   1.116139      C8      -H42     :   1.116656
 C9      -C10     :   1.537088      C9      -H43     :   1.116389
 C9      -H44     :   1.116737      C10     -H45     :   1.111895
 C10     -H46     :   1.114425      C11     -C12     :   1.535051
 C11     -H48     :   1.111963      C11     -H49     :   1.115355
 C12     -C13     :   1.533665      C12     -H50     :   1.116675
 C12     -H51     :   1.116082      C13     -C14     :   1.533864
 C13     -H52     :   1.116553      C13     -H53     :   1.116282
 C14     -C15     :   1.536447      C14     -H54     :   1.116822
 C14     -H55     :   1.116116      C15     -H56     :   1.112138
 C15     -H57     :   1.112949      C40     -C41     :   1.397894
 C40     -H58     :   1.100073      C41     -C42     :   1.393135
 C41     -H59     :   1.103241      C42     -C43     :   1.399801
 C42     -H60     :   1.103367      C43     -C44     :   1.414537
 C43     -H61     :   1.097972      C44     -C45     :   1.431688
 C45     -C46     :   1.434595      C45     -C50     :   1.425971
 C46     -C47     :   1.407227      C46     -C29     :   1.532425
 C47     -C48     :   1.396094      C47     -H62     :   1.098835
 C48     -C49     :   1.396542      C48     -C31     :   1.514955
 C49     -C50     :   1.408165      C49     -H63     :   1.097568
 C50     -C51     :   1.518178      C51     -C28     :   1.539942
 C51     -C32     :   1.544180      C51     -H64     :   1.094644
 C28     -H65     :   1.113996      C28     -H66     :   1.113035
 C28     -H67     :   1.114440      C29     -C30     :   1.547246
 C29     -C33     :   1.542397      C29     -H68     :   1.112669
 C30     -H69     :   1.112563      C30     -H70     :   1.115030
 C31     -C34     :   1.537055      C31     -C35     :   1.537453
 C31     -H72     :   1.117264      C32     -H73     :   1.113992
 C32     -H74     :   1.114805      C32     -H75     :   1.113684
 C33     -H76     :   1.113364      C33     -H77     :   1.114359
 C33     -H78     :   1.112655      C34     -H79     :   1.113667
 C34     -H80     :   1.114439      C34     -H81     :   1.114776
 C35     -H82     :   1.113427      C35     -H83     :   1.114531
 C35     -H84     :   1.114453
 
  bond angles:
 
 C3      -P1      -Pd2     : 114.261015  C4      -P1      -Pd2     : 104.413004
 C4      -P1      -C3      : 107.773617  C5      -P1      -Pd2     : 114.858201
 C5      -P1      -C3      : 107.614511  C5      -P1      -C4      : 107.477575
 N2      -Pd2     -P1      : 174.822805  C20     -Pd2     -P1      :  90.803361
 C20     -Pd2     -N2      :  94.362366  H15     -N2      -Pd2     : 117.963296
 C25     -N2      -Pd2     : 118.686804  C25     -N2      -H15     : 109.788049
 C22     -C17     -C18     : 117.700487  F10     -C17     -C18     : 121.466051
 F10     -C17     -C22     : 120.829905  C19     -C18     -C17     : 121.382694
 H71     -C18     -C17     : 125.836469  H71     -C18     -C19     : 112.249979
 C20     -C19     -C18     : 120.467804  H25     -C19     -C18     : 119.199658
 H25     -C19     -C20     : 120.325406  C19     -C20     -Pd2     : 120.830445
 C21     -C20     -Pd2     : 120.525671  C21     -C20     -C19     : 118.592816
 C22     -C21     -C20     : 120.490217  H26     -C21     -C20     : 120.247412
 H26     -C21     -C22     : 119.257121  C21     -C22     -C17     : 121.364383
 H27     -C22     -C17     : 119.376002  H27     -C22     -C21     : 119.258140
 C27     -C16     -C23     : 120.002746  H22     -C16     -C23     : 120.000393
 H22     -C16     -C27     : 119.996860  C24     -C23     -C16     : 120.000393
 H23     -C23     -C16     : 119.995826  H23     -C23     -C24     : 120.003781
 C25     -C24     -C23     : 119.996860  H28     -C24     -C23     : 119.999284
 H28     -C24     -C25     : 120.003855  C24     -C25     -N2      : 119.996860
 C26     -C25     -N2      : 119.996860  C26     -C25     -C24     : 120.006279
 C27     -C26     -C25     : 119.996860  H29     -C26     -C25     : 120.001259
 H29     -C26     -C27     : 120.001881  C26     -C27     -C16     : 119.996860
 H30     -C27     -C16     : 120.003855  H30     -C27     -C26     : 119.999284
 C6      -C3      -P1      : 115.482193  C10     -C3      -P1      : 116.323207
 C10     -C3      -C6      : 107.643956  H36     -C3      -P1      : 106.434200
 H36     -C3      -C6      : 103.807101  H36     -C3      -C10     : 105.980486
 C11     -C4      -P1      : 110.738068  C15     -C4      -P1      : 116.008863
 C15     -C4      -C11     : 107.311688  H47     -C4      -P1      : 107.282423
 H47     -C4      -C11     : 108.514083  H47     -C4      -C15     : 106.717762
 C40     -C5      -P1      : 108.666711  C44     -C5      -P1      : 132.399612
 C44     -C5      -C40     : 118.691726  C7      -C6      -C3      : 112.073554
 H37     -C6      -C3      : 109.901496  H37     -C6      -C7      : 107.922155
 H38     -C6      -C3      : 110.280278  H38     -C6      -C7      : 108.340464
 H38     -C6      -H37     : 108.210788  C8      -C7      -C6      : 110.503273
 H39     -C7      -C6      : 109.763661  H39     -C7      -C8      : 109.811721
 H40     -C7      -C6      : 109.981518  H40     -C7      -C8      : 109.779500
 H40     -C7      -H39     : 106.933685  C9      -C8      -C7      : 110.321973
 H41     -C8      -C7      : 109.581516  H41     -C8      -C9      : 109.486077
 H42     -C8      -C7      : 110.096731  H42     -C8      -C9      : 110.132310
 H42     -C8      -H41     : 107.163976  C10     -C9      -C8      : 111.252501
 H43     -C9      -C8      : 109.422610  H43     -C9      -C10     : 109.472841
 H44     -C9      -C8      : 109.733808  H44     -C9      -C10     : 109.953059
 H44     -C9      -H43     : 106.904606  C9      -C10     -C3      : 112.088856
 H45     -C10     -C3      : 110.938019  H45     -C10     -C9      : 107.560842
 H46     -C10     -C3      : 109.809666  H46     -C10     -C9      : 109.121575
 H46     -C10     -H45     : 107.167792  C12     -C11     -C4      : 111.947817
 H48     -C11     -C4      : 111.126341  H48     -C11     -C12     : 108.669593
 H49     -C11     -C4      : 109.494682  H49     -C11     -C12     : 109.304054
 H49     -C11     -H48     : 106.116356  C13     -C12     -C11     : 110.810925
 H50     -C12     -C11     : 109.999579  H50     -C12     -C13     : 109.782118
 H51     -C12     -C11     : 109.445619  H51     -C12     -C13     : 109.658877
 H51     -C12     -H50     : 107.066825  C14     -C13     -C12     : 110.394373
 H52     -C13     -C12     : 110.119025  H52     -C13     -C14     : 110.135780
 H53     -C13     -C12     : 109.467225  H53     -C13     -C14     : 109.488770
 H53     -C13     -H52     : 107.174175  C15     -C14     -C13     : 110.762982
 H54     -C14     -C13     : 109.713864  H54     -C14     -C15     : 110.022673
 H55     -C14     -C13     : 109.674910  H55     -C14     -C15     : 109.581676
 H55     -C14     -H54     : 107.008477  C14     -C15     -C4      : 111.623363
 H56     -C15     -C4      : 110.278116  H56     -C15     -C14     : 108.463277
 H57     -C15     -C4      : 111.473754  H57     -C15     -C14     : 108.319006
 H57     -C15     -H56     : 106.497701  C41     -C40     -C5      : 124.217200
 H58     -C40     -C5      : 120.848301  H58     -C40     -C41     : 114.925303
 C42     -C41     -C40     : 117.799910  H59     -C41     -C40     : 121.320683
 H59     -C41     -C42     : 120.879109  C43     -C42     -C41     : 118.549764
 H60     -C42     -C41     : 120.393212  H60     -C42     -C43     : 121.054346
 C44     -C43     -C42     : 125.493203  H61     -C43     -C42     : 113.811468
 H61     -C43     -C44     : 120.607624  C43     -C44     -C5      : 115.242330
 C45     -C44     -C5      : 131.189824  C45     -C44     -C43     : 113.543362
 C46     -C45     -C44     : 119.791946  C50     -C45     -C44     : 123.273644
 C50     -C45     -C46     : 116.928869  C47     -C46     -C45     : 119.904664
 C29     -C46     -C45     : 126.541026  C29     -C46     -C47     : 113.328583
 C48     -C47     -C46     : 123.548685  H62     -C47     -C46     : 119.921626
 H62     -C47     -C48     : 116.521233  C49     -C48     -C47     : 115.990880
 C31     -C48     -C47     : 122.108125  C31     -C48     -C49     : 121.899906
 C50     -C49     -C48     : 123.300690  H63     -C49     -C48     : 115.583359
 H63     -C49     -C50     : 121.100024  C49     -C50     -C45     : 120.300498
 C51     -C50     -C45     : 123.097554  C51     -C50     -C49     : 116.224601
 C28     -C51     -C50     : 109.896754  C32     -C51     -C50     : 117.787228
 C32     -C51     -C28     : 108.155152  H64     -C51     -C50     : 107.223138
 H64     -C51     -C28     : 108.418300  H64     -C51     -C32     : 104.940131
 H65     -C28     -C51     : 110.668567  H66     -C28     -C51     : 112.503659
 H66     -C28     -H65     : 107.393434  H67     -C28     -C51     : 111.380856
 H67     -C28     -H65     : 107.887459  H67     -C28     -H66     : 106.772892
 C30     -C29     -C46     : 112.555587  C33     -C29     -C46     : 112.359782
 C33     -C29     -C30     : 108.637683  H68     -C29     -C46     : 111.683017
 H68     -C29     -C30     : 101.432272  H68     -C29     -C33     : 109.601633
 C29     -C30     -H24     : 121.030268  H69     -C30     -H24     :  99.958496
 H69     -C30     -C29     : 113.388366  H70     -C30     -H24     : 103.652553
 H70     -C30     -C29     : 111.053937  H70     -C30     -H69     : 106.231420
 C34     -C31     -C48     : 110.446558  C35     -C31     -C48     : 111.494094
 C35     -C31     -C34     : 111.432369  H72     -C31     -C48     : 109.038366
 H72     -C31     -C34     : 107.201819  H72     -C31     -C35     : 107.047248
 H73     -C32     -C51     : 112.138112  H74     -C32     -C51     : 110.858412
 H74     -C32     -H73     : 106.195378  H75     -C32     -C51     : 111.815032
 H75     -C32     -H73     : 108.704750  H75     -C32     -H74     : 106.832867
 H76     -C33     -C29     : 111.942282  H77     -C33     -C29     : 110.991852
 H77     -C33     -H76     : 107.079595  H78     -C33     -C29     : 112.533607
 H78     -C33     -H76     : 106.615761  H78     -C33     -H77     : 107.367641
 H79     -C34     -C31     : 111.823074  H80     -C34     -C31     : 111.128127
 H80     -C34     -H79     : 107.454765  H81     -C34     -C31     : 110.846305
 H81     -C34     -H79     : 107.750706  H81     -C34     -H80     : 107.649001
 H82     -C35     -C31     : 112.056905  H83     -C35     -C31     : 110.827592
 H83     -C35     -H82     : 107.847659  H84     -C35     -C31     : 111.033461
 H84     -C35     -H82     : 107.258556  H84     -C35     -H83     : 107.618818
 
  torsional angles:
 
 P1      -Pd2     -N2      -H15     : -74.978888
 P1      -Pd2     -N2      -C25     : 148.351031
 P1      -Pd2     -C20     -C19     : -90.586464
 P1      -Pd2     -C20     -C21     :  92.049113
 P1      -C3      -C6      -C7      : 170.312141
 P1      -C3      -C6      -H37     : -69.690300
 P1      -C3      -C6      -H38     :  49.525700
 P1      -C3      -C10     -C9      :-171.775272
 P1      -C3      -C10     -H45     : -51.515570
 P1      -C3      -C10     -H46     :  66.762044
 P1      -C4      -C11     -C12     :-174.123033
 P1      -C4      -C11     -H48     : -52.407923
 P1      -C4      -C11     -H49     :  64.494853
 P1      -C4      -C15     -C14     : 177.116189
 P1      -C4      -C15     -H56     : -62.243884
 P1      -C4      -C15     -H57     :  55.833774
 P1      -C5      -C40     -C41     : 175.890179
 P1      -C5      -C40     -H58     :  -2.949598
 P1      -C5      -C44     -C43     :-174.503172
 P1      -C5      -C44     -C45     :   7.440696
 Pd2     -P1      -C3      -C6      :-147.351771
 Pd2     -P1      -C3      -C10     :  85.030040
 Pd2     -P1      -C3      -H36     : -32.756134
 Pd2     -P1      -C4      -C11     : -33.971857
 Pd2     -P1      -C4      -C15     :  88.628897
 Pd2     -P1      -C4      -H47     :-152.226625
 Pd2     -P1      -C5      -C40     :-162.946211
 Pd2     -P1      -C5      -C44     :  11.158518
 Pd2     -N2      -C25     -C24     : 106.312675
 Pd2     -N2      -C25     -C26     : -73.687327
 Pd2     -C20     -C19     -C18     :-177.677437
 Pd2     -C20     -C19     -H25     :   1.343357
 Pd2     -C20     -C21     -C22     : 177.739254
 Pd2     -C20     -C21     -H26     :  -1.421133
 N2      -Pd2     -P1      -C3      : 124.200000
 N2      -Pd2     -P1      -C4      :-118.313660
 N2      -Pd2     -P1      -C5      :  -0.873480
 N2      -Pd2     -C20     -C19     :  89.758208
 N2      -Pd2     -C20     -C21     : -87.606214
 N2      -C25     -C24     -C23     : 179.999998
 N2      -C25     -C24     -H28     :  -0.000001
 N2      -C25     -C26     -C27     :-179.999998
 N2      -C25     -C26     -H29     :   0.000001
 C17     -C18     -C19     -C20     :  -0.085567
 C17     -C18     -C19     -H25     :-179.117303
 C17     -C22     -C21     -C20     :  -0.023898
 C17     -C22     -C21     -H26     : 179.144744
 C18     -C17     -C22     -C21     :  -0.318521
 C18     -C17     -C22     -H27     : 179.236263
 C18     -C19     -C20     -C21     :  -0.263028
 C19     -C18     -C17     -C22     :   0.372937
 C19     -C18     -C17     -F10     :-178.946312
 C19     -C20     -C21     -C22     :   0.316693
 C19     -C20     -C21     -H26     :-178.843694
 C20     -Pd2     -P1      -C3      : -51.988604
 C20     -Pd2     -P1      -C4      :  65.497736
 C20     -Pd2     -P1      -C5      :-177.062084
 C20     -Pd2     -N2      -H15     : 101.199002
 C20     -Pd2     -N2      -C25     : -35.471079
 C20     -C19     -C18     -H71     :-172.192360
 C20     -C21     -C22     -H27     :-179.579196
 C21     -C20     -C19     -H25     : 178.757766
 C21     -C22     -C17     -F10     : 179.005281
 C22     -C17     -C18     -H71     : 171.352774
 F10     -C17     -C18     -H71     :  -7.966474
 F10     -C17     -C22     -H27     :  -1.439936
 H24     -C30     -C29     -C46     : -52.541603
 H24     -C30     -C29     -C33     :-177.628194
 H24     -C30     -C29     -H68     :  66.941376
 H25     -C19     -C18     -H71     :   8.775905
 H26     -C21     -C22     -H27     :  -0.410554
 H15     -N2      -C25     -C24     : -33.587775
 H15     -N2      -C25     -C26     : 146.412224
 C16     -C23     -C24     -C25     :   0.000001
 C16     -C23     -C24     -H28     : 180.000000
 C16     -C27     -C26     -C25     :   0.000000
 C16     -C27     -C26     -H29     :-179.999999
 C23     -C16     -C27     -C26     :   0.000001
 C23     -C16     -C27     -H30     :-179.999999
 C23     -C24     -C25     -C26     :  -0.000001
 C24     -C23     -C16     -C27     :  -0.000001
 C24     -C23     -C16     -H22     : 179.999999
 C24     -C25     -C26     -C27     :   0.000000
 C24     -C25     -C26     -H29     : 179.999999
 C25     -C24     -C23     -H23     : 179.999999
 C25     -C26     -C27     -H30     : 179.999999
 C26     -C25     -C24     -H28     : 180.000000
 C26     -C27     -C16     -H22     :-179.999999
 C27     -C16     -C23     -H23     :-179.999999
 H22     -C16     -C23     -H23     :   0.000001
 H22     -C16     -C27     -H30     :   0.000001
 H23     -C23     -C24     -H28     :  -0.000002
 H29     -C26     -C27     -H30     :  -0.000001
 C3      -P1      -C4      -C11     :  87.891372
 C3      -P1      -C4      -C15     :-149.507873
 C3      -P1      -C4      -H47     : -30.363395
 C3      -P1      -C5      -C40     :  68.575132
 C3      -P1      -C5      -C44     :-117.320139
 C3      -C6      -C7      -C8      :  58.739691
 C3      -C6      -C7      -H39     : -62.516410
 C3      -C6      -C7      -H40     :-179.901248
 C3      -C10     -C9      -C8      : -57.176607
 C3      -C10     -C9      -H43     :  63.885387
 C3      -C10     -C9      -H44     :-178.954189
 C4      -P1      -C3      -C6      :  97.105682
 C4      -P1      -C3      -C10     : -30.512507
 C4      -P1      -C3      -H36     :-148.298681
 C4      -P1      -C5      -C40     : -47.257531
 C4      -P1      -C5      -C44     : 126.847198
 C4      -C11     -C12     -C13     : -58.164312
 C4      -C11     -C12     -H50     :-179.740867
 C4      -C11     -C12     -H51     :  62.890635
 C4      -C15     -C14     -C13     :  58.611595
 C4      -C15     -C14     -H54     :-179.913842
 C4      -C15     -C14     -H55     : -62.521935
 C5      -P1      -C3      -C6      : -18.531854
 C5      -P1      -C3      -C10     :-146.150043
 C5      -P1      -C3      -H36     :  96.063783
 C5      -P1      -C4      -C11     :-156.381057
 C5      -P1      -C4      -C15     : -33.780303
 C5      -P1      -C4      -H47     :  85.364175
 C5      -C40     -C41     -C42     :  -0.326790
 C5      -C40     -C41     -H59     : 179.870300
 C5      -C44     -C43     -C42     :   0.486073
 C5      -C44     -C43     -H61     :-175.891602
 C5      -C44     -C45     -C46     :-118.152873
 C5      -C44     -C45     -C50     :  62.730427
 C6      -C3      -C10     -C9      :  56.844316
 C6      -C3      -C10     -H45     : 177.104018
 C6      -C3      -C10     -H46     : -64.618369
 C6      -C7      -C8      -C9      : -55.963191
 C6      -C7      -C8      -H41     :  64.653691
 C6      -C7      -C8      -H42     :-177.721356
 C7      -C6      -C3      -C10     : -57.847589
 C7      -C6      -C3      -H36     :  54.217656
 C7      -C8      -C9      -C10     :  55.413848
 C7      -C8      -C9      -H43     : -65.677574
 C7      -C8      -C9      -H44     : 177.318838
 C8      -C7      -C6      -H37     : -62.405908
 C8      -C7      -C6      -H38     :-179.357826
 C8      -C9      -C10     -H45     :-179.381508
 C8      -C9      -C10     -H46     :  64.680474
 C9      -C8      -C7      -H39     :  65.264405
 C9      -C8      -C7      -H40     :-177.441842
 C9      -C10     -C3      -H36     : -53.740132
 C10     -C3      -C6      -H37     :  62.149969
 C10     -C3      -C6      -H38     :-178.634030
 C10     -C9      -C8      -H41     : -65.260185
 C10     -C9      -C8      -H42     : 177.150954
 C11     -C4      -C15     -C14     : -58.497245
 C11     -C4      -C15     -H56     :  62.142682
 C11     -C4      -C15     -H57     :-179.779661
 C11     -C12     -C13     -C14     :  55.349695
 C11     -C12     -C13     -H52     : 177.174843
 C11     -C12     -C13     -H53     : -65.242998
 C12     -C11     -C4      -C15     :  58.348698
 C12     -C11     -C4      -H47     : -56.620220
 C12     -C13     -C14     -C15     : -55.661573
 C12     -C13     -C14     -H54     :-177.317776
 C12     -C13     -C14     -H55     :  65.416849
 C13     -C12     -C11     -H48     : 178.720059
 C13     -C12     -C11     -H49     :  63.327616
 C13     -C14     -C15     -H56     : -63.083311
 C13     -C14     -C15     -H57     :-178.291834
 C14     -C13     -C12     -H50     : 177.053943
 C14     -C13     -C12     -H51     : -65.579163
 C14     -C15     -C4      -H47     :  57.664056
 C15     -C4      -C11     -H48     :-179.936192
 C15     -C4      -C11     -H49     : -63.033416
 C15     -C14     -C13     -H52     :-177.476826
 C15     -C14     -C13     -H53     :  64.918228
 C40     -C5      -C44     -C43     :  -0.871968
 C40     -C5      -C44     -C45     :-178.928100
 C40     -C41     -C42     -C43     :  -0.115384
 C40     -C41     -C42     -H60     : 179.295595
 C41     -C40     -C5      -C44     :   0.850394
 C41     -C42     -C43     -C44     :   0.015970
 C41     -C42     -C43     -H61     : 176.608522
 C42     -C41     -C40     -H58     : 178.574828
 C42     -C43     -C44     -C45     : 178.890526
 C43     -C42     -C41     -H59     : 179.688440
 C43     -C44     -C45     -C46     :  63.765019
 C43     -C44     -C45     -C50     :-115.351681
 C44     -C5      -C40     -H58     :-177.989384
 C44     -C43     -C42     -H60     :-179.390956
 C44     -C45     -C46     -C47     : 179.481969
 C44     -C45     -C46     -C29     :   5.321845
 C44     -C45     -C50     -C49     :-179.160890
 C44     -C45     -C50     -C51     :   8.161320
 C45     -C44     -C43     -H61     :   2.512850
 C45     -C46     -C47     -C48     :  -0.039720
 C45     -C46     -C47     -H62     :-178.944142
 C45     -C46     -C29     -C30     : 118.541309
 C45     -C46     -C29     -C33     :-118.431226
 C45     -C46     -C29     -H68     :   5.205769
 C45     -C50     -C49     -C48     :  -0.703109
 C45     -C50     -C49     -H63     :-179.186516
 C45     -C50     -C51     -C28     :  64.015094
 C45     -C50     -C51     -C32     :-171.562749
 C45     -C50     -C51     -H64     : -53.629150
 C46     -C45     -C50     -C49     :   1.698894
 C46     -C45     -C50     -C51     :-170.978896
 C46     -C47     -C48     -C49     :   1.063186
 C46     -C47     -C48     -C31     :-179.309854
 C46     -C29     -C30     -H69     :  66.147975
 C46     -C29     -C30     -H70     :-174.326432
 C46     -C29     -C33     -H76     : -67.563930
 C46     -C29     -C33     -H77     : 172.850607
 C46     -C29     -C33     -H78     :  52.496295
 C47     -C46     -C45     -C50     :  -1.346332
 C47     -C46     -C29     -C30     : -55.946705
 C47     -C46     -C29     -C33     :  67.080760
 C47     -C46     -C29     -H68     :-169.282245
 C47     -C48     -C49     -C50     :  -0.691187
 C47     -C48     -C49     -H63     : 177.869064
 C47     -C48     -C31     -C34     :  65.047922
 C47     -C48     -C31     -C35     : -59.419190
 C47     -C48     -C31     -H72     :-177.401025
 C48     -C47     -C46     -C29     : 174.852705
 C48     -C49     -C50     -C51     : 172.461322
 C48     -C31     -C34     -H79     : -63.734219
 C48     -C31     -C34     -H80     : 176.190600
 C48     -C31     -C34     -H81     :  56.524026
 C48     -C31     -C35     -H82     :  64.402819
 C48     -C31     -C35     -H83     : -56.124379
 C48     -C31     -C35     -H84     :-175.678488
 C49     -C48     -C47     -H62     :-179.998031
 C49     -C48     -C31     -C34     :-115.347039
 C49     -C48     -C31     -C35     : 120.185849
 C49     -C48     -C31     -H72     :   2.204013
 C49     -C50     -C51     -C28     :-108.939006
 C49     -C50     -C51     -C32     :  15.483150
 C49     -C50     -C51     -H64     : 133.416749
 C50     -C45     -C46     -C29     :-175.506457
 C50     -C49     -C48     -C31     : 179.681006
 C50     -C51     -C28     -H65     :  62.443561
 C50     -C51     -C28     -H66     : -57.696446
 C50     -C51     -C28     -H67     :-177.540986
 C50     -C51     -C32     -H73     : -70.360721
 C50     -C51     -C32     -H74     : 171.133573
 C50     -C51     -C32     -H75     :  52.035152
 C51     -C50     -C49     -H63     :  -6.022085
 C28     -C51     -C32     -H73     :  54.923868
 C28     -C51     -C32     -H74     : -63.581837
 C28     -C51     -C32     -H75     : 177.319741
 C29     -C46     -C47     -H62     :  -4.051717
 C30     -C29     -C33     -H76     :  57.637632
 C30     -C29     -C33     -H77     : -61.947831
 C30     -C29     -C33     -H78     : 177.697857
 C31     -C48     -C47     -H62     :  -0.371070
 C31     -C48     -C49     -H63     :  -1.758744
 C32     -C51     -C28     -H65     : -67.381240
 C32     -C51     -C28     -H66     : 172.478754
 C32     -C51     -C28     -H67     :  52.634213
 C33     -C29     -C30     -H69     : -58.938616
 C33     -C29     -C30     -H70     :  60.586977
 C34     -C31     -C35     -H82     : -59.508997
 C34     -C31     -C35     -H83     : 179.963805
 C34     -C31     -C35     -H84     :  60.409695
 C35     -C31     -C34     -H79     :  60.768224
 C35     -C31     -C34     -H80     : -59.306957
 C35     -C31     -C34     -H81     :-178.973532
 H36     -C3      -C6      -H37     : 174.215214
 H36     -C3      -C6      -H38     : -66.568786
 H36     -C3      -C10     -H45     :  66.519570
 H36     -C3      -C10     -H46     :-175.202817
 H37     -C6      -C7      -H39     : 176.337991
 H37     -C6      -C7      -H40     :  58.953153
 H38     -C6      -C7      -H39     :  59.386074
 H38     -C6      -C7      -H40     : -57.998765
 H39     -C7      -C8      -H41     :-174.118713
 H39     -C7      -C8      -H42     : -56.493760
 H40     -C7      -C8      -H41     : -56.824960
 H40     -C7      -C8      -H42     :  60.799993
 H41     -C8      -C9      -H43     : 173.648392
 H41     -C8      -C9      -H44     :  56.644805
 H42     -C8      -C9      -H43     :  56.059532
 H42     -C8      -C9      -H44     : -60.944056
 H43     -C9      -C10     -H45     : -58.319514
 H43     -C9      -C10     -H46     :-174.257532
 H44     -C9      -C10     -H45     :  58.840909
 H44     -C9      -C10     -H46     : -57.097108
 H47     -C4      -C11     -H48     :  65.094890
 H47     -C4      -C11     -H49     :-178.002334
 H47     -C4      -C15     -H56     : 178.303983
 H47     -C4      -C15     -H57     : -63.618359
 H48     -C11     -C12     -H50     :  57.143503
 H48     -C11     -C12     -H51     : -60.224995
 H49     -C11     -C12     -H50     : -58.248939
 H49     -C11     -C12     -H51     :-175.617437
 H50     -C12     -C13     -H52     : -61.120909
 H50     -C12     -C13     -H53     :  56.461249
 H51     -C12     -C13     -H52     :  56.245985
 H51     -C12     -C13     -H53     : 173.828144
 H52     -C13     -C14     -H54     :  60.866972
 H52     -C13     -C14     -H55     : -56.398403
 H53     -C13     -C14     -H54     : -56.737974
 H53     -C13     -C14     -H55     :-174.003349
 H54     -C14     -C15     -H56     :  58.391252
 H54     -C14     -C15     -H57     : -56.817271
 H55     -C14     -C15     -H56     : 175.783159
 H55     -C14     -C15     -H57     :  60.574636
 H58     -C40     -C41     -H59     :  -1.228082
 H59     -C41     -C42     -H60     :  -0.900581
 H60     -C42     -C43     -H61     :  -2.798404
 H64     -C51     -C28     -H65     : 179.342506
 H64     -C51     -C28     -H66     :  59.202500
 H64     -C51     -C28     -H67     : -60.642041
 H64     -C51     -C32     -H73     : 170.495332
 H64     -C51     -C32     -H74     :  51.989627
 H64     -C51     -C32     -H75     : -67.108794
 H68     -C29     -C30     -H69     :-174.369046
 H68     -C29     -C30     -H70     : -54.843453
 H68     -C29     -C33     -H76     : 167.645815
 H68     -C29     -C33     -H77     :  48.060352
 H68     -C29     -C33     -H78     : -72.293960
 H72     -C31     -C34     -H79     : 177.589756
 H72     -C31     -C34     -H80     :  57.514575
 H72     -C31     -C34     -H81     : -62.152000
 H72     -C31     -C35     -H82     :-176.424530
 H72     -C31     -C35     -H83     :  63.048272
 H72     -C31     -C35     -H84     : -56.505837
 
  nuclear repulsion energy.......          7573.551454940 hartrees
  
  Detected an organometallic with only one TM atom. 
  
  Oxidation state on metal       2 is     2
  Formal multiplet on metal      2 is     1
  Formal charge on ligand        3 is    -1
  Formal multiplet on ligand     3 is     1
  Formal charge on ligand        4 is    -1
  Formal multiplet on ligand     4 is     1
  
 
  Will use High-Quality Initial guess for organometallics
       including d-d repulsion (iguess=30)
 
 Non-default options chosen:
   SCF calculation type: DFT(b3pw91-d3)              
   DFT=Becke_3_Parameter/HF+Slater+Becke88+PW91+PW-GGAIIC (B3PW91-D3)
   Geometry will be optimized in redundant internal coordinates
   Solvation energy will be computed using PBF
     -solute cavity energy will not be included
     -surface area terms will not be included
   Vibrational frequencies and related properties will be computed
      from analytic second derivatives
   IR intensities will be computed
   Thermochemical properties will be computed
   Maximum number of geometry steps: 100
   Scaling standard convergence criteria by a factor of   5.00
   Solvent: benzene                                                         
   Internal dielectric constant:    1.000
   Continuum dielectric constant:   2.283
   Solvent probe molecule radius:   2.600
  
 Non-default print settings:
     11=  2
  
 Temporary integer options set:
     21= -1  73=  2
  
  atom       vdw   vdw2    cov     mass  grid  daf  charge   basis
  P1        2.147  2.074  1.060   30.974    Y    Y      Y    ps_6-31g*
  Pd2       1.450  1.450  1.280  105.903    Y    Y      Y    lacv3p*
  N2        1.831  1.600  0.750   14.003    Y    Y      Y    ps_6-31g*
  C17       1.949  1.900  0.770   12.000    Y    Y      Y    ps_6-31g*
  C18       1.949  1.900  0.770   12.000    Y    Y      Y    ps_6-31g*
  C19       1.949  1.900  0.770   12.000    Y    Y      Y    ps_6-31g*
  C20       1.949  1.900  0.770   12.000    Y    Y      Y    ps_6-31g*
  C21       1.949  1.900  0.770   12.000    Y    Y      Y    ps_6-31g*
  C22       1.949  1.900  0.770   12.000    Y    Y      Y    ps_6-31g*
  F10       1.736  1.682  0.720   18.998    Y    Y      Y    ps_6-31g*
  H24       1.597  1.150  0.320    1.008    Y    Y      Y    ps_6-31g*
  H25       1.597  1.150  0.320    1.008    Y    Y      Y    ps_6-31g*
  H26       1.597  1.150  0.320    1.008    Y    Y      Y    ps_6-31g*
  H27       1.597  1.150  0.320    1.008    Y    Y      Y    ps_6-31g*
  H15       1.597  1.150  0.320    1.008    Y    Y      Y    ps_6-31g*
  C16       1.949  1.900  0.770   12.000    Y    Y      Y    ps_6-31g*
  C23       1.949  1.900  0.770   12.000    Y    Y      Y    ps_6-31g*
  C24       1.949  1.900  0.770   12.000    Y    Y      Y    ps_6-31g*
  C25       1.949  1.900  0.770   12.000    Y    Y      Y    ps_6-31g*
  C26       1.949  1.900  0.770   12.000    Y    Y      Y    ps_6-31g*
  C27       1.949  1.900  0.770   12.000    Y    Y      Y    ps_6-31g*
  H22       1.597  1.150  0.320    1.008    Y    Y      Y    ps_6-31g*
  H23       1.597  1.150  0.320    1.008    Y    Y      Y    ps_6-31g*
  H28       1.597  1.150  0.320    1.008    Y    Y      Y    ps_6-31g*
  H29       1.597  1.150  0.320    1.008    Y    Y      Y    ps_6-31g*
  H30       1.597  1.150  0.320    1.008    Y    Y      Y    ps_6-31g*
  C3        1.949  1.900  0.770   12.000    Y    Y      Y    ps_6-31g*
  C4        1.949  1.900  0.770   12.000    Y    Y      Y    ps_6-31g*
  C5        1.949  1.900  0.770   12.000    Y    Y      Y    ps_6-31g*
  C6        1.949  1.900  0.770   12.000    Y    Y      Y    ps_6-31g*
  C7        1.949  1.900  0.770   12.000    Y    Y      Y    ps_6-31g*
  C8        1.949  1.900  0.770   12.000    Y    Y      Y    ps_6-31g*
  C9        1.949  1.900  0.770   12.000    Y    Y      Y    ps_6-31g*
  C10       1.949  1.900  0.770   12.000    Y    Y      Y    ps_6-31g*
  C11       1.949  1.900  0.770   12.000    Y    Y      Y    ps_6-31g*
  C12       1.949  1.900  0.770   12.000    Y    Y      Y    ps_6-31g*
  C13       1.949  1.900  0.770   12.000    Y    Y      Y    ps_6-31g*
  C14       1.949  1.900  0.770   12.000    Y    Y      Y    ps_6-31g*
  C15       1.949  1.900  0.770   12.000    Y    Y      Y    ps_6-31g*
  C40       1.949  1.900  0.770   12.000    Y    Y      Y    ps_6-31g*
  C41       1.949  1.900  0.770   12.000    Y    Y      Y    ps_6-31g*
  C42       1.949  1.900  0.770   12.000    Y    Y      Y    ps_6-31g*
  C43       1.949  1.900  0.770   12.000    Y    Y      Y    ps_6-31g*
  C44       1.949  1.900  0.770   12.000    Y    Y      Y    ps_6-31g*
  C45       1.949  1.900  0.770   12.000    Y    Y      Y    ps_6-31g*
  C46       1.949  1.900  0.770   12.000    Y    Y      Y    ps_6-31g*
  C47       1.949  1.900  0.770   12.000    Y    Y      Y    ps_6-31g*
  C48       1.949  1.900  0.770   12.000    Y    Y      Y    ps_6-31g*
  C49       1.949  1.900  0.770   12.000    Y    Y      Y    ps_6-31g*
  C50       1.949  1.900  0.770   12.000    Y    Y      Y    ps_6-31g*
  C51       1.949  1.900  0.770   12.000    Y    Y      Y    ps_6-31g*
  C28       1.949  1.900  0.770   12.000    Y    Y      Y    ps_6-31g*
  C29       1.949  1.900  0.770   12.000    Y    Y      Y    ps_6-31g*
  C30       1.949  1.900  0.770   12.000    Y    Y      Y    ps_6-31g*
  C31       1.949  1.900  0.770   12.000    Y    Y      Y    ps_6-31g*
  C32       1.949  1.900  0.770   12.000    Y    Y      Y    ps_6-31g*
  C33       1.949  1.900  0.770   12.000    Y    Y      Y    ps_6-31g*
  C34       1.949  1.900  0.770   12.000    Y    Y      Y    ps_6-31g*
  C35       1.949  1.900  0.770   12.000    Y    Y      Y    ps_6-31g*
  H36       1.597  1.150  0.320    1.008    Y    Y      Y    ps_6-31g*
  H37       1.597  1.150  0.320    1.008    Y    Y      Y    ps_6-31g*
  H38       1.597  1.150  0.320    1.008    Y    Y      Y    ps_6-31g*
  H39       1.597  1.150  0.320    1.008    Y    Y      Y    ps_6-31g*
  H40       1.597  1.150  0.320    1.008    Y    Y      Y    ps_6-31g*
  H41       1.597  1.150  0.320    1.008    Y    Y      Y    ps_6-31g*
  H42       1.597  1.150  0.320    1.008    Y    Y      Y    ps_6-31g*
  H43       1.597  1.150  0.320    1.008    Y    Y      Y    ps_6-31g*
  H44       1.597  1.150  0.320    1.008    Y    Y      Y    ps_6-31g*
  H45       1.597  1.150  0.320    1.008    Y    Y      Y    ps_6-31g*
  H46       1.597  1.150  0.320    1.008    Y    Y      Y    ps_6-31g*
  H47       1.597  1.150  0.320    1.008    Y    Y      Y    ps_6-31g*
  H48       1.597  1.150  0.320    1.008    Y    Y      Y    ps_6-31g*
  H49       1.597  1.150  0.320    1.008    Y    Y      Y    ps_6-31g*
  H50       1.597  1.150  0.320    1.008    Y    Y      Y    ps_6-31g*
  H51       1.597  1.150  0.320    1.008    Y    Y      Y    ps_6-31g*
  H52       1.597  1.150  0.320    1.008    Y    Y      Y    ps_6-31g*
  H53       1.597  1.150  0.320    1.008    Y    Y      Y    ps_6-31g*
  H54       1.597  1.150  0.320    1.008    Y    Y      Y    ps_6-31g*
  H55       1.597  1.150  0.320    1.008    Y    Y      Y    ps_6-31g*
  H56       1.597  1.150  0.320    1.008    Y    Y      Y    ps_6-31g*
  H57       1.597  1.150  0.320    1.008    Y    Y      Y    ps_6-31g*
  H58       1.597  1.150  0.320    1.008    Y    Y      Y    ps_6-31g*
  H59       1.597  1.150  0.320    1.008    Y    Y      Y    ps_6-31g*
  H60       1.597  1.150  0.320    1.008    Y    Y      Y    ps_6-31g*
  H61       1.597  1.150  0.320    1.008    Y    Y      Y    ps_6-31g*
  H62       1.597  1.150  0.320    1.008    Y    Y      Y    ps_6-31g*
  H63       1.597  1.150  0.320    1.008    Y    Y      Y    ps_6-31g*
  H64       1.597  1.150  0.320    1.008    Y    Y      Y    ps_6-31g*
  H65       1.597  1.150  0.320    1.008    Y    Y      Y    ps_6-31g*
  H66       1.597  1.150  0.320    1.008    Y    Y      Y    ps_6-31g*
  H67       1.597  1.150  0.320    1.008    Y    Y      Y    ps_6-31g*
  H68       1.597  1.150  0.320    1.008    Y    Y      Y    ps_6-31g*
  H69       1.597  1.150  0.320    1.008    Y    Y      Y    ps_6-31g*
  H70       1.597  1.150  0.320    1.008    Y    Y      Y    ps_6-31g*
  H71       1.597  1.150  0.320    1.008    Y    Y      Y    ps_6-31g*
  H72       1.597  1.150  0.320    1.008    Y    Y      Y    ps_6-31g*
  H73       1.597  1.150  0.320    1.008    Y    Y      Y    ps_6-31g*
  H74       1.597  1.150  0.320    1.008    Y    Y      Y    ps_6-31g*
  H75       1.597  1.150  0.320    1.008    Y    Y      Y    ps_6-31g*
  H76       1.597  1.150  0.320    1.008    Y    Y      Y    ps_6-31g*
  H77       1.597  1.150  0.320    1.008    Y    Y      Y    ps_6-31g*
  H78       1.597  1.150  0.320    1.008    Y    Y      Y    ps_6-31g*
  H79       1.597  1.150  0.320    1.008    Y    Y      Y    ps_6-31g*
  H80       1.597  1.150  0.320    1.008    Y    Y      Y    ps_6-31g*
  H81       1.597  1.150  0.320    1.008    Y    Y      Y    ps_6-31g*
  H82       1.597  1.150  0.320    1.008    Y    Y      Y    ps_6-31g*
  H83       1.597  1.150  0.320    1.008    Y    Y      Y    ps_6-31g*
  H84       1.597  1.150  0.320    1.008    Y    Y      Y    ps_6-31g*
 
  atom      formal  2spin      esp    mulk    frag
  P1           0       0        Y    0.000       0
  Pd2          2       0        Y    0.000       0
  N2          -1       0        Y    0.000       0
  C17         -1       0        Y    0.000       0
  
  end of program pre
   
 Time(pre)  user:       1.076  user+sys:       1.076  wallclock:       1.220
  
  start of program onee
  
  smallest eigenvalue of S:    3.033E-04
  number of canonical orbitals.....          822
  end of program onee
   
 Time(onee)  user:       9.643  user+sys:       9.643  wallclock:       7.447
  
  start of program hfig
  
  initial wavefunction generated automatically from atomic wavefunctions
  Only one state below 0.010000
  Skip d-d repulsion considerations 
 
  Irreducible     Total no   No of occupied orbitals 
  representation  orbitals   Shell_1  Shell_2    ...
  No Symm          822        189
  ------------------------
  Orbital occupation/shell    1.000
 
  end of program hfig
   
 Time(hfig)  user:       1.979  user+sys:       1.979  wallclock:       2.121
  
  start of program probe
  
  end of program probe
   
 Time(probe)  user:       1.116  user+sys:       1.116  wallclock:       1.014
  
  start of program grid
  
   grid     grid set  grid #  grid sym
  ------    --------  ------  --------
  coarse        0        0        1
  medium        2        1        1
  fine          0        0        1
  ultrafine     4        2        1
  charge       -1        3        1
  gradient      4        2        1
  density       0        0        1
  DFT-fine    -11        4        1
  DFT-med.    -10        5        1
  DFT-grad    -12        6        1
  DFT-der2     -8        7        1
  DFT-cphf     -9        8        1
  LMP2-enrg     4        2        1
  LMP2-grad     2        1        1
  DFT-cphf2   -15        9        1
  PBF-dens      0        0        1
  plotting      0        0        1
  Rel-grad    -17        0        1
  
  number of gridpoints: 
     atom           P1         Pd2          N2         C17         C18         C19         C20
  grid # 1         609         354         106          77          92          90          99
  grid # 2         426         311         395         326         319         295         387
  grid # 3           7         261          30          28          20          11           7
  grid # 4        8714        8714        8714        8714        8714        8714        8714
  grid # 5        1192        1192        1192        1192        1192        1192        1192
  grid # 6        9132        9132        5922        5922        5922        5922        5922
  grid # 7       23034       32968       13958       13950       13950       13950       13950
  grid # 8         722        1150         756         748         748         748         748
  grid # 9         366        2198         406         394         394         394         394
   
  number of gridpoints: 
     atom          C21         C22         F10         H24         H25         H26         H27
  grid # 1          94          92         584         109          89         113         115
  grid # 2         319         324         564         451         380         454         463
  grid # 3          10          16         361         210          82         211         365
  grid # 4        8714        8714        8714        8714        8714        8714        8714
  grid # 5        1192        1192        1192        1192        1192        1192        1192
  grid # 6        5922        5922        5922        5922        5922        5922        5922
  grid # 7       13950       13950       23190       15206       15206       15206       15206
  grid # 8         748         748         770         786         786         786         786
  grid # 9         394         394         420         420         420         420         420
   
  number of gridpoints: 
     atom          H15         C16         C23         C24         C25         C26         C27
  grid # 1         111          96          96          96          99          96          96
  grid # 2         446         325         324         322         353         321         323
  grid # 3         197          42          41          35          28          32          39
  grid # 4        8714        8714        8714        8714        8714        8714        8714
  grid # 5        1192        1192        1192        1192        1192        1192        1192
  grid # 6        5922        5922        5922        5922        5922        5922        5922
  grid # 7       15206       13950       13950       13950       13950       13950       13950
  grid # 8         786         748         748         748         748         748         748
  grid # 9         420         394         394         394         394         394         394
   
  number of gridpoints: 
     atom          H22         H23         H28         H29         H30          C3          C4
  grid # 1         118         117         114         113         117          79          80
  grid # 2         466         466         455         455         465         334         331
  grid # 3         412         405         290         256         401           6           6
  grid # 4        8714        8714        8714        8714        8714        8714        8714
  grid # 5        1192        1192        1192        1192        1192        1192        1192
  grid # 6        5922        5922        5922        5922        5922        5922        5922
  grid # 7       15206       15206       15206       15206       15206       13950       13950
  grid # 8         786         786         786         786         786         748         748
  grid # 9         420         420         420         420         420         394         394
   
  number of gridpoints: 
     atom           C5          C6          C7          C8          C9         C10         C11
  grid # 1          91          92          92          92          92          92          90
  grid # 2         384         276         280         278         283         276         279
  grid # 3          10           6           6           6           6           6           6
  grid # 4        8714        8714        8714        8714        8714        8714        8714
  grid # 5        1192        1192        1192        1192        1192        1192        1192
  grid # 6        5922        5922        5922        5922        5922        5922        5922
  grid # 7       13950       13950       13950       13950       13950       13950       13950
  grid # 8         748         748         748         748         748         748         748
  grid # 9         394         394         394         394         394         394         394
   
  number of gridpoints: 
     atom          C12         C13         C14         C15         C40         C41         C42
  grid # 1          92          92          92          92          91          95          95
  grid # 2         283         278         283         277         319         322         322
  grid # 3           6           6           6           6           9          24          26
  grid # 4        8714        8714        8714        8714        8714        8714        8714
  grid # 5        1192        1192        1192        1192        1192        1192        1192
  grid # 6        5922        5922        5922        5922        5922        5922        5922
  grid # 7       13950       13950       13950       13950       13950       13950       13950
  grid # 8         748         748         748         748         748         748         748
  grid # 9         394         394         394         394         394         394         394
   
  number of gridpoints: 
     atom          C43         C44         C45         C46         C47         C48         C49
  grid # 1          93          98          97          98          93         100          93
  grid # 2         321         353         361         364         329         361         326
  grid # 3           7           7           8          14          27          13          18
  grid # 4        8714        8714        8714        8714        8714        8714        8714
  grid # 5        1192        1192        1192        1192        1192        1192        1192
  grid # 6        5922        5922        5922        5922        5922        5922        5922
  grid # 7       13950       13950       13950       13950       13950       13950       13950
  grid # 8         748         748         748         748         748         748         748
  grid # 9         394         394         394         394         394         394         394
   
  number of gridpoints: 
     atom          C50         C51         C28         C29         C30         C31         C32
  grid # 1          98          89          81          91          82          90          82
  grid # 2         361         303         244         310         246         305         244
  grid # 3          10           6           6           6           6           6           6
  grid # 4        8714        8714        8714        8714        8714        8714        8714
  grid # 5        1192        1192        1192        1192        1192        1192        1192
  grid # 6        5922        5922        5922        5922        5922        5922        5922
  grid # 7       13950       13950       13950       13950       13950       13950       13950
  grid # 8         748         748         748         748         748         748         748
  grid # 9         394         394         394         394         394         394         394
   
  number of gridpoints: 
     atom          C33         C34         C35         H36         H37         H38         H39
  grid # 1          80          83          81          98         106         104         109
  grid # 2         246         242         247         427         430         432         446
  grid # 3           6           6           6          66         141         125         216
  grid # 4        8714        8714        8714        8714        8714        8714        8714
  grid # 5        1192        1192        1192        1192        1192        1192        1192
  grid # 6        5922        5922        5922        5922        5922        5922        5922
  grid # 7       13950       13950       13950       15206       15206       15206       15206
  grid # 8         748         748         748         786         786         786         786
  grid # 9         394         394         394         420         420         420         420
   
  number of gridpoints: 
     atom          H40         H41         H42         H43         H44         H45         H46
  grid # 1         112         110         112         109         112         100         106
  grid # 2         459         454         458         448         456         417         433
  grid # 3         326         268         332         206         307          58         142
  grid # 4        8714        8714        8714        8714        8714        8714        8714
  grid # 5        1192        1192        1192        1192        1192        1192        1192
  grid # 6        5922        5922        5922        5922        5922        5922        5922
  grid # 7       15206       15206       15206       15206       15206       15206       15206
  grid # 8         786         786         786         786         786         786         786
  grid # 9         420         420         420         420         420         420         420
   
  number of gridpoints: 
     atom          H47         H48         H49         H50         H51         H52         H53
  grid # 1          99          97          88         108         110         112         110
  grid # 2         422         400         377         441         454         458         455
  grid # 3          74          35          37         193         255         332         245
  grid # 4        8714        8714        8714        8714        8714        8714        8714
  grid # 5        1192        1192        1192        1192        1192        1192        1192
  grid # 6        5922        5922        5922        5922        5922        5922        5922
  grid # 7       15206       15206       15206       15206       15206       15206       15206
  grid # 8         786         786         786         786         786         786         786
  grid # 9         420         420         420         420         420         420         420
   
  number of gridpoints: 
     atom          H54         H55         H56         H57         H58         H59         H60
  grid # 1         112         110         108         108         103         118         118
  grid # 2         457         452         438         435         425         467         466
  grid # 3         326         264         140         150         100         406         411
  grid # 4        8714        8714        8714        8714        8714        8714        8714
  grid # 5        1192        1192        1192        1192        1192        1192        1192
  grid # 6        5922        5922        5922        5922        5922        5922        5922
  grid # 7       15206       15206       15206       15206       15206       15206       15206
  grid # 8         786         786         786         786         786         786         786
  grid # 9         420         420         420         420         420         420         420
   
  number of gridpoints: 
     atom          H61         H62         H63         H64         H65         H66         H67
  grid # 1         111         105         103         100         110         105         108
  grid # 2         440         419         431         426         455         436         447
  grid # 3         193          66         136          40         306         175         277
  grid # 4        8714        8714        8714        8714        8714        8714        8714
  grid # 5        1192        1192        1192        1192        1192        1192        1192
  grid # 6        5922        5922        5922        5922        5922        5922        5922
  grid # 7       15206       15206       15206       15206       15206       15206       15206
  grid # 8         786         786         786         786         786         786         786
  grid # 9         420         420         420         420         420         420         420
   
  number of gridpoints: 
     atom          H68         H69         H70         H71         H72         H73         H74
  grid # 1         106         106         109         113         110         107         108
  grid # 2         437         435         451         449         442         441         448
  grid # 3         157         210         307         270         219         258         271
  grid # 4        8714        8714        8714        8714        8714        8714        8714
  grid # 5        1192        1192        1192        1192        1192        1192        1192
  grid # 6        5922        5922        5922        5922        5922        5922        5922
  grid # 7       15206       15206       15206       15206       15206       15206       15206
  grid # 8         786         786         786         786         786         786         786
  grid # 9         420         420         420         420         420         420         420
   
  number of gridpoints: 
     atom          H75         H76         H77         H78         H79         H80         H81
  grid # 1         107         105         110         107         107         110         109
  grid # 2         441         444         454         447         447         455         448
  grid # 3         222         240         319         269         236         326         238
  grid # 4        8714        8714        8714        8714        8714        8714        8714
  grid # 5        1192        1192        1192        1192        1192        1192        1192
  grid # 6        5922        5922        5922        5922        5922        5922        5922
  grid # 7       15206       15206       15206       15206       15206       15206       15206
  grid # 8         786         786         786         786         786         786         786
  grid # 9         420         420         420         420         420         420         420
   
  number of gridpoints: 
     atom          H82         H83         H84       total
  grid # 1         106         111         110       12132
  grid # 2         447         460         456       41766
  grid # 3         243         345         324       14898
  grid # 4        8714        8714        8714      941112
  grid # 5        1192        1192        1192      128736
  grid # 6        5922        5922        5922      645996
  grid # 7       15206       15206       15206     1618054
  grid # 8         786         786         786       83432
  grid # 9         420         420         420       45900
   
  end of program grid
   
 Time(grid)  user:    1017.963  user+sys:    1017.963  wallclock:     514.700
  
  start of program rwr
  
  end of program rwr
   
 Time(rwr)  user:      28.666  user+sys:      28.666  wallclock:      38.694
  
  start of program scf
  
 number of electrons..........        378
 number of alpha electrons....        189
 number of beta electrons.....        189
 number of orbitals, total....        822
 number of doubly-occ'd orbs..        189
 number of open shell orbs....          0
 number of occupied orbitals..        189
 number of virtual orbitals...        633
 number of hamiltonians.......          1
 number of shells.............          1
 SCF type: DFT=Becke_3_Parameter/HF+Slater+Becke88+PW91+PW-GGAIIC (B3PW91-D3)
 Energy computed using pseudospectral method.
 Convergence Criterion:
    Energy (econv):       1.00E-05
    RMS density (dconv):  5.00E-06
  
       i  u  d  i  g                   
       t  p  i  c  r                                 RMS    maximum
       e  d  i  u  i                       energy  density   DIIS  
       r  t  s  t  d       total energy    change  change    error 
  
etot    1  N  N  5  M   -2366.26820661154           1.7E-03  2.4E-01
etot    2  Y  Y  6  M   -2370.47196122178  4.2E+00  2.5E-03  1.4E-01
etot    3  Y  Y  6  M   -2371.67111804857  1.2E+00  1.1E-03  5.1E-02
etot    4  N  Y  2  U   -2372.02521707662  3.5E-01  7.1E-04  5.0E-02
etot    5  Y  Y  6  M   -2372.13412909254  1.1E-01  4.5E-04  3.1E-02
etot    6  N  Y  2  U   -2372.14711899037  1.3E-02  5.0E-04  1.6E-02
etot    7  Y  Y  6  M   -2372.15835259387  1.1E-02  8.6E-05  5.0E-03
etot    8  N  Y  2  U   -2372.16500088496  6.6E-03  3.5E-05  1.3E-03
etot    9  N  Y  2  U   -2372.16540006191  4.0E-04  9.1E-06  3.8E-04
etot   10  N  Y  2  U   -2372.16541637561  1.6E-05  3.6E-06  1.1E-04
etot   11  N  N  2  U   -2372.16542221646  5.8E-06  0.0E+00  0.0E+00
 
  Computing the dispersion energy correction and its gradients...
  
  
 Energy components, in hartrees:
   (A)  Nuclear repulsion............    7573.55145493964
   (E)  Total one-electron terms.....  -18371.53278277185
   (F)    Electron-nuclear...........  -20648.65766600336
   (H)    Kinetic....................    2277.12488323152
   (I)  Total two-electron terms.....    8425.81590561575
   (J)    Coulomb....................    8744.78420654790
   (K)    Exchange+Correlation.......    -318.96830093215
   (L)  Electronic energy............   -9945.71687715610  (E+I)
   (N0) D3 correction................      -0.18678492540
   (N)  Total energy.................   -2372.35220714187  (A+L+N0)
   (O)  Gas phase energy.............   -2372.35220714187
  
 SCFE: SCF energy: DFT(b3pw91-d3)     -2372.35220714187 hartrees   iterations:  11
  
 
 HOMO energy:    -0.16622
 LUMO energy:    -0.04770
 
  Orbital energies (hartrees): 
   -77.08108   -24.67763   -14.28175   -10.23867   -10.20906   -10.20813
   -10.19580   -10.19466   -10.19162   -10.19027   -10.18958   -10.18764
   -10.18710   -10.18547   -10.18478   -10.18270   -10.18026   -10.17839
   -10.17607   -10.17588   -10.17337   -10.17257   -10.17254   -10.17226
   -10.17066   -10.17024   -10.17018   -10.16872   -10.16751   -10.16620
   -10.16366   -10.16316   -10.16303   -10.16294   -10.15969   -10.15946
   -10.15861   -10.15850   -10.15781   -10.15699   -10.15522   -10.15402
   -10.15035   -10.14995   -10.14910   -10.14408   -10.14216   -10.14111
    -6.58119    -4.73946    -4.73866    -4.73586    -3.32872    -2.06049
    -2.05950    -2.02791    -1.21400    -0.88566    -0.86177    -0.85699
    -0.84415    -0.84310    -0.83681    -0.81785    -0.81376    -0.78746
    -0.78544    -0.77977    -0.77096    -0.76963    -0.75306    -0.74772
    -0.74494    -0.73215    -0.72388    -0.71959    -0.71827    -0.71563
    -0.68173    -0.68166    -0.67825    -0.67744    -0.66456    -0.64084
    -0.63398    -0.62904    -0.61495    -0.61271    -0.60807    -0.59890
    -0.59640    -0.59374    -0.58793    -0.57654    -0.56818    -0.56544
    -0.55694    -0.55497    -0.54784    -0.53857    -0.52820    -0.52193
    -0.49292    -0.48968    -0.48430    -0.48185    -0.48134    -0.47631
    -0.46949    -0.46531    -0.46133    -0.45414    -0.45237    -0.45038
    -0.44859    -0.44668    -0.44337    -0.44183    -0.43849    -0.43782
    -0.43753    -0.43281    -0.43020    -0.42664    -0.42291    -0.42117
    -0.42078    -0.41490    -0.41111    -0.40779    -0.40224    -0.39968
    -0.39783    -0.39647    -0.39325    -0.39165    -0.38985    -0.38460
    -0.38357    -0.38183    -0.38085    -0.38052    -0.37801    -0.37669
    -0.37240    -0.37003    -0.36503    -0.35955    -0.35860    -0.35844
    -0.35256    -0.35225    -0.35048    -0.34604    -0.34337    -0.34172
    -0.33926    -0.33825    -0.33691    -0.33323    -0.33212    -0.32876
    -0.32670    -0.32518    -0.32345    -0.32063    -0.31755    -0.31499
    -0.31318    -0.30990    -0.30586    -0.30388    -0.29976    -0.29777
    -0.29093    -0.28959    -0.27201    -0.26607    -0.26347    -0.25279
    -0.24905    -0.23492    -0.23040    -0.22987    -0.22311    -0.22228
    -0.20794    -0.19293    -0.16622    -0.04770    -0.04420    -0.02898
    -0.00186     0.00245     0.00724     0.01654     0.02129     0.02650
     0.03450
 
  end of program scf
   
 Time(scf)  user:     847.492  user+sys:     847.492  wallclock:     451.173
  
  start of program der1a
  
  end of program der1a
   
 Time(der1a)  user:      28.735  user+sys:      28.735  wallclock:      15.231
  
  start of program rwr
  
  end of program rwr
   
 Time(rwr)  user:      35.809  user+sys:      35.809  wallclock:      48.250
  
  start of program der1b
  
   
  forces (hartrees/bohr) : total     
   
 atom  label           x              y              z
 ---- --------   -------------  -------------  -------------
    1 P1         -5.939424E-03   7.849184E-03   2.582317E-02
    2 Pd2         5.759957E-03   1.261061E-02  -1.977316E-03
    3 N2          1.159418E-02   2.932890E-03   4.388794E-02
    4 C17        -1.975415E-02   2.724089E-02  -4.593462E-03
    5 C18         5.849990E-03   1.819431E-02   3.076681E-03
    6 C19         4.702747E-02  -9.355248E-03   7.671974E-02
    7 C20         1.388428E-02   1.331712E-02   1.679666E-02
    8 C21        -1.160209E-02  -2.276365E-03   2.532172E-03
    9 C22         1.512208E-02  -9.954109E-03   2.625327E-03
   10 F10         3.913841E-03  -5.343193E-03  -3.361754E-04
   11 H24         1.550616E-03   1.997819E-02  -1.881693E-02
   12 H25         3.725428E-02  -1.958230E-02   4.857671E-02
   13 H26         2.505246E-04  -1.243889E-03  -1.023710E-03
   14 H27        -1.494191E-03  -2.311078E-03  -1.483681E-04
   15 H15        -2.028181E-02  -4.101028E-02  -2.715936E-02
   16 C16        -4.292823E-04  -4.278451E-03   2.194385E-03
   17 C23        -8.755577E-04   3.336385E-03  -1.529887E-03
   18 C24         3.226137E-03  -8.663112E-03   1.123750E-02
   19 C25         3.630478E-03   3.928604E-02  -1.578056E-02
   20 C26        -5.125157E-03  -8.857525E-03  -1.790853E-04
   21 C27         2.846051E-03   1.844149E-03  -2.432460E-03
   22 H22        -7.034029E-05   8.645781E-03  -5.628317E-03
   23 H23        -8.234088E-03   2.486535E-03  -5.615660E-03
   24 H28        -8.993759E-03  -5.968711E-03  -1.694350E-03
   25 H29         9.817231E-03   4.173547E-04   4.856179E-03
   26 H30         7.964038E-03   6.330553E-03  -2.230548E-04
   27 C3          1.392491E-02   8.404304E-03  -1.108450E-02
   28 C4         -7.948054E-03  -1.083940E-02  -2.286423E-02
   29 C5          2.182376E-03  -1.415244E-02  -1.057436E-02
   30 C6         -7.753553E-03   1.173670E-02  -5.970409E-03
   31 C7          3.865757E-03   2.616709E-03  -4.295369E-03
   32 C8          9.604488E-03   1.257840E-04  -4.011710E-03
   33 C9          5.776648E-03  -2.384549E-03  -6.134864E-04
   34 C10        -7.895209E-03  -1.665489E-02   1.050733E-02
   35 C11        -2.569216E-02   1.124056E-02  -6.032220E-02
   36 C12        -3.351063E-04  -3.760771E-03  -7.387205E-04
   37 C13        -4.714923E-03  -9.552761E-03  -1.014972E-03
   38 C14        -4.749586E-03  -2.905302E-03  -1.927211E-03
   39 C15        -9.214347E-03   1.428248E-02  -5.045759E-03
   40 C40        -5.303278E-03   2.122419E-04  -1.399200E-02
   41 C41        -4.160310E-04  -6.000825E-05  -4.502935E-04
   42 C42         1.387977E-03  -2.302798E-03   1.154928E-03
   43 C43        -8.469190E-03   1.122016E-02  -1.531974E-02
   44 C44        -2.979166E-03  -1.464926E-02  -4.911471E-02
   45 C45         1.841706E-03   5.834637E-03   5.717259E-02
   46 C46         5.934939E-04  -4.060366E-03   1.272188E-02
   47 C47         2.114045E-04   3.985775E-03   3.645973E-03
   48 C48         4.307799E-04  -3.564388E-03  -1.264519E-02
   49 C49        -1.149232E-03   2.140004E-03   3.305377E-03
   50 C50         5.637568E-03   9.894483E-03   1.530020E-02
   51 C51         8.439729E-03  -2.725239E-03  -1.217087E-02
   52 C28        -2.741858E-03   6.029807E-03  -1.238258E-02
   53 C29        -5.159008E-04  -2.109045E-02  -6.510642E-03
   54 C30        -7.218727E-03  -2.036769E-02   2.761794E-02
   55 C31         3.861074E-03   1.949451E-03   4.663884E-03
   56 C32         3.855517E-03  -8.097378E-04   8.227275E-03
   57 C33        -5.988244E-03   6.854629E-03  -4.372235E-03
   58 C34         2.284953E-04  -8.022027E-03   9.122373E-03
   59 C35        -3.887379E-03   1.022406E-02   7.283084E-04
   60 H36        -1.109235E-02  -4.729998E-03   3.825399E-03
   61 H37         3.034943E-03   6.350275E-03   6.419489E-03
   62 H38         1.865318E-03  -1.150297E-02  -2.583919E-03
   63 H39        -4.945322E-03  -5.453563E-03  -6.439493E-03
   64 H40        -1.692018E-03  -4.199004E-03   1.096835E-02
   65 H41         4.385482E-03   5.317838E-03   7.085253E-03
   66 H42        -1.112374E-02  -2.160250E-03   1.606125E-03
   67 H43        -5.867972E-03  -5.217727E-03  -6.466360E-03
   68 H44        -5.868374E-03   1.027740E-02   3.722764E-03
   69 H45        -1.877871E-03   5.768894E-03  -1.074619E-02
   70 H46         4.383245E-03   5.434381E-03   5.700174E-03
   71 H47        -2.180672E-03   1.842545E-03   5.686672E-03
   72 H48        -2.771974E-02   3.065010E-03  -2.520484E-02
   73 H49        -2.325601E-02   1.911579E-02  -5.625865E-02
   74 H50        -8.833220E-04   7.664799E-03  -7.824657E-03
   75 H51        -3.472552E-03   2.311517E-03   9.417938E-03
   76 H52         2.912231E-03   9.784774E-03   4.949454E-03
   77 H53         4.333715E-03  -1.842648E-03  -8.858967E-03
   78 H54         1.193851E-02   9.048352E-04  -1.117338E-04
   79 H55        -3.535365E-03   2.050582E-03   8.682964E-03
   80 H56         5.839218E-03   4.493920E-05  -5.574835E-03
   81 H57         3.624734E-03  -5.859991E-03   8.359768E-03
   82 H58        -7.304980E-04   6.379285E-03   8.169950E-03
   83 H59         2.731994E-03   1.339780E-03   1.054951E-02
   84 H60         5.618724E-03  -4.866682E-03   8.436771E-03
   85 H61         4.544185E-03  -7.919224E-03   7.949319E-03
   86 H62         3.899218E-03  -2.597247E-03  -7.694264E-03
   87 H63        -3.732451E-03  -4.328997E-03  -7.486682E-03
   88 H64        -7.791634E-04  -2.160302E-03  -4.628534E-03
   89 H65         2.326456E-03  -1.000276E-02  -2.637388E-03
   90 H66         8.420204E-03   2.242553E-03   8.125980E-03
   91 H67        -7.769183E-03  -6.334429E-04   7.199744E-03
   92 H68         5.446636E-03   1.422019E-02   1.848393E-03
   93 H69        -2.175667E-03   3.284653E-03  -1.050367E-02
   94 H70         7.655500E-03   8.554002E-03   4.437423E-04
   95 H71        -3.150511E-04  -3.238062E-02   5.254524E-03
   96 H72        -9.160641E-03  -4.073692E-03  -4.830374E-03
   97 H73        -1.327075E-03  -1.038147E-02  -2.041802E-03
   98 H74        -1.165947E-02   2.909808E-04   3.853897E-03
   99 H75        -1.922571E-03   7.036176E-03  -7.689912E-03
  100 H76         3.300433E-03  -5.998981E-03  -8.307036E-03
  101 H77         1.005059E-02   2.606572E-03   4.192752E-03
  102 H78        -1.337364E-03  -8.689854E-03   5.513754E-03
  103 H79         1.031742E-02   3.284851E-03   1.298492E-04
  104 H80        -1.305570E-03  -2.907732E-03  -9.989343E-03
  105 H81        -8.187021E-03   8.705480E-03   5.014797E-05
  106 H82         1.045023E-02   1.385110E-03   7.475101E-04
  107 H83        -3.627670E-03  -7.860286E-03   7.499188E-03
  108 H84        -8.865099E-04  -5.539620E-03  -9.332893E-03
 -------------   -------------  -------------  -------------
     total        4.090688E-04   2.431589E-03   1.112463E-03
   
  end of program der1b
   
 Time(der1b)  user:     301.482  user+sys:     301.482  wallclock:     158.691
  
  start of program geopt
  
 ----------------------------------------------------------------------------
  Geometry optimization step  1
  Total energy:     -2372.35220714187 hartrees
 ----------------------------------------------------------------------------
  
  
  Level shifts adjusted to satisfy step-size constraints
   Step size:    0.3002504
   Cos(theta):   0.7278678
   Final level shift:  -7.0981216E-01
  
  gradient maximum:        4.6078E-01 .  (  2.2500E-03 )
  gradient rms:            5.8964E-02 .  (  1.5000E-03 )
  displacement maximum:    5.4564E-02 .  (  9.0000E-03 )
  displacement rms:        1.0483E-02 .  (  6.0000E-03 )
  
  predicted energy change:  -1.2572E-01
  step size:     0.20246
  trust radius:  0.30000
  
  molecular structure not yet converged...
  
  center of mass moved by:
     x:     1.2146E-02     y:     9.5100E-02     z:     6.1894E-03
  
  new geometry: 
                                   angstroms
  atom               x                 y                 z
  P1           -0.0439125960     -0.0192336770     -0.0671329607 
  Pd2           0.0003281367      0.1136091054      2.2448137521 
  N2           -0.1304619528      0.3985556442      4.2025378596 
  C17           3.1223928664     -3.5348111647      2.7463547216 
  C18           1.7508533272     -3.7915887177      2.7223877741 
  C19           0.8271732758     -2.7527798875      2.5565742513 
  C20           1.2611254071     -1.4285290296      2.4202174481 
  C21           2.6367101954     -1.1748112699      2.4527422792 
  C22           3.5538985806     -2.2149595218      2.6117822399 
  F10           4.0103816216     -4.5224212454      2.8819209935 
  H24          -3.9223290448      0.6191780764      2.6278192196 
  H25          -0.2278182266     -2.9871916182      2.5639487717 
[...]
    H40      X    -0.00018   0.00002   0.00024   0.00001  -0.00002  -0.00001
    H40      Y    -0.00006  -0.00020   0.00021   0.00002  -0.00001   0.00000
    H40      Z     0.00023   0.00058  -0.00074  -0.00006   0.00006   0.00000
    H41      X     0.00003   0.00055  -0.00005  -0.00006   0.00000  -0.00000
    H41      Y     0.00013   0.00061  -0.00010  -0.00007   0.00000   0.00000
    H41      Z     0.00012   0.00099  -0.00009  -0.00008  -0.00000  -0.00001
    H42      X     0.00052   0.00016   0.00007   0.00003  -0.00007   0.00001
    H42      Y    -0.00013  -0.00000   0.00007   0.00001   0.00000   0.00000
    H42      Z    -0.00010  -0.00011  -0.00005  -0.00001   0.00002  -0.00001
    H43      X     0.00021   0.00357  -0.00004   0.00005  -0.00002  -0.00001
    H43      Y     0.00020   0.00358  -0.00001   0.00004  -0.00003  -0.00001
    H43      Z     0.00021   0.00356  -0.00004   0.00008  -0.00002   0.00001
    H44      X     0.00004  -0.00023   0.00012   0.00010  -0.00002  -0.00001
    H44      Y    -0.00026   0.00063  -0.00009  -0.00021   0.00006   0.00001
    H44      Z     0.00005  -0.00009  -0.00004   0.00003   0.00000   0.00000
    H45      X    -0.00003  -0.00057  -0.00002  -0.00052   0.00002   0.00000
    H45      Y    -0.00031  -0.00214   0.00016  -0.00187   0.00001   0.00000
    H45      Z     0.00059   0.00681  -0.00021   0.00602  -0.00001   0.00017
    H46      X     0.00038   0.00174  -0.00034   0.00006   0.00000  -0.00000
    H46      Y     0.00055   0.00175  -0.00045   0.00009   0.00001   0.00001
    H46      Z     0.00045   0.00146  -0.00038  -0.00019  -0.00000  -0.00003
    H47      X    -0.00123   0.00001   0.00082  -0.00032  -0.00002   0.00010
    H47      Y     0.00111  -0.00014  -0.00077   0.00012  -0.00002   0.00007
    H47      Z     0.00286  -0.00031  -0.00205   0.00108   0.00010  -0.00001
    H48      X     0.00091   0.00010  -0.00043   0.00645  -0.00015  -0.00010
    H48      Y    -0.00029  -0.00001   0.00018  -0.00142   0.00003   0.00003
    H48      Z     0.00019   0.00017  -0.00010  -0.00006  -0.00000   0.00001
    H49      X    -0.00007   0.00045  -0.00002  -0.00400  -0.00016   0.00004
    H49      Y    -0.00009  -0.00030   0.00013   0.00307   0.00012   0.00001
    H49      Z     0.00015  -0.00081   0.00008   0.00828   0.00014  -0.00001
    H50      X     0.00007  -0.00001  -0.00007  -0.00001   0.00003   0.00001
    H50      Y    -0.00032   0.00020  -0.00003  -0.00115  -0.00009   0.00000
    H50      Z     0.00034  -0.00016  -0.00005   0.00087   0.00006   0.00000
    H51      X    -0.00004   0.00013   0.00006  -0.00039  -0.00006   0.00000
    H51      Y     0.00008  -0.00014  -0.00007   0.00046   0.00008  -0.00002
    H51      Z     0.00008  -0.00031  -0.00015   0.00100   0.00017  -0.00002
    H52      X    -0.00018  -0.00007  -0.00006   0.00018   0.00005  -0.00001
    H52      Y    -0.00043  -0.00012  -0.00002   0.00022   0.00007  -0.00001
    H52      Z    -0.00010  -0.00005  -0.00005   0.00012   0.00004  -0.00001
    H53      X    -0.00012   0.00007   0.00004   0.00000  -0.00007  -0.00001
    H53      Y     0.00007  -0.00003  -0.00001  -0.00003   0.00003   0.00001
    H53      Z     0.00029  -0.00012  -0.00011  -0.00007   0.00008   0.00002
    H54      X    -0.00034  -0.00005  -0.00047   0.00031   0.00013   0.00002
    H54      Y     0.00008   0.00002   0.00006  -0.00011  -0.00003   0.00001
    H54      Z    -0.00006  -0.00001  -0.00004   0.00007   0.00003  -0.00000
    H55      X    -0.00013   0.00005   0.00014  -0.00001  -0.00000  -0.00000
    H55      Y     0.00021  -0.00004  -0.00018  -0.00000  -0.00002  -0.00001
    H55      Z     0.00035  -0.00012  -0.00030   0.00002  -0.00001  -0.00001
    H56      X    -0.00121   0.00009   0.00079  -0.00007   0.00005   0.00003
    H56      Y     0.00052  -0.00006  -0.00028   0.00008  -0.00004  -0.00003
    H56      Z     0.00295  -0.00016  -0.00197   0.00004  -0.00025  -0.00006
    H57      X     0.00168  -0.00003  -0.00122   0.00016   0.00001   0.00000
    H57      Y    -0.00333   0.00010   0.00302  -0.00044  -0.00006   0.00000
    H57      Z     0.00262  -0.00009  -0.00227   0.00043   0.00007   0.00001
    H58      X    -0.15825   0.00065   0.13096   0.00065  -0.00004   0.00002
    H58      Y     0.49175  -0.00211  -0.40555  -0.00198   0.00014  -0.00007
    H58      Z     0.35275  -0.00153  -0.28811  -0.00144   0.00009  -0.00006
    H59      X     0.03236   0.00009  -0.09493  -0.00036   0.00003  -0.00001
    H59      Y    -0.00359   0.00004  -0.00292  -0.00001   0.00000   0.00001
    H59      Z     0.16349   0.00063  -0.51201  -0.00194   0.00018  -0.00005
    H60      X    -0.20566   0.00229  -0.22678  -0.00072   0.00011  -0.00001
    H60      Y     0.36303  -0.00406   0.40232   0.00128  -0.00021   0.00002
    H60      Z    -0.19352   0.00214  -0.20858  -0.00067   0.00011  -0.00002
    H61      X    -0.14570   0.00174  -0.09149  -0.00000   0.00006   0.00000
    H61      Y     0.40469  -0.00482   0.25494   0.00003  -0.00019  -0.00002
    H61      Z     0.30194  -0.00357   0.19190   0.00006  -0.00016   0.00001
    H62      X    -0.00048  -0.00041  -0.00204  -0.00032  -0.00541  -0.00030
    H62      Y    -0.00010  -0.00014  -0.00061  -0.00010  -0.00159  -0.00004
    H62      Z     0.00040   0.00032   0.00163   0.00025   0.00375   0.00022
    H63      X     0.00029   0.00096   0.00148   0.00006  -0.00065  -0.00045
    H63      Y     0.00029   0.00075   0.00120   0.00003  -0.00050  -0.00047
    H63      Z     0.00021   0.00049   0.00084   0.00003  -0.00031  -0.00015
    H64      X    -0.00006  -0.00002  -0.00013  -0.00000  -0.00002   0.00005
    H64      Y    -0.00002  -0.00020   0.00022  -0.00005   0.00001  -0.00005
    H64      Z    -0.00005  -0.00029   0.00034  -0.00008  -0.00001  -0.00009
    H65      X    -0.00016  -0.00001  -0.00010   0.00000   0.00001  -0.00001
    H65      Y    -0.00133  -0.00001  -0.00061  -0.00002   0.00000  -0.00002
    H65      Z    -0.00210   0.00001  -0.00102  -0.00002   0.00001   0.00001
    H66      X    -0.00658   0.00020  -0.00371  -0.00013  -0.00001   0.00004
    H66      Y     0.00206  -0.00006   0.00108   0.00005   0.00001  -0.00003
    H66      Z    -0.00393   0.00014  -0.00218  -0.00008  -0.00001   0.00003
    H67      X    -0.00166   0.00037  -0.00035   0.00005  -0.00010   0.00006
    H67      Y    -0.00038   0.00013  -0.00002   0.00002  -0.00004   0.00004
    H67      Z     0.00110  -0.00028   0.00019  -0.00003   0.00008  -0.00006
    H68      X     0.00011   0.00002   0.00013   0.00006   0.00024   0.00000
    H68      Y    -0.00013  -0.00004   0.00013  -0.00006   0.00002  -0.00003
    H68      Z    -0.00039  -0.00012  -0.00009  -0.00028  -0.00085  -0.00005
    H69      X    -0.00013   0.00003   0.00001   0.00010   0.00313  -0.00013
    H69      Y     0.00014  -0.00002  -0.00003  -0.00006  -0.00113   0.00010
    H69      Z     0.00057  -0.00008   0.00008  -0.00016  -0.00137   0.00024
    H70      X     0.00039  -0.00021  -0.00062  -0.00049   0.00061   0.00004
    H70      Y     0.00017  -0.00012  -0.00039  -0.00027   0.00104  -0.00004
    H70      Z     0.00014  -0.00010  -0.00031  -0.00025   0.00025   0.00006
    H71      X    -0.00001   0.01824   0.00033  -0.15976   0.00051   0.00001
    H71      Y     0.00003   0.06588   0.00116  -0.55456   0.00176  -0.00022
    H71      Z    -0.00002  -0.02898  -0.00050   0.24493  -0.00076   0.00013
    H72      X     0.00001   0.00019   0.00016   0.00004  -0.00033  -0.00019
    H72      Y     0.00001   0.00014   0.00012   0.00003  -0.00030  -0.00022
    H72      Z     0.00001   0.00005   0.00005   0.00001  -0.00002  -0.00005
    H73      X     0.00004  -0.00024   0.00008  -0.00003  -0.00002  -0.00004
    H73      Y     0.00014  -0.00033   0.00017  -0.00006  -0.00012   0.00014
    H73      Z     0.00023  -0.00104   0.00032  -0.00013  -0.00011   0.00009
    H74      X    -0.00005  -0.00071   0.00047   0.00004   0.00002   0.00008
    H74      Y    -0.00005   0.00000   0.00007   0.00003   0.00002  -0.00004
    H74      Z     0.00004   0.00061  -0.00037  -0.00002  -0.00003  -0.00003
    H75      X    -0.00005   0.00027  -0.00007   0.00004   0.00003  -0.00002
    H75      Y     0.00099  -0.00704   0.00065  -0.00051   0.00029   0.00042
    H75      Z    -0.00033   0.00152  -0.00020   0.00012  -0.00003  -0.00026
    H76      X     0.00057   0.00001   0.00027   0.00003  -0.00015   0.00001
    H76      Y    -0.00053  -0.00000  -0.00023  -0.00002   0.00012   0.00001
    H76      Z    -0.00212   0.00000  -0.00106  -0.00006   0.00039   0.00000
    H77      X     0.00135  -0.00016   0.00005  -0.00021   0.00039  -0.00015
    H77      Y     0.00093  -0.00009   0.00012  -0.00010   0.00018  -0.00005
    H77      Z     0.00073  -0.00007   0.00006  -0.00010   0.00020  -0.00007
    H78      X     0.00112   0.00001   0.00066   0.00001  -0.00007   0.00002
    H78      Y     0.00585   0.00001   0.00310   0.00003   0.00032  -0.00003
    H78      Z    -0.00368  -0.00000  -0.00195  -0.00001  -0.00018   0.00003
    H79      X    -0.00004   0.00022   0.00001   0.00019  -0.00140  -0.00062
    H79      Y    -0.00003   0.00014  -0.00001   0.00015  -0.00082  -0.00018
    H79      Z    -0.00000   0.00002  -0.00002   0.00002   0.00009  -0.00001
    H80      X     0.00000  -0.00003  -0.00003  -0.00003  -0.00007  -0.00007
    H80      Y    -0.00003   0.00013   0.00015   0.00008  -0.00059  -0.00004
    H80      Z    -0.00006   0.00031   0.00040   0.00018  -0.00109   0.00002
    H81      X    -0.00004   0.00004  -0.00016   0.00034   0.00044   0.00070
    H81      Y     0.00002  -0.00007   0.00009  -0.00022  -0.00050  -0.00008
    H81      Z     0.00000  -0.00003  -0.00002  -0.00008   0.00006  -0.00012
    H82      X    -0.00006   0.00008  -0.00003  -0.00002  -0.00031  -0.00008
    H82      Y    -0.00004   0.00004  -0.00003  -0.00002  -0.00014  -0.00002
    H82      Z     0.00000   0.00000  -0.00002  -0.00001  -0.00005  -0.00001
    H83      X     0.00000  -0.00000   0.00000   0.00000  -0.00002  -0.00001
    H83      Y     0.00009   0.00004   0.00001   0.00000  -0.00012   0.00005
    H83      Z    -0.00007  -0.00005  -0.00003  -0.00001   0.00011  -0.00003
    H84      X    -0.00001  -0.00002  -0.00003  -0.00001   0.00002  -0.00001
    H84      Y    -0.00005   0.00009   0.00015   0.00006  -0.00009   0.00001
    H84      Z    -0.00010   0.00021   0.00032   0.00012  -0.00021   0.00001
  
  Number of imaginary frequencies:   0
   
  Writing vibrational animation data to red_elim_Ar_trans_L1_PL146.vib
  Writing IR vibrational spectrum data to red_elim_Ar_trans_L1_PL146_vib.spm
  rotational symmetry number:  1

  rotational temperatures (K):      0.003227      0.002958      0.002327
   
  The Quasi-Harmonic approximation will be applied to compute
  vibrational constributions to thermodynamic properties.
  Frequencies will be adjusted to a minimum value of  100.00 cm^-1.

  vibrational temperatures:
       mode:      1        2        3        4        5        6
  temp. (K):   143.88   143.88   143.88   143.88   143.88   143.88
   
       mode:      7        8        9       10       11       12
  temp. (K):   143.88   143.88   143.88   143.88   143.88   143.88
   
       mode:     13       14       15       16       17       18
  temp. (K):   143.88   143.88   143.88   143.88   143.88   143.88
   
       mode:     19       20       21       22       23       24
  temp. (K):   143.88   151.55   157.50   169.78   183.47   200.40
   
       mode:     25       26       27       28       29       30
  temp. (K):   208.51   213.99   226.17   240.48   251.63   258.98
   
       mode:     31       32       33       34       35       36
  temp. (K):   271.43   273.07   284.93   293.02   305.87   317.42
   
       mode:     37       38       39       40       41       42
  temp. (K):   330.49   346.13   364.52   368.09   373.42   376.48
   
       mode:     43       44       45       46       47       48
  temp. (K):   380.71   389.11   394.64   405.95   410.60   422.83
   
       mode:     49       50       51       52       53       54
  temp. (K):   429.44   454.05   471.96   480.07   486.66   488.86
   
       mode:     55       56       57       58       59       60
  temp. (K):   494.21   510.70   532.90   544.18   553.72   557.62
   
       mode:     61       62       63       64       65       66
  temp. (K):   590.29   604.93   609.50   611.83   644.91   648.95
   
       mode:     67       68       69       70       71       72
  temp. (K):   650.71   655.37   689.84   694.57   697.26   711.19
   
       mode:     73       74       75       76       77       78
  temp. (K):   721.70   738.84   752.90   762.90   774.29   779.36
   
       mode:     79       80       81       82       83       84
  temp. (K):   797.44   808.81   836.95   845.86   851.73   875.95
   
       mode:     85       86       87       88       89       90
  temp. (K):   910.76   914.38   915.77   936.88   945.50   987.11
   
       mode:     91       92       93       94       95       96
  temp. (K):  1019.38  1022.61  1048.03  1081.19  1091.42  1097.93
   
       mode:     97       98       99      100      101      102
  temp. (K):  1116.56  1120.63  1122.81  1148.24  1168.61  1180.86
   
       mode:    103      104      105      106      107      108
  temp. (K):  1188.32  1197.26  1201.41  1204.04  1205.32  1210.54
   
       mode:    109      110      111      112      113      114
  temp. (K):  1215.11  1233.37  1241.94  1260.39  1264.26  1273.21
   
       mode:    115      116      117      118      119      120
  temp. (K):  1305.41  1310.69  1313.25  1313.94  1318.73  1324.24
   
       mode:    121      122      123      124      125      126
  temp. (K):  1329.54  1330.00  1354.23  1360.23  1364.90  1365.83
   
       mode:    127      128      129      130      131      132
  temp. (K):  1367.50  1372.65  1385.11  1386.20  1401.64  1404.04
   
       mode:    133      134      135      136      137      138
  temp. (K):  1415.59  1416.10  1417.48  1419.70  1433.76  1451.00
   
       mode:    139      140      141      142      143      144
  temp. (K):  1468.50  1471.36  1476.92  1480.87  1486.36  1525.25
   
       mode:    145      146      147      148      149      150
  temp. (K):  1526.04  1532.90  1541.42  1544.58  1550.13  1558.32
   
       mode:    151      152      153      154      155      156
  temp. (K):  1570.05  1592.86  1598.68  1599.98  1600.20  1601.37
   
       mode:    157      158      159      160      161      162
  temp. (K):  1604.86  1606.67  1621.15  1640.48  1643.29  1643.66
   
       mode:    163      164      165      166      167      168
  temp. (K):  1649.27  1654.86  1663.77  1674.30  1683.56  1718.24
   
       mode:    169      170      171      172      173      174
  temp. (K):  1720.18  1723.99  1740.50  1742.96  1745.78  1753.96
   
       mode:    175      176      177      178      179      180
  temp. (K):  1757.17  1762.43  1778.32  1803.95  1806.83  1826.12
   
       mode:    181      182      183      184      185      186
  temp. (K):  1839.41  1859.00  1866.01  1869.70  1877.69  1887.34
   
       mode:    187      188      189      190      191      192
  temp. (K):  1889.71  1897.46  1898.09  1902.10  1903.24  1916.07
   
       mode:    193      194      195      196      197      198
  temp. (K):  1923.77  1930.04  1935.58  1938.93  1950.09  1952.48
   
       mode:    199      200      201      202      203      204
  temp. (K):  1954.07  1963.98  1967.86  1974.19  1975.04  1982.81
   
       mode:    205      206      207      208      209      210
  temp. (K):  1992.04  1998.12  1999.00  2009.63  2013.79  2018.09
   
       mode:    211      212      213      214      215      216
  temp. (K):  2020.20  2020.67  2022.73  2027.46  2034.70  2046.24
   
       mode:    217      218      219      220      221      222
  temp. (K):  2049.01  2052.28  2054.29  2074.38  2077.59  2081.51
   
       mode:    223      224      225      226      227      228
  temp. (K):  2122.42  2139.68  2155.68  2158.19  2170.41  2172.16
   
       mode:    229      230      231      232      233      234
  temp. (K):  2173.56  2174.86  2175.54  2175.64  2176.68  2181.30
   
       mode:    235      236      237      238      239      240
  temp. (K):  2181.72  2183.01  2184.13  2185.11  2186.63  2190.60
   
       mode:    241      242      243      244      245      246
  temp. (K):  2196.25  2199.86  2201.03  2201.34  2201.79  2204.37
   
       mode:    247      248      249      250      251      252
  temp. (K):  2209.08  2210.93  2211.78  2216.93  2219.70  2318.03
   
       mode:    253      254      255      256      257      258
  temp. (K):  2341.04  2352.22  2362.08  2375.72  2379.89  2396.88
   
       mode:    259      260      261      262      263      264
  temp. (K):  2399.47  4350.15  4354.90  4355.42  4356.48  4356.95
   
       mode:    265      266      267      268      269      270
  temp. (K):  4362.55  4363.98  4371.88  4371.97  4376.10  4376.57
   
       mode:    271      272      273      274      275      276
  temp. (K):  4376.58  4378.18  4380.93  4383.41  4390.75  4392.53
   
       mode:    277      278      279      280      281      282
  temp. (K):  4392.72  4415.06  4426.95  4436.00  4439.09  4440.03
   
       mode:    283      284      285      286      287      288
  temp. (K):  4443.44  4450.40  4451.81  4452.82  4475.31  4483.04
   
       mode:    289      290      291      292      293      294
  temp. (K):  4483.24  4484.84  4491.98  4492.93  4494.52  4496.32
   
       mode:    295      296      297      298      299      300
  temp. (K):  4500.22  4506.32  4506.96  4511.16  4512.83  4523.86
   
       mode:    301      302      303      304      305      306
  temp. (K):  4534.76  4547.11  4558.13  4559.39  4575.15  4575.71
   
       mode:    307      308      309      310      311      312
  temp. (K):  4585.64  4588.08  4588.99  4600.51  4604.19  4606.08
   
       mode:    313      314      315      316      317      318
  temp. (K):  4615.60  4619.32  4626.32  4628.45  4662.93  5036.40
   
   
  Thermodynamic properties calculated assuming an ideal gas

  In the table below, the units for temperature
  are kelvins, the units for U, H, and G are
  kcal/mol and the units for Cv and S are cal/(mol K)

  The zero point energy (ZPE):    595.565 kcal/mol
  is not included in U, H, or G in the table below
  
 
  =============================================================================
  Thermodynamic properties for P = 1.00E+00 atm, calculated at   1 temperatures


  T =   298.15 K, P = 1.00E+00 atm
   
                  U         Cv          S          H          G        ln(Q)
              =========  =========  =========  =========  =========  =========
  trans.          0.889      2.981     45.800      1.481    -12.174   20.54742
  rot.            0.889      2.981     38.611      0.889    -10.623   17.92988
  vib.           28.313    188.219    172.440     28.313    -23.100   38.98829
  elec.           0.000      0.000      0.000      0.000      0.000    0.00000
  ----------------------------------------------------------------------------
  total          30.090    194.181    256.851     30.683    -45.897   77.46559
   
   Total internal energy, Utot(SCFE + ZPE + U):   -2371.557028 hartrees
   Total enthalpy, Htot (Utot + nRT), with n=1:   -2371.556084 hartrees
    Total Gibbs free energy, Gtot (Htot - T*S):   -2371.678122 hartrees
   
  end of program freq
   
 Time(freq)  user:       0.426  user+sys:       0.426  wallclock:       0.717
  
  start of program post
  
  Writing input files for PBF
  end of program post
   
 Time(post)  user:       0.167  user+sys:       0.167  wallclock:       0.126

 Total cpu seconds     user:  203621.656   user+sys:  203621.656
  
 Total elapsed time:    117069 seconds

Job red_elim_Ar_trans_L1_PL146 completed on bp1-compute089 at Tue Apr 22 05:46:39 2025
