Job red_elim_N_trans_L1_PL146 started on bp1-compute056.data.bp.acrc.priv at Sat Mar 29 13:27:17 2025
jobid: bp1-compute056-0-67e7f530

  +--------------------------------------------------------------------+
  |  Jaguar version 12.5, release 138                                  |
  |                                                                    |
  |  Copyright Schrodinger, Inc.                                       |
  |  All Rights Reserved.                                              |
  |                                                                    |
  |  The following have contributed to Jaguar (listed alphabetically): |
  |  Ty Balduf, Mike Beachy, Chandler Bennett, Art Bochevarov,         |
  |  Dale Braden, Yixiang Cao, Alan Chien, Chris Cortis,               |
  |  Rich Friesner, Jim Furness, Bill Goddard, Hod Greeley,            |
  |  Tom Hughes, Leif Jacobson, Jean-Marc Langlois, Daniel Levine,     |
  |  Rob Murphy, Dean Philipp, Tom Pollard, Murco Ringnalda,           |
  |  Daniel Mainz, Pablo Videla, Mark Watson, Haoyu Yu.                |
  |                                                                    |
  |  Use of this program should be acknowledged in publications as:    |
  |                                                                    |
  |  Jaguar, version 12.5, Schrodinger, Inc., New York, NY, 2024.      |
  |                                                                    |
  |  A. D. Bochevarov, E. Harder, T. F. Hughes, J. R. Greenwood,       |
  |  D. A. Braden, D. M. Philipp, D. Rinaldo, M. D. Halls,             |
  |  J. Zhang, R. A. Friesner, "Jaguar: A High-Performance Quantum     |
  |  Chemistry Software Program with Strengths in Life and Materials   |
  |  Sciences", Int. J. Quantum Chem., 2013, 113(18), 2110-2142.       |
  +--------------------------------------------------------------------+
  
  start of program pre
  
  Job name: red_elim_N_trans_L1_PL146
  Executables used: /software/local/apps/schrodinger2024-3/jaguar-v12.5/bin/Linux-x86_64
  Temporary files : /tmp/ar21627/red_elim_N_trans_L1_PL146#bp1-compute056-0-67e7f530
  Basis file : using default basis file from /software/local/apps/schrodinger2024-3
  Maestro file (input):  red_elim_N_trans_L1_PL146.mae
  Maestro file (output): red_elim_N_trans_L1_PL146.01.mae
  
 Contents of input file: &gen and (if present) &atomic sections only
 ----------------Contents start----------------
&gen
dftname=b3pw91-d3
basis=6-31G*
numd=5
ip11=2
iaccg=3
isolv=2
igeopt=1
solvent=benzene
ifreq=1
&
&atomic
atom basis
Pd2 lacv3p*
&
 -----------------Contents end-----------------
 
  PS calculation requested. Using PS version of 6-31g*
  basis set:               non_standard                    
  net molecular charge:    0
  multiplicity:            1
  
  Using up to   4 threads per process
  
  This run will use ECP on 1 atom
  number of basis functions....          825
  
  input atom labels were not unique
  original atom labels:
 P1       Pd2      N2       C16      C17      C18      C19      C20     
 C21      F10      H23      H24      H25      H26      H18      C22     
 C23      C24      C25      C26      C27      H22      H27      H28     
 H29      H30      C3       C4       C5       C6       C7       C8      
 C9       C10      C11      C12      C13      C14      C15      C16     
 C17      C18      C19      C20      C21      C22      C23      C24     
 C25      C26      C27      C28      C29      C30      C31      C32     
 C33      C34      C35      H36      H37      H38      H39      H40     
 H41      H42      H43      H44      H45      H46      H47      H48     
 H49      H50      H51      H52      H53      H54      H55      H56     
 H57      H58      H59      H60      H61      H62      H63      H64     
 H65      H66      H67      H68      H69      H70      H71      H72     
 H73      H74      H75      H76      H77      H78      H79      H80     
 H81      H82      H83      H84     
  new atom labels:
 P1       Pd2      N3       C4       C5       C6       C7       C8      
 C9       F10      H11      H12      H13      H14      H15      C16     
 C17      C18      C19      C20      C21      H22      H23      H24     
 H25      H26      C27      C28      C29      C30      C31      C32     
 C33      C34      C35      C36      C37      C38      C39      C40     
 C41      C42      C43      C44      C45      C46      C47      C48     
 C49      C50      C51      C52      C53      C54      C55      C56     
 C57      C58      C59      H60      H61      H62      H63      H64     
 H65      H66      H67      H68      H69      H70      H71      H72     
 H73      H74      H75      H76      H77      H78      H79      H80     
 H81      H82      H83      H84      H85      H86      H87      H88     
 H89      H90      H91      H92      H93      H94      H95      H96     
 H97      H98      H99      H100     H101     H102     H103     H104    
 H105     H106     H107     H108    
 
  
 Input geometry:
                                   angstroms
  atom               x                 y                 z
  P1            0.0000000000      0.0000000000      0.0000000000 
  Pd2           0.0000000000      0.0000000000      2.3923182082 
  N3            2.0248930909      0.0000000000      2.1745882742 
  C4            0.2206536699     -0.0004682074      7.2562187795 
  C5            0.2132510608      1.1987257052      6.5347188772 
  C6            0.1940987259      1.1999612069      5.1371944723 
  C7            0.1665902834      0.0035440496      4.4021695345 
  C8            0.1874309102     -1.1950990358      5.1348464771 
  C9            0.2094305550     -1.1978928222      6.5306472385 
  F10           0.2210357163     -0.0074586338      8.5892003953 
  H11           0.2335369015      2.1463964378      7.0741070950 
  H12           0.2136829301      2.1567974204      4.6153218170 
  H13           0.2023730899     -2.1504656761      4.6104898253 
  H14           0.2240023780     -2.1467925995      7.0679212173 
  H15           2.4443237244      1.0018584917      2.0003542185 
  C16           4.0295452266     -1.9114413017      5.4205510973 
  C17           3.6384422407     -2.6598336373      4.2981422519 
  C18           2.9786251993     -2.0306962813      3.2297565963 
  C19           2.7099111439     -0.6531665897      3.2837797861 
  C20           3.1009671510      0.0952705404      4.4061125628 
  C21           3.7608311712     -0.5339116101      5.4745742872 
  H22           4.5479091451     -2.4057027176      6.2598937335 
  H23           3.8496154531     -3.7420855516      4.2558188718 
  H24           2.6713875323     -2.6186419814      2.3480145026 
  H25           2.8898358885      1.1773902725      4.4484636576 
  H26           4.0680688560      0.0540340938      6.3563163721 
  C27           1.7314260000      0.0000000000     -0.7803510000 
  C28          -0.8389310000     -1.6125100000     -0.4671430000 
  C29          -0.9848230000      1.4026410000     -0.7940230000 
  C30           1.8547750000      0.7516540000     -2.1227420000 
  C31           3.3180330000      0.9088290000     -2.5641460000 
  C32           3.9857420000     -0.4642000000     -2.7094370000 
  C33           3.8697970000     -1.2539880000     -1.4001690000 
  C34           2.4046590000     -1.3782340000     -0.9523140000 
  C35          -0.5056190000     -2.7173740000      0.5550030000 
  C36          -1.0578700000     -4.0832580000      0.1240010000 
  C37          -2.5787210000     -4.0214240000     -0.0639300000 
  C38          -2.9499870000     -2.9127210000     -1.0567430000 
  C39          -2.3764560000     -1.5612970000     -0.6035480000 
  C40          -1.2326260000      1.0727740000     -2.1445640000 
  C41          -2.0074230000      1.8467040000     -3.0133740000 
  C42          -2.5762550000      3.0149250000     -2.5108640000 
  C43          -2.3457000000      3.3486970000     -1.1711310000 
  C44          -1.5716150000      2.5946540000     -0.2583740000 
  C45          -1.4845710000      3.1859880000      1.0425790000 
  C46          -2.6627950000      3.7192940000      1.6634130000 
  C47          -2.5820030000      4.2912230000      2.9466350000 
  C48          -1.3970670000      4.3770750000      3.6798710000 
  C49          -0.2533110000      3.8746240000      3.0556160000 
  C50          -0.2640180000      3.2967370000      1.7715360000 
  C51           1.0915300000      2.9645870000      1.1740160000 
  C52           1.4067790000      3.9332530000      0.0191460000 
  C53          -4.0953790000      3.6342790000      1.1260110000 
  C54          -5.0412910000      2.8632550000      2.0771900000 
  C55          -1.3503270000      4.9862100000      5.0661820000 
  C56           2.3090590000      2.9352650000      2.1233600000 
  C57          -4.7015910000      5.0251990000      0.8488140000 
  C58          -2.1695860000      4.1389580000      6.0528510000 
  C59          -1.8228880000      6.4491930000      5.0548960000 
  H60           2.3867450000      0.5770350000     -0.0919280000 
  H61           1.3141700000      0.1937620000     -2.9206610000 
  H62           1.4022340000      1.7673630000     -2.0399630000 
  H63           3.8741960000      1.5227350000     -1.8158020000 
  H64           3.3667480000      1.4574500000     -3.5356390000 
  H65           3.4933720000     -1.0343290000     -3.5330210000 
  H66           5.0594910000     -0.3409120000     -2.9901210000 
  H67           4.4602150000     -0.7409420000     -0.6036040000 
  H68           4.3155280000     -2.2694410000     -1.5316230000 
  H69           2.3928530000     -1.9481030000      0.0023690000 
  H70           1.8435120000     -1.9816870000     -1.7025810000 
  H71          -0.4389790000     -1.9178500000     -1.4612040000 
  H72           0.5926800000     -2.8081600000      0.7031910000 
  H73          -0.9307450000     -2.4449230000      1.5495160000 
  H74          -0.8025950000     -4.8567340000      0.8878940000 
  H75          -0.5737560000     -4.3948660000     -0.8321230000 
  H76          -2.9612600000     -5.0058110000     -0.4263340000 
  H77          -3.0671780000     -3.8197310000      0.9193380000 
  H78          -4.0610290000     -2.8453320000     -1.1480450000 
  H79          -2.5540330000     -3.1666150000     -2.0689060000 
  H80          -2.8409550000     -1.2901760000      0.3698920000 
  H81          -2.6950660000     -0.7836810000     -1.3332440000 
  H82          -0.8269830000      0.1490770000     -2.5831970000 
  H83          -2.1683160000      1.5442320000     -4.0620710000 
  H84          -3.1860710000      3.6639080000     -3.1622960000 
  H85          -2.7801850000      4.3120260000     -0.8732000000 
  H86          -3.4874380000      4.6840980000      3.4296210000 
  H87           0.6805840000      3.9784600000      3.6228140000 
  H88           1.0266120000      1.9505350000      0.7669170000 
  H89           1.4696610000      4.9814100000      0.3911670000 
  H90           0.6324150000      3.9097330000     -0.7800130000 
  H91           2.3781330000      3.6836580000     -0.4668080000 
  H92          -4.1528910000      3.0118410000      0.2055240000 
  H93          -5.2093640000      3.3805210000      3.0477490000 
  H94          -6.0481870000      2.7278610000      1.6177120000 
  H95          -4.6503260000      1.8462990000      2.3045150000 
  H96          -0.2935640000      4.9861450000      5.4288540000 
  H97           2.5900930000      3.9534910000      2.4772170000 
  H98           3.2074330000      2.5275330000      1.6042550000 
  H99           2.1268810000      2.2866310000      3.0101390000 
  H100         -4.8671170000      5.6013710000      1.7870070000 
  H101         -5.6894310000      4.9361080000      0.3408470000 
  H102         -4.0502780000      5.6527470000      0.2007590000 
  H103         -3.2507000000      4.1225990000      5.7860570000 
  H104         -2.0872280000      4.5383680000      7.0899930000 
  H105         -1.8069790000      3.0848960000      6.0668100000 
  H106         -2.8940520000      6.5403640000      4.7650410000 
  H107         -1.2220950000      7.0541700000      4.3371010000 
  H108         -1.7122910000      6.9130400000      6.0621790000 
   
  principal moments of inertia:
        amu*angstrom^2:              8254.43170              8647.59238             12166.93666
                g*cm^2:          1.37068046E-36          1.43596632E-36          2.02036711E-36
   
  rotational constants:
               cm^(-1):      0.00204225      0.00194940      0.00138553
                   GHz:      0.06122517      0.05844159      0.04153708
   
  Molecular weight:     769.34 amu
   
  Stoichiometry: PdC45PNH59F
  Molecular Point Group: C1      
  Point Group used: C1
  
 
Number of optimization coordinates:   366
Number of independent coordinates:    366
Number of non-redundant coordinates:  318
Number of frozen coordinates:           0
Number of harmonic constraints:         0
 
Number of geometric degrees of freedom:   318
Maximum geometric degrees of freedom:     318
 " " " " " excluding dummy atoms:         318
 
 
  bond lengths (angstroms):
 
 P1      -Pd2     :   2.392318      P1      -C27     :   1.899153
 P1      -C28     :   1.876757      P1      -C29     :   1.888849
 Pd2     -N3      :   2.036565      Pd2     -C7      :   2.016747
 N3      -H15     :   1.100000      N3      -C19     :   1.458143
 C4      -C5      :   1.399530      C4      -C9      :   1.400145
 C4      -F10     :   1.333000      C5      -C6      :   1.397656
 C5      -H11     :   1.090610      C6      -C7      :   1.404433
 C6      -H12     :   1.090078      C7      -C8      :   1.404989
 C8      -C9      :   1.395977      C8      -H13     :   1.089908
 C9      -H14     :   1.090544      C16     -C17     :   1.404583
 C16     -C21     :   1.404533      C16     -H22     :   1.103400
 C17     -C18     :   1.404500      C17     -H23     :   1.103474
 C18     -C19     :   1.404533      C18     -H24     :   1.103424
 C19     -C20     :   1.404533      C20     -C21     :   1.404600
 C20     -H25     :   1.103337      C21     -H26     :   1.103424
 C27     -C30     :   1.543442      C27     -C34     :   1.543484
 C27     -H60     :   1.111908      C28     -C35     :   1.541624
 C28     -C39     :   1.544413      C28     -H71     :   1.114159
 C29     -C40     :   1.412154      C29     -C44     :   1.432529
 C30     -C31     :   1.536446      C30     -H61     :   1.113630
 C30     -H62     :   1.115038      C31     -C32     :   1.533673
 C31     -H63     :   1.116341      C31     -H64     :   1.116762
 C32     -C33     :   1.533425      C32     -H65     :   1.116139
 C32     -H66     :   1.116656      C33     -C34     :   1.537088
 C33     -H67     :   1.116389      C33     -H68     :   1.116737
 C34     -H69     :   1.111895      C34     -H70     :   1.114425
 C35     -C36     :   1.535051      C35     -H72     :   1.111963
 C35     -H73     :   1.115355      C36     -C37     :   1.533665
 C36     -H74     :   1.116675      C36     -H75     :   1.116082
 C37     -C38     :   1.533864      C37     -H76     :   1.116553
 C37     -H77     :   1.116282      C38     -C39     :   1.536447
 C38     -H78     :   1.116822      C38     -H79     :   1.116116
 C39     -H80     :   1.112138      C39     -H81     :   1.112949
 C40     -C41     :   1.397894      C40     -H82     :   1.100073
 C41     -C42     :   1.393135      C41     -H83     :   1.103241
 C42     -C43     :   1.399801      C42     -H84     :   1.103367
 C43     -C44     :   1.414537      C43     -H85     :   1.097972
 C44     -C45     :   1.431688      C45     -C46     :   1.434595
 C45     -C50     :   1.425971      C46     -C47     :   1.407227
 C46     -C53     :   1.532425      C47     -C48     :   1.396094
 C47     -H86     :   1.098835      C48     -C49     :   1.396542
 C48     -C55     :   1.514955      C49     -C50     :   1.408165
 C49     -H87     :   1.097568      C50     -C51     :   1.518178
 C51     -C52     :   1.539942      C51     -C56     :   1.544180
 C51     -H88     :   1.094644      C52     -H89     :   1.113996
 C52     -H90     :   1.113035      C52     -H91     :   1.114440
 C53     -C54     :   1.547246      C53     -C57     :   1.542397
 C53     -H92     :   1.112669      C54     -H93     :   1.112563
 C54     -H94     :   1.115030      C54     -H95     :   1.112982
 C55     -C58     :   1.537055      C55     -C59     :   1.537453
 C55     -H96     :   1.117264      C56     -H97     :   1.113992
 C56     -H98     :   1.114805      C56     -H99     :   1.113684
 C57     -H100    :   1.113364      C57     -H101    :   1.114359
 C57     -H102    :   1.112655      C58     -H103    :   1.113667
 C58     -H104    :   1.114439      C58     -H105    :   1.114776
 C59     -H106    :   1.113427      C59     -H107    :   1.114531
 C59     -H108    :   1.114453
 
  bond angles:
 
 C27     -P1      -Pd2     : 114.261015  C28     -P1      -Pd2     : 104.413004
 C28     -P1      -C27     : 107.773617  C29     -P1      -Pd2     : 114.858201
 C29     -P1      -C27     : 107.614511  C29     -P1      -C28     : 107.477575
 N3      -Pd2     -P1      :  83.862758  C7      -Pd2     -P1      : 175.260696
 C7      -Pd2     -N3      :  91.399003  H15     -N3      -Pd2     : 113.331428
 C19     -N3      -Pd2     : 112.691549  C19     -N3      -H15     : 110.446772
 C9      -C4      -C5      : 117.748983  F10     -C4      -C5      : 121.333471
 F10     -C4      -C9      : 120.912073  C6      -C5      -C4      : 121.085167
 H11     -C5      -C4      : 119.306782  H11     -C5      -C6      : 119.604803
 C7      -C6      -C5      : 121.522045  H12     -C6      -C5      : 118.635292
 H12     -C6      -C7      : 119.838237  C6      -C7      -Pd2     : 121.647118
 C8      -C7      -Pd2     : 121.293709  C8      -C7      -C6      : 116.972232
 C9      -C8      -C7      : 121.557740  H13     -C8      -C7      : 119.810802
 H13     -C8      -C9      : 118.624739  C8      -C9      -C4      : 121.101860
 H14     -C9      -C4      : 119.256721  H14     -C9      -C8      : 119.640461
 C21     -C16     -C17     : 120.002746  H22     -C16     -C17     : 120.000393
 H22     -C16     -C21     : 119.996860  C18     -C17     -C16     : 120.000393
 H23     -C17     -C16     : 119.995826  H23     -C17     -C18     : 120.003781
 C19     -C18     -C17     : 119.996860  H24     -C18     -C17     : 119.999284
 H24     -C18     -C19     : 120.003855  C18     -C19     -N3      : 119.996860
 C20     -C19     -N3      : 119.996860  C20     -C19     -C18     : 120.006279
 C21     -C20     -C19     : 119.996860  H25     -C20     -C19     : 120.001259
 H25     -C20     -C21     : 120.001881  C20     -C21     -C16     : 119.996860
 H26     -C21     -C16     : 120.003855  H26     -C21     -C20     : 119.999284
 C30     -C27     -P1      : 115.482193  C34     -C27     -P1      : 116.323207
 C34     -C27     -C30     : 107.643956  H60     -C27     -P1      : 106.434200
 H60     -C27     -C30     : 103.807101  H60     -C27     -C34     : 105.980486
 C35     -C28     -P1      : 110.738068  C39     -C28     -P1      : 116.008863
 C39     -C28     -C35     : 107.311688  H71     -C28     -P1      : 107.282423
 H71     -C28     -C35     : 108.514083  H71     -C28     -C39     : 106.717762
 C40     -C29     -P1      : 108.666711  C44     -C29     -P1      : 132.399612
 C44     -C29     -C40     : 118.691726  C31     -C30     -C27     : 112.073554
 H61     -C30     -C27     : 109.901496  H61     -C30     -C31     : 107.922155
 H62     -C30     -C27     : 110.280278  H62     -C30     -C31     : 108.340464
 H62     -C30     -H61     : 108.210788  C32     -C31     -C30     : 110.503273
 H63     -C31     -C30     : 109.763661  H63     -C31     -C32     : 109.811721
 H64     -C31     -C30     : 109.981518  H64     -C31     -C32     : 109.779500
 H64     -C31     -H63     : 106.933685  C33     -C32     -C31     : 110.321973
 H65     -C32     -C31     : 109.581516  H65     -C32     -C33     : 109.486077
 H66     -C32     -C31     : 110.096731  H66     -C32     -C33     : 110.132310
 H66     -C32     -H65     : 107.163976  C34     -C33     -C32     : 111.252501
 H67     -C33     -C32     : 109.422610  H67     -C33     -C34     : 109.472841
 H68     -C33     -C32     : 109.733808  H68     -C33     -C34     : 109.953059
 H68     -C33     -H67     : 106.904606  C33     -C34     -C27     : 112.088856
 H69     -C34     -C27     : 110.938019  H69     -C34     -C33     : 107.560842
 H70     -C34     -C27     : 109.809666  H70     -C34     -C33     : 109.121575
 H70     -C34     -H69     : 107.167792  C36     -C35     -C28     : 111.947817
 H72     -C35     -C28     : 111.126341  H72     -C35     -C36     : 108.669593
 H73     -C35     -C28     : 109.494682  H73     -C35     -C36     : 109.304054
 H73     -C35     -H72     : 106.116356  C37     -C36     -C35     : 110.810925
 H74     -C36     -C35     : 109.999579  H74     -C36     -C37     : 109.782118
 H75     -C36     -C35     : 109.445619  H75     -C36     -C37     : 109.658877
 H75     -C36     -H74     : 107.066825  C38     -C37     -C36     : 110.394373
 H76     -C37     -C36     : 110.119025  H76     -C37     -C38     : 110.135780
 H77     -C37     -C36     : 109.467225  H77     -C37     -C38     : 109.488770
 H77     -C37     -H76     : 107.174175  C39     -C38     -C37     : 110.762982
 H78     -C38     -C37     : 109.713864  H78     -C38     -C39     : 110.022673
 H79     -C38     -C37     : 109.674910  H79     -C38     -C39     : 109.581676
 H79     -C38     -H78     : 107.008477  C38     -C39     -C28     : 111.623363
 H80     -C39     -C28     : 110.278116  H80     -C39     -C38     : 108.463277
 H81     -C39     -C28     : 111.473754  H81     -C39     -C38     : 108.319006
 H81     -C39     -H80     : 106.497701  C41     -C40     -C29     : 124.217200
 H82     -C40     -C29     : 120.848301  H82     -C40     -C41     : 114.925303
 C42     -C41     -C40     : 117.799910  H83     -C41     -C40     : 121.320683
 H83     -C41     -C42     : 120.879109  C43     -C42     -C41     : 118.549764
 H84     -C42     -C41     : 120.393212  H84     -C42     -C43     : 121.054346
 C44     -C43     -C42     : 125.493203  H85     -C43     -C42     : 113.811468
 H85     -C43     -C44     : 120.607624  C43     -C44     -C29     : 115.242330
 C45     -C44     -C29     : 131.189824  C45     -C44     -C43     : 113.543362
 C46     -C45     -C44     : 119.791946  C50     -C45     -C44     : 123.273644
 C50     -C45     -C46     : 116.928869  C47     -C46     -C45     : 119.904664
 C53     -C46     -C45     : 126.541026  C53     -C46     -C47     : 113.328583
 C48     -C47     -C46     : 123.548685  H86     -C47     -C46     : 119.921626
 H86     -C47     -C48     : 116.521233  C49     -C48     -C47     : 115.990880
 C55     -C48     -C47     : 122.108125  C55     -C48     -C49     : 121.899906
 C50     -C49     -C48     : 123.300690  H87     -C49     -C48     : 115.583359
 H87     -C49     -C50     : 121.100024  C49     -C50     -C45     : 120.300498
 C51     -C50     -C45     : 123.097554  C51     -C50     -C49     : 116.224601
 C52     -C51     -C50     : 109.896754  C56     -C51     -C50     : 117.787228
 C56     -C51     -C52     : 108.155152  H88     -C51     -C50     : 107.223138
 H88     -C51     -C52     : 108.418300  H88     -C51     -C56     : 104.940131
 H89     -C52     -C51     : 110.668567  H90     -C52     -C51     : 112.503659
 H90     -C52     -H89     : 107.393434  H91     -C52     -C51     : 111.380856
 H91     -C52     -H89     : 107.887459  H91     -C52     -H90     : 106.772892
 C54     -C53     -C46     : 112.555587  C57     -C53     -C46     : 112.359782
 C57     -C53     -C54     : 108.637683  H92     -C53     -C46     : 111.683017
 H92     -C53     -C54     : 101.432272  H92     -C53     -C57     : 109.601633
 H93     -C54     -C53     : 113.388366  H94     -C54     -C53     : 111.053937
 H94     -C54     -H93     : 106.231420  H95     -C54     -C53     : 111.477463
 H95     -C54     -H93     : 107.439950  H95     -C54     -H94     : 106.883515
 C58     -C55     -C48     : 110.446558  C59     -C55     -C48     : 111.494094
 C59     -C55     -C58     : 111.432369  H96     -C55     -C48     : 109.038366
 H96     -C55     -C58     : 107.201819  H96     -C55     -C59     : 107.047248
 H97     -C56     -C51     : 112.138112  H98     -C56     -C51     : 110.858412
 H98     -C56     -H97     : 106.195378  H99     -C56     -C51     : 111.815032
 H99     -C56     -H97     : 108.704750  H99     -C56     -H98     : 106.832867
 H100    -C57     -C53     : 111.942282  H101    -C57     -C53     : 110.991852
 H101    -C57     -H100    : 107.079595  H102    -C57     -C53     : 112.533607
 H102    -C57     -H100    : 106.615761  H102    -C57     -H101    : 107.367641
 H103    -C58     -C55     : 111.823074  H104    -C58     -C55     : 111.128127
 H104    -C58     -H103    : 107.454765  H105    -C58     -C55     : 110.846305
 H105    -C58     -H103    : 107.750706  H105    -C58     -H104    : 107.649001
 H106    -C59     -C55     : 112.056905  H107    -C59     -C55     : 110.827592
 H107    -C59     -H106    : 107.847659  H108    -C59     -C55     : 111.033461
 H108    -C59     -H106    : 107.258556  H108    -C59     -H107    : 107.618818
 
  torsional angles:
 
 P1      -Pd2     -N3      -H15     :  82.697021
 P1      -Pd2     -N3      -C19     :-150.953049
 P1      -Pd2     -C7      -C6      :  90.381529
 P1      -Pd2     -C7      -C8      : -93.112019
 P1      -C27     -C30     -C31     : 170.312141
 P1      -C27     -C30     -H61     : -69.690300
 P1      -C27     -C30     -H62     :  49.525700
 P1      -C27     -C34     -C33     :-171.775272
 P1      -C27     -C34     -H69     : -51.515570
 P1      -C27     -C34     -H70     :  66.762044
 P1      -C28     -C35     -C36     :-174.123033
 P1      -C28     -C35     -H72     : -52.407923
 P1      -C28     -C35     -H73     :  64.494853
 P1      -C28     -C39     -C38     : 177.116189
 P1      -C28     -C39     -H80     : -62.243884
 P1      -C28     -C39     -H81     :  55.833774
 P1      -C29     -C40     -C41     : 175.890179
 P1      -C29     -C40     -H82     :  -2.949598
 P1      -C29     -C44     -C43     :-174.503172
 P1      -C29     -C44     -C45     :   7.440696
 Pd2     -P1      -C27     -C30     :-147.351771
 Pd2     -P1      -C27     -C34     :  85.030040
 Pd2     -P1      -C27     -H60     : -32.756134
 Pd2     -P1      -C28     -C35     : -33.971857
 Pd2     -P1      -C28     -C39     :  88.628897
 Pd2     -P1      -C28     -H71     :-152.226625
 Pd2     -P1      -C29     -C40     :-162.946211
 Pd2     -P1      -C29     -C44     :  11.158518
 Pd2     -N3      -C19     -C18     :  90.105271
 Pd2     -N3      -C19     -C20     : -89.894729
 Pd2     -C7      -C6      -C5      : 175.358092
 Pd2     -C7      -C6      -H12     :  -5.417776
 Pd2     -C7      -C8      -C9      :-175.508721
 Pd2     -C7      -C8      -H13     :   5.447408
 N3      -Pd2     -P1      -C27     :   0.000000
 N3      -Pd2     -P1      -C28     : 117.486340
 N3      -Pd2     -P1      -C29     :-125.073480
 N3      -Pd2     -C7      -C6      :  91.593634
 N3      -Pd2     -C7      -C8      : -91.899915
 N3      -C19     -C18     -C17     : 180.000000
 N3      -C19     -C18     -H24     :   0.000001
 N3      -C19     -C20     -C21     : 180.000000
 N3      -C19     -C20     -H25     :   0.000001
 C4      -C5      -C6      -C7      :   0.715588
 C4      -C5      -C6      -H12     :-178.517609
 C4      -C9      -C8      -C7      :  -0.434505
 C4      -C9      -C8      -H13     : 178.620373
 C5      -C4      -C9      -C8      :  -0.193424
 C5      -C4      -C9      -H14     : 179.449184
 C5      -C6      -C7      -C8      :  -1.292430
 C6      -C5      -C4      -C9      :   0.055695
 C6      -C5      -C4      -F10     :-179.100613
 C6      -C7      -C8      -C9      :   1.154437
 C6      -C7      -C8      -H13     :-177.889434
 C7      -Pd2     -P1      -C27     :   1.218729
 C7      -Pd2     -P1      -C28     : 118.705069
 C7      -Pd2     -P1      -C29     :-123.854750
 C7      -Pd2     -N3      -H15     : -97.202263
 C7      -Pd2     -N3      -C19     :  29.147667
 C7      -C6      -C5      -H11     :-179.944664
 C7      -C8      -C9      -H14     : 179.924240
 C8      -C7      -C6      -H12     : 177.931702
 C8      -C9      -C4      -F10     : 178.966622
 C9      -C4      -C5      -H11     :-179.285990
 F10     -C4      -C5      -H11     :   1.557702
 F10     -C4      -C9      -H14     :  -1.390769
 H11     -C5      -C6      -H12     :   0.822139
 H13     -C8      -C9      -H14     :  -1.020882
 H15     -N3      -C19     -C18     :-142.012991
 H15     -N3      -C19     -C20     :  37.987009
 C16     -C17     -C18     -C19     :   0.000000
 C16     -C17     -C18     -H24     : 179.999999
 C16     -C21     -C20     -C19     :   0.000000
 C16     -C21     -C20     -H25     : 180.000000
 C17     -C16     -C21     -C20     :   0.000000
 C17     -C16     -C21     -H26     : 180.000000
 C17     -C18     -C19     -C20     :   0.000000
 C18     -C17     -C16     -C21     :   0.000000
 C18     -C17     -C16     -H22     : 180.000000
 C18     -C19     -C20     -C21     :   0.000000
 C18     -C19     -C20     -H25     :-179.999999
 C19     -C18     -C17     -H23     : 180.000000
 C19     -C20     -C21     -H26     :-179.999999
 C20     -C19     -C18     -H24     :-179.999999
 C20     -C21     -C16     -H22     : 180.000000
 C21     -C16     -C17     -H23     : 179.999999
 H22     -C16     -C17     -H23     :   0.000000
 H22     -C16     -C21     -H26     :   0.000000
 H23     -C17     -C18     -H24     :  -0.000001
 H25     -C20     -C21     -H26     :   0.000000
 C27     -P1      -C28     -C35     :  87.891372
 C27     -P1      -C28     -C39     :-149.507873
 C27     -P1      -C28     -H71     : -30.363395
 C27     -P1      -C29     -C40     :  68.575132
 C27     -P1      -C29     -C44     :-117.320139
 C27     -C30     -C31     -C32     :  58.739691
 C27     -C30     -C31     -H63     : -62.516410
 C27     -C30     -C31     -H64     :-179.901248
 C27     -C34     -C33     -C32     : -57.176607
 C27     -C34     -C33     -H67     :  63.885387
 C27     -C34     -C33     -H68     :-178.954189
 C28     -P1      -C27     -C30     :  97.105682
 C28     -P1      -C27     -C34     : -30.512507
 C28     -P1      -C27     -H60     :-148.298681
 C28     -P1      -C29     -C40     : -47.257531
 C28     -P1      -C29     -C44     : 126.847198
 C28     -C35     -C36     -C37     : -58.164312
 C28     -C35     -C36     -H74     :-179.740867
 C28     -C35     -C36     -H75     :  62.890635
 C28     -C39     -C38     -C37     :  58.611595
 C28     -C39     -C38     -H78     :-179.913842
 C28     -C39     -C38     -H79     : -62.521935
 C29     -P1      -C27     -C30     : -18.531854
 C29     -P1      -C27     -C34     :-146.150043
 C29     -P1      -C27     -H60     :  96.063783
 C29     -P1      -C28     -C35     :-156.381057
 C29     -P1      -C28     -C39     : -33.780303
 C29     -P1      -C28     -H71     :  85.364175
 C29     -C40     -C41     -C42     :  -0.326790
 C29     -C40     -C41     -H83     : 179.870300
 C29     -C44     -C43     -C42     :   0.486073
 C29     -C44     -C43     -H85     :-175.891602
 C29     -C44     -C45     -C46     :-137.352873
 C29     -C44     -C45     -C50     :  43.530427
 C30     -C27     -C34     -C33     :  56.844316
 C30     -C27     -C34     -H69     : 177.104018
 C30     -C27     -C34     -H70     : -64.618369
 C30     -C31     -C32     -C33     : -55.963191
 C30     -C31     -C32     -H65     :  64.653691
 C30     -C31     -C32     -H66     :-177.721356
 C31     -C30     -C27     -C34     : -57.847589
 C31     -C30     -C27     -H60     :  54.217656
 C31     -C32     -C33     -C34     :  55.413848
 C31     -C32     -C33     -H67     : -65.677574
 C31     -C32     -C33     -H68     : 177.318838
 C32     -C31     -C30     -H61     : -62.405908
 C32     -C31     -C30     -H62     :-179.357826
 C32     -C33     -C34     -H69     :-179.381508
 C32     -C33     -C34     -H70     :  64.680474
 C33     -C32     -C31     -H63     :  65.264405
 C33     -C32     -C31     -H64     :-177.441842
 C33     -C34     -C27     -H60     : -53.740132
 C34     -C27     -C30     -H61     :  62.149969
 C34     -C27     -C30     -H62     :-178.634030
 C34     -C33     -C32     -H65     : -65.260185
 C34     -C33     -C32     -H66     : 177.150954
 C35     -C28     -C39     -C38     : -58.497245
 C35     -C28     -C39     -H80     :  62.142682
 C35     -C28     -C39     -H81     :-179.779661
 C35     -C36     -C37     -C38     :  55.349695
 C35     -C36     -C37     -H76     : 177.174843
 C35     -C36     -C37     -H77     : -65.242998
 C36     -C35     -C28     -C39     :  58.348698
 C36     -C35     -C28     -H71     : -56.620220
 C36     -C37     -C38     -C39     : -55.661573
 C36     -C37     -C38     -H78     :-177.317776
 C36     -C37     -C38     -H79     :  65.416849
 C37     -C36     -C35     -H72     : 178.720059
 C37     -C36     -C35     -H73     :  63.327616
 C37     -C38     -C39     -H80     : -63.083311
 C37     -C38     -C39     -H81     :-178.291834
 C38     -C37     -C36     -H74     : 177.053943
 C38     -C37     -C36     -H75     : -65.579163
 C38     -C39     -C28     -H71     :  57.664056
 C39     -C28     -C35     -H72     :-179.936192
 C39     -C28     -C35     -H73     : -63.033416
 C39     -C38     -C37     -H76     :-177.476826
 C39     -C38     -C37     -H77     :  64.918228
 C40     -C29     -C44     -C43     :  -0.871968
 C40     -C29     -C44     -C45     :-178.928100
 C40     -C41     -C42     -C43     :  -0.115384
 C40     -C41     -C42     -H84     : 179.295595
 C41     -C40     -C29     -C44     :   0.850394
 C41     -C42     -C43     -C44     :   0.015970
 C41     -C42     -C43     -H85     : 176.608522
 C42     -C41     -C40     -H82     : 178.574828
 C42     -C43     -C44     -C45     : 178.890526
 C43     -C42     -C41     -H83     : 179.688440
 C43     -C44     -C45     -C46     :  44.565019
 C43     -C44     -C45     -C50     :-134.551681
 C44     -C29     -C40     -H82     :-177.989384
 C44     -C43     -C42     -H84     :-179.390956
 C44     -C45     -C46     -C47     : 179.481969
 C44     -C45     -C46     -C53     :   5.321845
 C44     -C45     -C50     -C49     :-179.160890
 C44     -C45     -C50     -C51     :   8.161320
 C45     -C44     -C43     -H85     :   2.512850
 C45     -C46     -C47     -C48     :  -0.039720
 C45     -C46     -C47     -H86     :-178.944142
 C45     -C46     -C53     -C54     : 118.541309
 C45     -C46     -C53     -C57     :-118.431226
 C45     -C46     -C53     -H92     :   5.205769
 C45     -C50     -C49     -C48     :  -0.703109
 C45     -C50     -C49     -H87     :-179.186516
 C45     -C50     -C51     -C52     :  64.015094
 C45     -C50     -C51     -C56     :-171.562749
 C45     -C50     -C51     -H88     : -53.629150
 C46     -C45     -C50     -C49     :   1.698894
 C46     -C45     -C50     -C51     :-170.978896
 C46     -C47     -C48     -C49     :   1.063186
 C46     -C47     -C48     -C55     :-179.309854
 C46     -C53     -C54     -H93     :  66.147975
 C46     -C53     -C54     -H94     :-174.326432
 C46     -C53     -C54     -H95     : -55.256123
 C46     -C53     -C57     -H100    : -67.563930
 C46     -C53     -C57     -H101    : 172.850607
 C46     -C53     -C57     -H102    :  52.496295
 C47     -C46     -C45     -C50     :  -1.346332
 C47     -C46     -C53     -C54     : -55.946705
 C47     -C46     -C53     -C57     :  67.080760
 C47     -C46     -C53     -H92     :-169.282245
 C47     -C48     -C49     -C50     :  -0.691187
 C47     -C48     -C49     -H87     : 177.869064
 C47     -C48     -C55     -C58     :  65.047922
 C47     -C48     -C55     -C59     : -59.419190
 C47     -C48     -C55     -H96     :-177.401025
 C48     -C47     -C46     -C53     : 174.852705
 C48     -C49     -C50     -C51     : 172.461322
 C48     -C55     -C58     -H103    : -63.734219
 C48     -C55     -C58     -H104    : 176.190600
 C48     -C55     -C58     -H105    :  56.524026
 C48     -C55     -C59     -H106    :  64.402819
 C48     -C55     -C59     -H107    : -56.124379
 C48     -C55     -C59     -H108    :-175.678488
 C49     -C48     -C47     -H86     :-179.998031
 C49     -C48     -C55     -C58     :-115.347039
 C49     -C48     -C55     -C59     : 120.185849
 C49     -C48     -C55     -H96     :   2.204013
 C49     -C50     -C51     -C52     :-108.939006
 C49     -C50     -C51     -C56     :  15.483150
 C49     -C50     -C51     -H88     : 133.416749
 C50     -C45     -C46     -C53     :-175.506457
 C50     -C49     -C48     -C55     : 179.681006
 C50     -C51     -C52     -H89     :  62.443561
 C50     -C51     -C52     -H90     : -57.696446
 C50     -C51     -C52     -H91     :-177.540986
 C50     -C51     -C56     -H97     : -70.360721
 C50     -C51     -C56     -H98     : 171.133573
 C50     -C51     -C56     -H99     :  52.035152
 C51     -C50     -C49     -H87     :  -6.022085
 C52     -C51     -C56     -H97     :  54.923868
 C52     -C51     -C56     -H98     : -63.581837
 C52     -C51     -C56     -H99     : 177.319741
 C53     -C46     -C47     -H86     :  -4.051717
 C54     -C53     -C57     -H100    :  57.637632
 C54     -C53     -C57     -H101    : -61.947831
 C54     -C53     -C57     -H102    : 177.697857
 C55     -C48     -C47     -H86     :  -0.371070
 C55     -C48     -C49     -H87     :  -1.758744
 C56     -C51     -C52     -H89     : -67.381240
 C56     -C51     -C52     -H90     : 172.478754
 C56     -C51     -C52     -H91     :  52.634213
 C57     -C53     -C54     -H93     : -58.938616
 C57     -C53     -C54     -H94     :  60.586977
 C57     -C53     -C54     -H95     : 179.657286
 C58     -C55     -C59     -H106    : -59.508997
 C58     -C55     -C59     -H107    : 179.963805
 C58     -C55     -C59     -H108    :  60.409695
 C59     -C55     -C58     -H103    :  60.768224
 C59     -C55     -C58     -H104    : -59.306957
 C59     -C55     -C58     -H105    :-178.973532
 H60     -C27     -C30     -H61     : 174.215214
 H60     -C27     -C30     -H62     : -66.568786
 H60     -C27     -C34     -H69     :  66.519570
 H60     -C27     -C34     -H70     :-175.202817
 H61     -C30     -C31     -H63     : 176.337991
 H61     -C30     -C31     -H64     :  58.953153
 H62     -C30     -C31     -H63     :  59.386074
 H62     -C30     -C31     -H64     : -57.998765
 H63     -C31     -C32     -H65     :-174.118713
 H63     -C31     -C32     -H66     : -56.493760
 H64     -C31     -C32     -H65     : -56.824960
 H64     -C31     -C32     -H66     :  60.799993
 H65     -C32     -C33     -H67     : 173.648392
 H65     -C32     -C33     -H68     :  56.644805
 H66     -C32     -C33     -H67     :  56.059532
 H66     -C32     -C33     -H68     : -60.944056
 H67     -C33     -C34     -H69     : -58.319514
 H67     -C33     -C34     -H70     :-174.257532
 H68     -C33     -C34     -H69     :  58.840909
 H68     -C33     -C34     -H70     : -57.097108
 H71     -C28     -C35     -H72     :  65.094890
 H71     -C28     -C35     -H73     :-178.002334
 H71     -C28     -C39     -H80     : 178.303983
 H71     -C28     -C39     -H81     : -63.618359
 H72     -C35     -C36     -H74     :  57.143503
 H72     -C35     -C36     -H75     : -60.224995
 H73     -C35     -C36     -H74     : -58.248939
 H73     -C35     -C36     -H75     :-175.617437
 H74     -C36     -C37     -H76     : -61.120909
 H74     -C36     -C37     -H77     :  56.461249
 H75     -C36     -C37     -H76     :  56.245985
 H75     -C36     -C37     -H77     : 173.828144
 H76     -C37     -C38     -H78     :  60.866972
 H76     -C37     -C38     -H79     : -56.398403
 H77     -C37     -C38     -H78     : -56.737974
 H77     -C37     -C38     -H79     :-174.003349
 H78     -C38     -C39     -H80     :  58.391252
 H78     -C38     -C39     -H81     : -56.817271
 H79     -C38     -C39     -H80     : 175.783159
 H79     -C38     -C39     -H81     :  60.574636
 H82     -C40     -C41     -H83     :  -1.228082
 H83     -C41     -C42     -H84     :  -0.900581
 H84     -C42     -C43     -H85     :  -2.798404
 H88     -C51     -C52     -H89     : 179.342506
 H88     -C51     -C52     -H90     :  59.202500
 H88     -C51     -C52     -H91     : -60.642041
 H88     -C51     -C56     -H97     : 170.495332
 H88     -C51     -C56     -H98     :  51.989627
 H88     -C51     -C56     -H99     : -67.108794
 H92     -C53     -C54     -H93     :-174.369046
 H92     -C53     -C54     -H94     : -54.843453
 H92     -C53     -C54     -H95     :  64.226856
 H92     -C53     -C57     -H100    : 167.645815
 H92     -C53     -C57     -H101    :  48.060352
 H92     -C53     -C57     -H102    : -72.293960
 H96     -C55     -C58     -H103    : 177.589756
 H96     -C55     -C58     -H104    :  57.514575
 H96     -C55     -C58     -H105    : -62.152000
 H96     -C55     -C59     -H106    :-176.424530
 H96     -C55     -C59     -H107    :  63.048272
 H96     -C55     -C59     -H108    : -56.505837
 
  nuclear repulsion energy.......          7598.734415941 hartrees
  
  Detected an organometallic with only one TM atom. 
  
  Oxidation state on metal       2 is     2
  Formal multiplet on metal      2 is     1
  Formal charge on ligand        3 is    -1
  Formal multiplet on ligand     3 is     1
  Formal charge on ligand        4 is    -1
  Formal multiplet on ligand     4 is     1
  
 
  Will use High-Quality Initial guess for organometallics
       including d-d repulsion (iguess=30)
 
 Non-default options chosen:
   SCF calculation type: DFT(b3pw91-d3)              
   DFT=Becke_3_Parameter/HF+Slater+Becke88+PW91+PW-GGAIIC (B3PW91-D3)
   Geometry will be optimized in redundant internal coordinates
   Solvation energy will be computed using PBF
     -solute cavity energy will not be included
     -surface area terms will not be included
   Vibrational frequencies and related properties will be computed
      from analytic second derivatives
   IR intensities will be computed
   Thermochemical properties will be computed
   Maximum number of geometry steps: 100
   Scaling standard convergence criteria by a factor of   5.00
   Solvent: benzene                                                         
   Internal dielectric constant:    1.000
   Continuum dielectric constant:   2.283
   Solvent probe molecule radius:   2.600
  
 Non-default print settings:
     11=  2
  
 Temporary integer options set:
     21= -1  73=  2
  
  atom       vdw   vdw2    cov     mass  grid  daf  charge   basis
  P1        2.147  2.074  1.060   30.974    Y    Y      Y    ps_6-31g*
  Pd2       1.450  1.450  1.280  105.903    Y    Y      Y    lacv3p*
  N3        1.831  1.600  0.750   14.003    Y    Y      Y    ps_6-31g*
  C4        1.949  1.900  0.770   12.000    Y    Y      Y    ps_6-31g*
  C5        1.949  1.900  0.770   12.000    Y    Y      Y    ps_6-31g*
  C6        1.949  1.900  0.770   12.000    Y    Y      Y    ps_6-31g*
  C7        1.949  1.900  0.770   12.000    Y    Y      Y    ps_6-31g*
  C8        1.949  1.900  0.770   12.000    Y    Y      Y    ps_6-31g*
  C9        1.949  1.900  0.770   12.000    Y    Y      Y    ps_6-31g*
  F10       1.736  1.682  0.720   18.998    Y    Y      Y    ps_6-31g*
  H11       1.597  1.150  0.320    1.008    Y    Y      Y    ps_6-31g*
  H12       1.597  1.150  0.320    1.008    Y    Y      Y    ps_6-31g*
  H13       1.597  1.150  0.320    1.008    Y    Y      Y    ps_6-31g*
  H14       1.597  1.150  0.320    1.008    Y    Y      Y    ps_6-31g*
  H15       1.597  1.150  0.320    1.008    Y    Y      Y    ps_6-31g*
  C16       1.949  1.900  0.770   12.000    Y    Y      Y    ps_6-31g*
  C17       1.949  1.900  0.770   12.000    Y    Y      Y    ps_6-31g*
  C18       1.949  1.900  0.770   12.000    Y    Y      Y    ps_6-31g*
  C19       1.949  1.900  0.770   12.000    Y    Y      Y    ps_6-31g*
  C20       1.949  1.900  0.770   12.000    Y    Y      Y    ps_6-31g*
  C21       1.949  1.900  0.770   12.000    Y    Y      Y    ps_6-31g*
  H22       1.597  1.150  0.320    1.008    Y    Y      Y    ps_6-31g*
  H23       1.597  1.150  0.320    1.008    Y    Y      Y    ps_6-31g*
  H24       1.597  1.150  0.320    1.008    Y    Y      Y    ps_6-31g*
  H25       1.597  1.150  0.320    1.008    Y    Y      Y    ps_6-31g*
  H26       1.597  1.150  0.320    1.008    Y    Y      Y    ps_6-31g*
  C27       1.949  1.900  0.770   12.000    Y    Y      Y    ps_6-31g*
  C28       1.949  1.900  0.770   12.000    Y    Y      Y    ps_6-31g*
  C29       1.949  1.900  0.770   12.000    Y    Y      Y    ps_6-31g*
  C30       1.949  1.900  0.770   12.000    Y    Y      Y    ps_6-31g*
  C31       1.949  1.900  0.770   12.000    Y    Y      Y    ps_6-31g*
  C32       1.949  1.900  0.770   12.000    Y    Y      Y    ps_6-31g*
  C33       1.949  1.900  0.770   12.000    Y    Y      Y    ps_6-31g*
  C34       1.949  1.900  0.770   12.000    Y    Y      Y    ps_6-31g*
  C35       1.949  1.900  0.770   12.000    Y    Y      Y    ps_6-31g*
  C36       1.949  1.900  0.770   12.000    Y    Y      Y    ps_6-31g*
  C37       1.949  1.900  0.770   12.000    Y    Y      Y    ps_6-31g*
  C38       1.949  1.900  0.770   12.000    Y    Y      Y    ps_6-31g*
  C39       1.949  1.900  0.770   12.000    Y    Y      Y    ps_6-31g*
  C40       1.949  1.900  0.770   12.000    Y    Y      Y    ps_6-31g*
  C41       1.949  1.900  0.770   12.000    Y    Y      Y    ps_6-31g*
  C42       1.949  1.900  0.770   12.000    Y    Y      Y    ps_6-31g*
  C43       1.949  1.900  0.770   12.000    Y    Y      Y    ps_6-31g*
  C44       1.949  1.900  0.770   12.000    Y    Y      Y    ps_6-31g*
  C45       1.949  1.900  0.770   12.000    Y    Y      Y    ps_6-31g*
  C46       1.949  1.900  0.770   12.000    Y    Y      Y    ps_6-31g*
  C47       1.949  1.900  0.770   12.000    Y    Y      Y    ps_6-31g*
  C48       1.949  1.900  0.770   12.000    Y    Y      Y    ps_6-31g*
  C49       1.949  1.900  0.770   12.000    Y    Y      Y    ps_6-31g*
  C50       1.949  1.900  0.770   12.000    Y    Y      Y    ps_6-31g*
  C51       1.949  1.900  0.770   12.000    Y    Y      Y    ps_6-31g*
  C52       1.949  1.900  0.770   12.000    Y    Y      Y    ps_6-31g*
  C53       1.949  1.900  0.770   12.000    Y    Y      Y    ps_6-31g*
  C54       1.949  1.900  0.770   12.000    Y    Y      Y    ps_6-31g*
  C55       1.949  1.900  0.770   12.000    Y    Y      Y    ps_6-31g*
  C56       1.949  1.900  0.770   12.000    Y    Y      Y    ps_6-31g*
  C57       1.949  1.900  0.770   12.000    Y    Y      Y    ps_6-31g*
  C58       1.949  1.900  0.770   12.000    Y    Y      Y    ps_6-31g*
  C59       1.949  1.900  0.770   12.000    Y    Y      Y    ps_6-31g*
  H60       1.597  1.150  0.320    1.008    Y    Y      Y    ps_6-31g*
  H61       1.597  1.150  0.320    1.008    Y    Y      Y    ps_6-31g*
  H62       1.597  1.150  0.320    1.008    Y    Y      Y    ps_6-31g*
  H63       1.597  1.150  0.320    1.008    Y    Y      Y    ps_6-31g*
  H64       1.597  1.150  0.320    1.008    Y    Y      Y    ps_6-31g*
  H65       1.597  1.150  0.320    1.008    Y    Y      Y    ps_6-31g*
  H66       1.597  1.150  0.320    1.008    Y    Y      Y    ps_6-31g*
  H67       1.597  1.150  0.320    1.008    Y    Y      Y    ps_6-31g*
  H68       1.597  1.150  0.320    1.008    Y    Y      Y    ps_6-31g*
  H69       1.597  1.150  0.320    1.008    Y    Y      Y    ps_6-31g*
  H70       1.597  1.150  0.320    1.008    Y    Y      Y    ps_6-31g*
  H71       1.597  1.150  0.320    1.008    Y    Y      Y    ps_6-31g*
  H72       1.597  1.150  0.320    1.008    Y    Y      Y    ps_6-31g*
  H73       1.597  1.150  0.320    1.008    Y    Y      Y    ps_6-31g*
  H74       1.597  1.150  0.320    1.008    Y    Y      Y    ps_6-31g*
  H75       1.597  1.150  0.320    1.008    Y    Y      Y    ps_6-31g*
  H76       1.597  1.150  0.320    1.008    Y    Y      Y    ps_6-31g*
  H77       1.597  1.150  0.320    1.008    Y    Y      Y    ps_6-31g*
  H78       1.597  1.150  0.320    1.008    Y    Y      Y    ps_6-31g*
  H79       1.597  1.150  0.320    1.008    Y    Y      Y    ps_6-31g*
  H80       1.597  1.150  0.320    1.008    Y    Y      Y    ps_6-31g*
  H81       1.597  1.150  0.320    1.008    Y    Y      Y    ps_6-31g*
  H82       1.597  1.150  0.320    1.008    Y    Y      Y    ps_6-31g*
  H83       1.597  1.150  0.320    1.008    Y    Y      Y    ps_6-31g*
  H84       1.597  1.150  0.320    1.008    Y    Y      Y    ps_6-31g*
  H85       1.597  1.150  0.320    1.008    Y    Y      Y    ps_6-31g*
  H86       1.597  1.150  0.320    1.008    Y    Y      Y    ps_6-31g*
  H87       1.597  1.150  0.320    1.008    Y    Y      Y    ps_6-31g*
  H88       1.597  1.150  0.320    1.008    Y    Y      Y    ps_6-31g*
  H89       1.597  1.150  0.320    1.008    Y    Y      Y    ps_6-31g*
  H90       1.597  1.150  0.320    1.008    Y    Y      Y    ps_6-31g*
  H91       1.597  1.150  0.320    1.008    Y    Y      Y    ps_6-31g*
  H92       1.597  1.150  0.320    1.008    Y    Y      Y    ps_6-31g*
  H93       1.597  1.150  0.320    1.008    Y    Y      Y    ps_6-31g*
  H94       1.597  1.150  0.320    1.008    Y    Y      Y    ps_6-31g*
  H95       1.597  1.150  0.320    1.008    Y    Y      Y    ps_6-31g*
  H96       1.597  1.150  0.320    1.008    Y    Y      Y    ps_6-31g*
  H97       1.597  1.150  0.320    1.008    Y    Y      Y    ps_6-31g*
  H98       1.597  1.150  0.320    1.008    Y    Y      Y    ps_6-31g*
  H99       1.597  1.150  0.320    1.008    Y    Y      Y    ps_6-31g*
  H100      1.597  1.150  0.320    1.008    Y    Y      Y    ps_6-31g*
  H101      1.597  1.150  0.320    1.008    Y    Y      Y    ps_6-31g*
  H102      1.597  1.150  0.320    1.008    Y    Y      Y    ps_6-31g*
  H103      1.597  1.150  0.320    1.008    Y    Y      Y    ps_6-31g*
  H104      1.597  1.150  0.320    1.008    Y    Y      Y    ps_6-31g*
  H105      1.597  1.150  0.320    1.008    Y    Y      Y    ps_6-31g*
  H106      1.597  1.150  0.320    1.008    Y    Y      Y    ps_6-31g*
  H107      1.597  1.150  0.320    1.008    Y    Y      Y    ps_6-31g*
  H108      1.597  1.150  0.320    1.008    Y    Y      Y    ps_6-31g*
 
  atom      formal  2spin      esp    mulk    frag
  P1           0       0        Y    0.000       0
  Pd2          2       0        Y    0.000       0
  N3          -1       0        Y    0.000       0
  C4          -1       0        Y    0.000       0
  
  end of program pre
   
 Time(pre)  user:       1.009  user+sys:       1.009  wallclock:       1.097
  
  start of program onee
  
  smallest eigenvalue of S:    2.965E-04
  number of canonical orbitals.....          822
  end of program onee
   
 Time(onee)  user:       8.207  user+sys:       8.207  wallclock:       5.813
  
  start of program hfig
  
  initial wavefunction generated automatically from atomic wavefunctions
  Only one state below 0.010000
  Skip d-d repulsion considerations 
 
  Irreducible     Total no   No of occupied orbitals 
  representation  orbitals   Shell_1  Shell_2    ...
  No Symm          822        189
  ------------------------
  Orbital occupation/shell    1.000
 
  end of program hfig
   
 Time(hfig)  user:       1.697  user+sys:       1.697  wallclock:       1.745
  
  start of program probe
  
  end of program probe
   
 Time(probe)  user:       0.955  user+sys:       0.955  wallclock:       0.851
  
  start of program grid
  
   grid     grid set  grid #  grid sym
  ------    --------  ------  --------
  coarse        0        0        1
  medium        2        1        1
  fine          0        0        1
  ultrafine     4        2        1
  charge       -1        3        1
  gradient      4        2        1
  density       0        0        1
  DFT-fine    -11        4        1
  DFT-med.    -10        5        1
  DFT-grad    -12        6        1
  DFT-der2     -8        7        1
  DFT-cphf     -9        8        1
  LMP2-enrg     4        2        1
  LMP2-grad     2        1        1
  DFT-cphf2   -15        9        1
  PBF-dens      0        0        1
  plotting      0        0        1
  Rel-grad    -17        0        1
  
  number of gridpoints: 
     atom           P1         Pd2          N3          C4          C5          C6          C7
  grid # 1         612         360         105          80          93          95         101
  grid # 2         423         315         387         327         324         324         396
  grid # 3           8         261          10          38          22          18          27
  grid # 4        8714        8714        8714        8714        8714        8714        8714
  grid # 5        1192        1192        1192        1192        1192        1192        1192
  grid # 6        9132        9132        5922        5922        5922        5922        5922
  grid # 7       23034       32968       13958       13950       13950       13950       13950
  grid # 8         722        1150         756         748         748         748         748
  grid # 9         366        2198         406         394         394         394         394
   
  number of gridpoints: 
     atom           C8          C9         F10         H11         H12         H13         H14
  grid # 1          96          94         584         112         103         115         115
  grid # 2         326         325         564         450         419         454         465
  grid # 3          30          35         352         258          55         245         387
  grid # 4        8714        8714        8714        8714        8714        8714        8714
  grid # 5        1192        1192        1192        1192        1192        1192        1192
  grid # 6        5922        5922        5922        5922        5922        5922        5922
  grid # 7       13950       13950       23190       15206       15206       15206       15206
  grid # 8         748         748         770         786         786         786         786
  grid # 9         394         394         420         420         420         420         420
   
  number of gridpoints: 
     atom          H15         C16         C17         C18         C19         C20         C21
  grid # 1          94          96          96          95          99          96          96
  grid # 2         394         323         322         321         353         321         323
  grid # 3          39          38          36          26          27          31          34
  grid # 4        8714        8714        8714        8714        8714        8714        8714
  grid # 5        1192        1192        1192        1192        1192        1192        1192
  grid # 6        5922        5922        5922        5922        5922        5922        5922
  grid # 7       15206       13950       13950       13950       13950       13950       13950
  grid # 8         786         748         748         748         748         748         748
  grid # 9         420         394         394         394         394         394         394
   
  number of gridpoints: 
     atom          H22         H23         H24         H25         H26         C27         C28
  grid # 1         117         117         110         107         117          79          80
  grid # 2         466         466         444         432         465         334         331
  grid # 3         405         408         176         161         380           6           6
  grid # 4        8714        8714        8714        8714        8714        8714        8714
  grid # 5        1192        1192        1192        1192        1192        1192        1192
  grid # 6        5922        5922        5922        5922        5922        5922        5922
  grid # 7       15206       15206       15206       15206       15206       13950       13950
  grid # 8         786         786         786         786         786         748         748
  grid # 9         420         420         420         420         420         394         394
   
  number of gridpoints: 
     atom          C29         C30         C31         C32         C33         C34         C35
  grid # 1          91          92          92          92          92          92          90
  grid # 2         384         276         280         278         283         276         278
  grid # 3           9           6           6           6           6           6           6
  grid # 4        8714        8714        8714        8714        8714        8714        8714
  grid # 5        1192        1192        1192        1192        1192        1192        1192
  grid # 6        5922        5922        5922        5922        5922        5922        5922
  grid # 7       13950       13950       13950       13950       13950       13950       13950
  grid # 8         748         748         748         748         748         748         748
  grid # 9         394         394         394         394         394         394         394
   
  number of gridpoints: 
     atom          C36         C37         C38         C39         C40         C41         C42
  grid # 1          92          92          92          92          91          95          95
  grid # 2         283         278         283         277         319         323         323
  grid # 3           6           6           6           6           9          24          28
  grid # 4        8714        8714        8714        8714        8714        8714        8714
  grid # 5        1192        1192        1192        1192        1192        1192        1192
  grid # 6        5922        5922        5922        5922        5922        5922        5922
  grid # 7       13950       13950       13950       13950       13950       13950       13950
  grid # 8         748         748         748         748         748         748         748
  grid # 9         394         394         394         394         394         394         394
   
  number of gridpoints: 
     atom          C43         C44         C45         C46         C47         C48         C49
  grid # 1          93          98          97          98          93         100          93
  grid # 2         320         356         361         363         329         361         323
  grid # 3          11          12          13          17          29          15          18
  grid # 4        8714        8714        8714        8714        8714        8714        8714
  grid # 5        1192        1192        1192        1192        1192        1192        1192
  grid # 6        5922        5922        5922        5922        5922        5922        5922
  grid # 7       13950       13950       13950       13950       13950       13950       13950
  grid # 8         748         748         748         748         748         748         748
  grid # 9         394         394         394         394         394         394         394
   
  number of gridpoints: 
     atom          C50         C51         C52         C53         C54         C55         C56
  grid # 1          98          89          81          91          80          90          81
  grid # 2         362         303         244         310         245         305         243
  grid # 3          10           6           6           6           6           6           6
  grid # 4        8714        8714        8714        8714        8714        8714        8714
  grid # 5        1192        1192        1192        1192        1192        1192        1192
  grid # 6        5922        5922        5922        5922        5922        5922        5922
  grid # 7       13950       13950       13950       13950       13950       13950       13950
  grid # 8         748         748         748         748         748         748         748
  grid # 9         394         394         394         394         394         394         394
   
  number of gridpoints: 
     atom          C57         C58         C59         H60         H61         H62         H63
  grid # 1          80          83          81          96         106         104         107
  grid # 2         246         242         247         411         430         430         444
  grid # 3           6           6           6          34         141         100         198
  grid # 4        8714        8714        8714        8714        8714        8714        8714
  grid # 5        1192        1192        1192        1192        1192        1192        1192
  grid # 6        5922        5922        5922        5922        5922        5922        5922
  grid # 7       13950       13950       13950       15206       15206       15206       15206
  grid # 8         748         748         748         786         786         786         786
  grid # 9         394         394         394         420         420         420         420
   
  number of gridpoints: 
     atom          H64         H65         H66         H67         H68         H69         H70
  grid # 1         112         110         112         110         112         100         106
  grid # 2         459         454         458         448         457         422         433
  grid # 3         329         268         332         237         323          77         142
  grid # 4        8714        8714        8714        8714        8714        8714        8714
  grid # 5        1192        1192        1192        1192        1192        1192        1192
  grid # 6        5922        5922        5922        5922        5922        5922        5922
  grid # 7       15206       15206       15206       15206       15206       15206       15206
  grid # 8         786         786         786         786         786         786         786
  grid # 9         420         420         420         420         420         420         420
   
  number of gridpoints: 
     atom          H71         H72         H73         H74         H75         H76         H77
  grid # 1          99         101         103         112         110         112         110
  grid # 2         422         424         433         457         454         458         456
  grid # 3          74          77         111         324         255         332         265
  grid # 4        8714        8714        8714        8714        8714        8714        8714
  grid # 5        1192        1192        1192        1192        1192        1192        1192
  grid # 6        5922        5922        5922        5922        5922        5922        5922
  grid # 7       15206       15206       15206       15206       15206       15206       15206
  grid # 8         786         786         786         786         786         786         786
  grid # 9         420         420         420         420         420         420         420
   
  number of gridpoints: 
     atom          H78         H79         H80         H81         H82         H83         H84
  grid # 1         112         110         109         108         103         118         118
  grid # 2         458         452         440         436         425         467         466
  grid # 3         327         264         167         155         100         406         409
  grid # 4        8714        8714        8714        8714        8714        8714        8714
  grid # 5        1192        1192        1192        1192        1192        1192        1192
  grid # 6        5922        5922        5922        5922        5922        5922        5922
  grid # 7       15206       15206       15206       15206       15206       15206       15206
  grid # 8         786         786         786         786         786         786         786
  grid # 9         420         420         420         420         420         420         420
   
  number of gridpoints: 
     atom          H85         H86         H87         H88         H89         H90         H91
  grid # 1         107         105         102          90         110         105         106
  grid # 2         425         419         423         405         455         438         438
  grid # 3         138          66          99           7         309         164         191
  grid # 4        8714        8714        8714        8714        8714        8714        8714
  grid # 5        1192        1192        1192        1192        1192        1192        1192
  grid # 6        5922        5922        5922        5922        5922        5922        5922
  grid # 7       15206       15206       15206       15206       15206       15206       15206
  grid # 8         786         786         786         786         786         786         786
  grid # 9         420         420         420         420         420         420         420
   
  number of gridpoints: 
     atom          H92         H93         H94         H95         H96         H97         H98
  grid # 1         105         104         108         109         109         107         101
  grid # 2         431         442         452         455         439         441         428
  grid # 3         144         225         315         282         191         258         195
  grid # 4        8714        8714        8714        8714        8714        8714        8714
  grid # 5        1192        1192        1192        1192        1192        1192        1192
  grid # 6        5922        5922        5922        5922        5922        5922        5922
  grid # 7       15206       15206       15206       15206       15206       15206       15206
  grid # 8         786         786         786         786         786         786         786
  grid # 9         420         420         420         420         420         420         420
   
  number of gridpoints: 
     atom          H99        H100        H101        H102        H103        H104        H105
  grid # 1          95         105         110         107         107         110         105
  grid # 2         399         444         454         443         447         454         435
  grid # 3          32         240         313         264         240         308         157
  grid # 4        8714        8714        8714        8714        8714        8714        8714
  grid # 5        1192        1192        1192        1192        1192        1192        1192
  grid # 6        5922        5922        5922        5922        5922        5922        5922
  grid # 7       15206       15206       15206       15206       15206       15206       15206
  grid # 8         786         786         786         786         786         786         786
  grid # 9         420         420         420         420         420         420         420
   
  number of gridpoints: 
     atom         H106        H107        H108       total
  grid # 1         106         111         110       12114
  grid # 2         447         460         456       41719
  grid # 3         243         345         324       14325
  grid # 4        8714        8714        8714      941112
  grid # 5        1192        1192        1192      128736
  grid # 6        5922        5922        5922      645996
  grid # 7       15206       15206       15206     1618054
  grid # 8         786         786         786       83432
  grid # 9         420         420         420       45900
   
  end of program grid
   
 Time(grid)  user:     928.244  user+sys:     928.244  wallclock:     469.125
  
  start of program rwr
  
  end of program rwr
   
 Time(rwr)  user:      31.118  user+sys:      31.118  wallclock:      39.670
  
  start of program scf
  
 number of electrons..........        378
 number of alpha electrons....        189
 number of beta electrons.....        189
 number of orbitals, total....        822
 number of doubly-occ'd orbs..        189
 number of open shell orbs....          0
 number of occupied orbitals..        189
 number of virtual orbitals...        633
 number of hamiltonians.......          1
 number of shells.............          1
 SCF type: DFT=Becke_3_Parameter/HF+Slater+Becke88+PW91+PW-GGAIIC (B3PW91-D3)
 Energy computed using pseudospectral method.
 Convergence Criterion:
    Energy (econv):       1.00E-05
    RMS density (dconv):  5.00E-06
  
       i  u  d  i  g                   
       t  p  i  c  r                                 RMS    maximum
       e  d  i  u  i                       energy  density   DIIS  
       r  t  s  t  d       total energy    change  change    error 
  
etot    1  N  N  5  M   -2366.38083817446           1.7E-03  1.4E-01
etot    2  Y  Y  6  M   -2370.56436224749  4.2E+00  2.9E-03  8.5E-02
etot    3  Y  Y  6  M   -2371.81518730186  1.3E+00  9.0E-04  6.2E-02
etot    4  N  Y  2  U   -2372.13562507619  3.2E-01  1.3E-03  4.0E-02
etot    5  Y  Y  6  M   -2372.20227842131  6.7E-02  8.1E-04  2.3E-02
etot    6  N  Y  2  U   -2372.20789731581  5.6E-03  4.5E-04  8.4E-03
etot    7  Y  Y  6  M   -2372.21987786732  1.2E-02  6.8E-05  4.7E-03
etot    8  N  Y  2  U   -2372.22259049287  2.7E-03  2.7E-05  6.8E-04
etot    9  N  Y  2  U   -2372.22278478773  1.9E-04  1.2E-05  3.9E-04
etot   10  N  Y  2  U   -2372.22279349296  8.7E-06  4.9E-06  1.0E-04
etot   11  N  N  2  U   -2372.22279611520  2.6E-06  0.0E+00  0.0E+00
 
  Computing the dispersion energy correction and its gradients...
  
  
 Energy components, in hartrees:
   (A)  Nuclear repulsion............    7598.73441594087
   (E)  Total one-electron terms.....  -18422.60269099664
   (F)    Electron-nuclear...........  -20699.54650285086
   (H)    Kinetic....................    2276.94381185421
   (I)  Total two-electron terms.....    8451.64547894058
   (J)    Coulomb....................    8770.57371948295
   (K)    Exchange+Correlation.......    -318.92824054237
   (L)  Electronic energy............   -9970.95721205606  (E+I)
   (N0) D3 correction................      -0.19512579279
   (N)  Total energy.................   -2372.41792190799  (A+L+N0)
   (O)  Gas phase energy.............   -2372.41792190799
  
 SCFE: SCF energy: DFT(b3pw91-d3)     -2372.41792190799 hartrees   iterations:  11
  
 
 HOMO energy:    -0.17408
 LUMO energy:    -0.07038
 
  Orbital energies (hartrees): 
   -77.06957   -24.67121   -14.29461   -10.22870   -10.20420   -10.20277
   -10.19250   -10.18985   -10.18844   -10.18797   -10.18761   -10.18711
   -10.18584   -10.18545   -10.18395   -10.18260   -10.18156   -10.17999
   -10.17959   -10.17551   -10.17397   -10.17235   -10.17124   -10.17118
   -10.17042   -10.16960   -10.16909   -10.16733   -10.16719   -10.16709
   -10.16598   -10.16586   -10.16542   -10.16511   -10.16030   -10.15987
   -10.15969   -10.15704   -10.15501   -10.15363   -10.15318   -10.15077
   -10.15027   -10.14923   -10.14898   -10.14687   -10.14530   -10.13879
    -6.57035    -4.72863    -4.72795    -4.72452    -3.32118    -2.05493
    -2.05070    -2.02070    -1.20772    -0.88489    -0.86058    -0.85515
    -0.84425    -0.83733    -0.82711    -0.82018    -0.81712    -0.79826
    -0.78520    -0.77608    -0.77111    -0.75192    -0.74569    -0.74355
    -0.74203    -0.72492    -0.72331    -0.72186    -0.71862    -0.71080
    -0.69521    -0.68349    -0.68256    -0.67883    -0.66057    -0.63691
    -0.63436    -0.61330    -0.60960    -0.60723    -0.60491    -0.59943
    -0.59387    -0.59011    -0.58379    -0.57704    -0.56748    -0.56426
    -0.55994    -0.55444    -0.54678    -0.53893    -0.52149    -0.51848
    -0.49830    -0.49067    -0.48896    -0.48008    -0.47590    -0.46830
    -0.46266    -0.45978    -0.45717    -0.45106    -0.45066    -0.44821
    -0.44295    -0.44239    -0.44081    -0.43986    -0.43688    -0.43661
    -0.43404    -0.43246    -0.42917    -0.42780    -0.42490    -0.42149
    -0.41769    -0.41309    -0.40894    -0.40719    -0.40570    -0.39860
    -0.39821    -0.39683    -0.39483    -0.39313    -0.38505    -0.38424
    -0.38104    -0.38063    -0.37883    -0.37775    -0.37657    -0.37296
    -0.37078    -0.36977    -0.36705    -0.36393    -0.36114    -0.35840
    -0.35514    -0.35082    -0.34750    -0.34621    -0.34574    -0.34158
    -0.34052    -0.33835    -0.33801    -0.33395    -0.33029    -0.32826
    -0.32669    -0.32647    -0.32452    -0.32272    -0.31779    -0.31690
    -0.31470    -0.30923    -0.30783    -0.30672    -0.29940    -0.29827
    -0.29314    -0.28303    -0.27550    -0.25964    -0.25027    -0.24451
    -0.23756    -0.23308    -0.23117    -0.22886    -0.22762    -0.22359
    -0.20252    -0.19635    -0.17408    -0.07038    -0.04842    -0.02513
    -0.00608     0.01212     0.01481     0.01815     0.02750     0.02969
     0.03676
 
  end of program scf
   
 Time(scf)  user:     898.121  user+sys:     898.121  wallclock:     477.412
  
  start of program der1a
  
  end of program der1a
   
 Time(der1a)  user:      28.919  user+sys:      28.919  wallclock:      15.460
  
  start of program rwr
  
  end of program rwr
   
 Time(rwr)  user:      38.675  user+sys:      38.675  wallclock:      48.606
  
  start of program der1b
  
   
  forces (hartrees/bohr) : total     
   
 atom  label           x              y              z
 ---- --------   -------------  -------------  -------------
    1 P1         -1.042790E-02   9.856466E-03   2.304609E-02
    2 Pd2         1.358898E-02   1.016537E-02   1.161756E-03
    3 N3          3.771204E-02   2.477025E-03   8.153919E-03
    4 C4         -1.716966E-03  -4.386544E-04  -3.728117E-02
    5 C5          2.112189E-03   4.529599E-03   1.069930E-02
    6 C6         -7.717356E-04  -2.824613E-03  -5.052950E-04
    7 C7         -9.647693E-03   7.109664E-04   2.524236E-03
    8 C8         -1.848357E-03   3.355868E-03  -4.817513E-04
    9 C9          1.042251E-04  -5.140425E-03   9.754455E-03
   10 F10         9.696077E-04   3.724397E-04   7.709538E-03
   11 H11         4.665468E-05  -1.929545E-03   7.778999E-04
   12 H12        -1.951071E-03  -3.605077E-03   2.908525E-03
   13 H13         1.265128E-03   3.551175E-04   1.399605E-03
   14 H14         3.655381E-05   2.210279E-03   4.591176E-04
   15 H15        -2.800574E-02  -5.889271E-02   1.921696E-02
   16 C16         7.295347E-04  -3.241464E-03   1.944290E-03
   17 C17        -1.146206E-03   2.177477E-03   6.940066E-04
   18 C18         4.970308E-04  -5.358955E-03   9.234073E-04
   19 C19        -1.098887E-02   2.437890E-02  -2.402634E-02
   20 C20         1.680755E-02  -2.575176E-03   1.167574E-02
   21 C21        -6.292059E-04   4.291854E-03  -4.083123E-03
   22 H22        -5.219312E-03   4.611639E-03  -7.812663E-03
   23 H23        -1.848764E-03   1.018347E-02   3.792893E-05
   24 H24         1.689473E-03   8.033164E-03   7.601618E-03
   25 H25         1.403958E-03  -1.349925E-02   7.227128E-04
   26 H26        -3.491907E-03  -5.526314E-03  -8.208126E-03
   27 C27         1.388498E-02   9.197021E-03  -1.334462E-02
   28 C28        -5.659690E-03  -7.602533E-03  -1.824367E-02
   29 C29         2.083135E-03  -1.878654E-02  -1.483742E-02
   30 C30        -9.168518E-03   1.061169E-02  -6.317465E-03
   31 C31         3.496333E-03   2.568217E-03  -4.132727E-03
   32 C32         9.622216E-03   6.783638E-05  -4.037921E-03
   33 C33         6.160132E-03  -1.762261E-03  -5.797073E-04
   34 C34        -7.082190E-03  -1.429753E-02   1.227989E-02
   35 C35         1.594564E-02  -2.568199E-03   7.509679E-03
   36 C36         4.901836E-04  -6.876715E-03   1.150419E-03
   37 C37        -4.576388E-03  -9.287488E-03  -1.518231E-03
   38 C38        -5.557618E-03  -3.137724E-03  -1.787979E-03
   39 C39        -8.596634E-03   1.353413E-02  -5.728296E-03
   40 C40        -6.127764E-03   1.579597E-03  -1.360838E-02
   41 C41        -1.139282E-03  -3.409079E-04  -1.261171E-03
   42 C42         1.215370E-03  -1.629277E-03   9.383606E-04
   43 C43        -4.987189E-03   1.287576E-02  -1.997428E-02
   44 C44        -2.223992E-03  -1.226324E-02  -4.344890E-02
   45 C45         2.343871E-03   7.928587E-03   4.851673E-02
   46 C46        -3.187944E-03  -3.035778E-03   1.364405E-02
   47 C47         3.959155E-04   2.625586E-03   3.553329E-03
   48 C48         1.068300E-03  -3.142898E-03  -1.201859E-02
   49 C49        -4.480341E-04   4.494633E-03   1.950317E-04
   50 C50         7.779258E-03   8.022318E-03   1.753210E-02
   51 C51         1.017201E-02   7.795081E-04  -1.252439E-02
   52 C52         1.265055E-03   6.713002E-03  -1.177575E-02
   53 C53        -1.344065E-02  -1.250164E-02  -4.062772E-03
   54 C54        -5.461027E-03  -6.893270E-03   1.030695E-02
   55 C55         3.469242E-03   7.870340E-04   5.289136E-03
   56 C56        -9.773881E-04   1.055271E-02   1.205703E-02
   57 C57        -2.398370E-03   8.171615E-03  -5.989871E-03
   58 C58        -3.629564E-03  -8.134055E-03   8.668715E-03
   59 C59        -4.816991E-04   1.104047E-02   7.134472E-05
   60 H60        -1.190443E-02  -8.227352E-03   1.932291E-03
   61 H61         3.067913E-03   6.641521E-03   5.638720E-03
   62 H62         2.023030E-03  -1.202698E-02  -2.530377E-03
   63 H63        -4.890688E-03  -5.451668E-03  -6.285682E-03
   64 H64        -1.632471E-03  -4.186110E-03   1.095102E-02
   65 H65         4.306870E-03   5.377926E-03   6.973217E-03
   66 H66        -1.107069E-02  -2.210777E-03   1.616382E-03
   67 H67        -6.243998E-03  -5.177668E-03  -6.567339E-03
   68 H68        -5.592756E-03   1.009961E-02   3.289340E-03
   69 H69        -2.415825E-03   7.435926E-03  -7.931599E-03
   70 H70         4.315115E-03   4.847207E-03   5.715086E-03
   71 H71        -2.451022E-03   2.397584E-04   6.908967E-03
   72 H72        -1.028292E-02   2.978415E-03   9.555833E-05
   73 H73         3.673088E-03  -8.400272E-04  -8.282105E-03
   74 H74        -8.452229E-04   8.694340E-03  -8.160770E-03
   75 H75        -4.095558E-03   2.390565E-03   8.396998E-03
   76 H76         3.022182E-03   9.819988E-03   4.909296E-03
   77 H77         4.401255E-03  -1.873851E-03  -8.933667E-03
   78 H78         1.187403E-02   9.047530E-04  -1.806035E-04
   79 H79        -3.524487E-03   2.263012E-03   8.745241E-03
   80 H80         5.148205E-03   1.840784E-05  -5.468475E-03
   81 H81         4.127896E-03  -5.954015E-03   8.577280E-03
   82 H82        -5.015458E-04   6.601678E-03   8.121321E-03
   83 H83         2.709709E-03   1.424101E-03   1.041668E-02
   84 H84         5.754152E-03  -4.756730E-03   8.511432E-03
   85 H85         8.478006E-03  -8.180030E-03   3.666837E-03
   86 H86         3.976845E-03  -3.874364E-03  -7.009366E-03
   87 H87        -3.535570E-03  -2.156912E-03  -8.680086E-03
   88 H88         7.541478E-05   4.809371E-03  -1.811823E-03
   89 H89        -2.895957E-04  -1.024754E-02  -2.750178E-03
   90 H90         6.702131E-03  -1.740375E-04   9.153831E-03
   91 H91        -8.435582E-03   1.764606E-03   5.864689E-03
   92 H92         6.547963E-03   1.159691E-02   5.988641E-03
   93 H93         3.172188E-03  -4.203271E-03  -8.546125E-03
   94 H94         1.068821E-02   2.895447E-03   2.020098E-03
   95 H95        -1.930576E-03   1.014687E-02  -1.965141E-03
   96 H96        -9.109989E-03  -1.635559E-03  -6.030285E-03
   97 H97        -3.131557E-03  -8.922949E-03  -3.382075E-03
   98 H98        -8.648990E-03   6.974065E-03   1.435198E-03
   99 H99        -1.869948E-04   1.612556E-02  -8.382375E-03
  100 H100        2.779784E-03  -6.926950E-03  -7.948053E-03
  101 H101        9.725903E-03  -3.922550E-04   5.432548E-03
  102 H102       -5.200330E-03  -5.891621E-03   5.625835E-03
  103 H103        1.037072E-02   6.629977E-04   1.575156E-03
  104 H104       -7.874854E-04  -2.851731E-03  -1.010750E-02
  105 H105       -4.984470E-03   1.143748E-02  -7.288763E-04
  106 H106        1.018796E-02  -1.782979E-03   2.212848E-03
  107 H107       -6.793033E-03  -6.076769E-03   6.909020E-03
  108 H108       -1.247440E-03  -5.468435E-03  -9.378468E-03
[...]
    H64      Z    -0.00065  -0.00010   0.00004  -0.00019   0.00015  -0.00008
    H65      X    -0.00002   0.00002  -0.00003  -0.00002   0.00003  -0.00001
    H65      Y    -0.00003   0.00006  -0.00007  -0.00003   0.00005  -0.00001
    H65      Z    -0.00002   0.00005  -0.00006  -0.00002   0.00003  -0.00000
    H66      X     0.00011   0.00017  -0.00013   0.00016  -0.00013   0.00008
    H66      Y     0.00008   0.00002  -0.00001   0.00002  -0.00002   0.00001
    H66      Z    -0.00007  -0.00005   0.00004  -0.00005   0.00004  -0.00004
    H67      X    -0.00000   0.00011  -0.00012   0.00000   0.00002  -0.00007
    H67      Y     0.00001   0.00022  -0.00024   0.00000   0.00002  -0.00008
    H67      Z    -0.00001   0.00012  -0.00013  -0.00000   0.00002  -0.00005
    H68      X     0.00016   0.00007  -0.00014   0.00010  -0.00010   0.00003
    H68      Y    -0.00011  -0.00008   0.00020  -0.00013   0.00013  -0.00001
    H68      Z    -0.00002   0.00001  -0.00002   0.00003  -0.00003   0.00003
    H69      X    -0.00008  -0.00004   0.00006  -0.00001   0.00000   0.00020
    H69      Y     0.00002  -0.00005   0.00009  -0.00004   0.00003   0.00052
    H69      Z     0.00024   0.00041   0.00034   0.00046  -0.00023   0.00283
    H70      X    -0.00012   0.00006  -0.00001  -0.00001   0.00004  -0.00009
    H70      Y    -0.00031   0.00012   0.00002  -0.00002   0.00009  -0.00018
    H70      Z    -0.00017   0.00006  -0.00009  -0.00004   0.00007  -0.00063
    H71      X     0.00053  -0.00031  -0.00135  -0.00046   0.00013  -0.00007
    H71      Y    -0.00039  -0.00004   0.00053  -0.00009   0.00004  -0.00011
    H71      Z    -0.00135   0.00059   0.00359   0.00086  -0.00021   0.00016
    H72      X    -0.00020  -0.00300  -0.01472  -0.00352   0.00097   0.00063
    H72      Y     0.00008  -0.00005  -0.00023  -0.00004   0.00000  -0.00022
    H72      Z    -0.00005  -0.00102  -0.00502  -0.00125   0.00033  -0.00025
    H73      X    -0.00004  -0.00466  -0.02277  -0.00584   0.00161  -0.00051
    H73      Y     0.00009   0.00277   0.01343   0.00346  -0.00095   0.00005
    H73      Z     0.00009   0.00964   0.04683   0.01198  -0.00331   0.00003
    H74      X    -0.00005   0.00011   0.00048   0.00018  -0.00007   0.00002
    H74      Y    -0.00007  -0.00039  -0.00157  -0.00060   0.00024  -0.00015
    H74      Z    -0.00002   0.00030   0.00118   0.00047  -0.00019   0.00007
    H75      X     0.00006  -0.00037  -0.00195  -0.00052   0.00017  -0.00005
    H75      Y    -0.00006   0.00028   0.00146   0.00039  -0.00012   0.00009
    H75      Z    -0.00015   0.00074   0.00396   0.00104  -0.00031   0.00018
    H76      X    -0.00007   0.00001   0.00027   0.00001   0.00003   0.00003
    H76      Y    -0.00008   0.00003   0.00073   0.00004   0.00007  -0.00001
    H76      Z    -0.00006   0.00003   0.00034   0.00004   0.00001   0.00001
    H77      X     0.00003  -0.00014  -0.00083  -0.00024   0.00013  -0.00004
    H77      Y     0.00000   0.00003   0.00019   0.00006  -0.00004   0.00001
    H77      Z    -0.00007   0.00016   0.00109   0.00034  -0.00023   0.00004
    H78      X    -0.00056  -0.00010   0.00027  -0.00018   0.00024   0.00001
    H78      Y    -0.00003  -0.00002  -0.00003  -0.00003   0.00001  -0.00003
    H78      Z    -0.00003   0.00000   0.00004  -0.00001   0.00003   0.00001
    H79      X     0.00011  -0.00001  -0.00013  -0.00005   0.00003  -0.00001
    H79      Y    -0.00011   0.00000   0.00008   0.00004  -0.00002  -0.00001
    H79      Z    -0.00019   0.00005   0.00043   0.00018  -0.00010   0.00002
    H80      X     0.00043  -0.00010  -0.00053  -0.00020   0.00006   0.00001
    H80      Y    -0.00003   0.00007   0.00028   0.00012  -0.00007   0.00004
    H80      Z    -0.00126   0.00011   0.00056   0.00031  -0.00007   0.00001
    H81      X    -0.00163  -0.00001   0.00031   0.00002  -0.00005   0.00006
    H81      Y     0.00276   0.00002  -0.00068  -0.00004   0.00010  -0.00005
    H81      Z    -0.00239   0.00001   0.00078   0.00005  -0.00015   0.00006
    H82      X     0.12907   0.00395  -0.00068   0.00112  -0.00206   0.00002
    H82      Y    -0.31438  -0.00962   0.00169  -0.00267   0.00504  -0.00002
    H82      Z    -0.22871  -0.00698   0.00119  -0.00190   0.00370  -0.00002
    H83      X    -0.13126  -0.00394   0.00090  -0.00105   0.00185  -0.00002
    H83      Y    -0.02725  -0.00080   0.00018  -0.00018   0.00038   0.00000
    H83      Z    -0.53326  -0.01598   0.00364  -0.00415   0.00754  -0.00006
    H84      X    -0.33041  -0.00974   0.00240  -0.00183   0.00517  -0.00002
    H84      Y     0.43076   0.01269  -0.00312   0.00240  -0.00672   0.00003
    H84      Z    -0.23595  -0.00695   0.00171  -0.00129   0.00373  -0.00002
    H85      X    -0.08836  -0.00283   0.00094  -0.00078   0.00144   0.00001
    H85      Y     0.21434   0.00681  -0.00224   0.00181  -0.00370   0.00000
    H85      Z     0.16471   0.00521  -0.00169   0.00133  -0.00286   0.00002
    H86      X     0.00960  -0.04171  -0.00156   0.21220   0.64420  -0.00001
    H86      Y     0.00327  -0.01406  -0.00053   0.07108   0.21484  -0.00001
    H86      Z    -0.00883   0.03876   0.00148  -0.19665  -0.59657   0.00001
    H87      X     0.00080   0.01691  -0.00462   0.00345  -0.00345   0.00006
    H87      Y     0.00078   0.01514  -0.00415   0.00330  -0.00252   0.00002
    H87      Z     0.00039   0.00585  -0.00162   0.00154  -0.00025   0.00004
    H88      X    -0.00011  -0.00000  -0.00000   0.00001   0.00005   0.00002
    H88      Y     0.00022   0.00051  -0.00023   0.00035   0.00031  -0.00001
    H88      Z     0.00031   0.00064  -0.00032   0.00053   0.00050  -0.00000
    H89      X    -0.00012   0.00011  -0.00004   0.00009   0.00008  -0.00001
    H89      Y    -0.00040   0.00073  -0.00027   0.00046   0.00041  -0.00003
    H89      Z    -0.00059   0.00078  -0.00028   0.00049   0.00044  -0.00001
    H90      X    -0.00236   0.00051  -0.00024   0.00004   0.00011   0.00003
    H90      Y     0.00050  -0.00006   0.00004   0.00002  -0.00002  -0.00004
    H90      Z    -0.00114   0.00021  -0.00010  -0.00000   0.00006   0.00003
    H91      X    -0.00004  -0.00047   0.00015  -0.00037  -0.00025   0.00005
    H91      Y     0.00006  -0.00014   0.00005  -0.00010  -0.00001   0.00002
    H91      Z    -0.00001   0.00041  -0.00012   0.00035   0.00024  -0.00006
    H92      X     0.00010  -0.00011   0.00005   0.00065   0.00229   0.00002
    H92      Y     0.00017  -0.00002  -0.00013   0.00027   0.00008   0.00001
    H92      Z     0.00001   0.00002  -0.00038  -0.00004  -0.00300   0.00003
    H93      X     0.00006   0.00026   0.00001   0.00021   0.00321  -0.00003
    H93      Y    -0.00008  -0.00048  -0.00031  -0.00015  -0.00505   0.00005
    H93      Z    -0.00020  -0.00223  -0.00199   0.00008  -0.02038   0.00008
    H94      X    -0.00056  -0.00094   0.00044   0.00190  -0.00283  -0.00031
    H94      Y    -0.00046  -0.00070   0.00047   0.00175  -0.00178  -0.00010
    H94      Z    -0.00019  -0.00046   0.00023   0.00092  -0.00145  -0.00008
    H95      X    -0.00022  -0.00096   0.00590   0.00720   0.00220  -0.00029
    H95      Y     0.00020   0.00052  -0.00352  -0.00395  -0.00142   0.00045
    H95      Z     0.00000  -0.00038  -0.00089   0.00046  -0.00035  -0.00004
    H96      X    -0.00006   0.00211  -0.00040  -0.00079  -0.00109   0.00000
    H96      Y     0.00001  -0.00030   0.00012  -0.00045  -0.00071  -0.00001
    H96      Z     0.00000   0.00105  -0.00021  -0.00057  -0.00154   0.00001
    H97      X     0.00007   0.00016  -0.00005   0.00004   0.00020  -0.00001
    H97      Y     0.00013   0.00025  -0.00008  -0.00010   0.00043   0.00003
    H97      Z     0.00014   0.00317  -0.00100   0.00097   0.00044   0.00004
    H98      X     0.00047  -0.00125   0.00034  -0.00039  -0.00025   0.00003
    H98      Y     0.00009  -0.00020   0.00004  -0.00001  -0.00006  -0.00003
    H98      Z    -0.00042   0.00113  -0.00028   0.00030   0.00031  -0.00002
    H99      X    -0.00009  -0.00001   0.00003  -0.00005  -0.00001  -0.00003
    H99      Y     0.00068  -0.00481   0.00145  -0.00116   0.00036   0.00005
    H99      Z    -0.00029   0.00363  -0.00109   0.00121  -0.00022  -0.00008
    H100     X     0.00029  -0.00036   0.00006   0.00183   0.00610  -0.00000
    H100     Y    -0.00038   0.00043  -0.00004  -0.00232  -0.00782   0.00001
    H100     Z    -0.00130   0.00130  -0.00014  -0.00668  -0.02185   0.00000
    H101     X    -0.00007   0.00025  -0.00031  -0.00066  -0.00220  -0.00005
    H101     Y    -0.00000   0.00025  -0.00021  -0.00081  -0.00264  -0.00004
    H101     Z     0.00000   0.00013  -0.00012  -0.00039  -0.00121  -0.00002
    H102     X     0.00007   0.00000   0.00003   0.00005   0.00021   0.00000
    H102     Y     0.00265  -0.00005  -0.00038   0.00131   0.00578   0.00003
    H102     Z    -0.00198   0.00000   0.00029  -0.00093  -0.00427  -0.00002
    H103     X     0.00013  -0.00090  -0.00017   0.00496   0.01598  -0.00002
    H103     Y    -0.00001   0.00009  -0.00001  -0.00010  -0.00084   0.00000
    H103     Z     0.00004  -0.00043  -0.00004   0.00188   0.00592  -0.00001
    H104     X     0.00007  -0.00005  -0.00001   0.00059   0.00214   0.00001
    H104     Y     0.00022  -0.00003  -0.00007   0.00150   0.00556   0.00003
    H104     Z     0.00039   0.00008  -0.00011   0.00205   0.00798   0.00005
    H105     X    -0.00003  -0.00026  -0.00009   0.00037  -0.00130   0.00001
    H105     Y     0.00019   0.00133  -0.00004   0.00050   0.00632  -0.00000
    H105     Z    -0.00004  -0.00017   0.00008  -0.00021  -0.00060  -0.00002
    H106     X    -0.00004   0.00068  -0.00024   0.00077   0.00246  -0.00001
    H106     Y    -0.00000  -0.00009   0.00003  -0.00009  -0.00044   0.00000
    H106     Z    -0.00003   0.00025  -0.00009   0.00032   0.00110  -0.00001
    H107     X    -0.00002   0.00067  -0.00017   0.00057   0.00169   0.00000
    H107     Y    -0.00003   0.00051  -0.00012   0.00037   0.00120  -0.00000
    H107     Z     0.00001  -0.00077   0.00019  -0.00054  -0.00162  -0.00001
    H108     X     0.00003  -0.00004   0.00001  -0.00000  -0.00005   0.00000
    H108     Y     0.00019   0.00014  -0.00005  -0.00034  -0.00130   0.00004
    H108     Z     0.00030   0.00017  -0.00007  -0.00043  -0.00163   0.00005
  
  Number of imaginary frequencies:   1
   
  Writing vibrational animation data to red_elim_N_trans_L1_PL146.vib
  Writing IR vibrational spectrum data to red_elim_N_trans_L1_PL146_vib.spm
  rotational symmetry number:  1

  rotational temperatures (K):      0.003489      0.002754      0.002252
   
  The Quasi-Harmonic approximation will be applied to compute
  vibrational constributions to thermodynamic properties.
  Frequencies will be adjusted to a minimum value of  100.00 cm^-1.

    1 vibrational frequencies below    0.0 cm-1 not included in zero-point
  energy or thermochemical analysis.  Set freqcut to change the frequency
  cutoff value.

  vibrational temperatures:
       mode:      2        3        4        5        6        7
  temp. (K):   143.88   143.88   143.88   143.88   143.88   143.88
   
       mode:      8        9       10       11       12       13
  temp. (K):   143.88   143.88   143.88   143.88   143.88   143.88
   
       mode:     14       15       16       17       18       19
  temp. (K):   143.88   143.88   143.88   143.88   143.88   143.88
   
       mode:     20       21       22       23       24       25
  temp. (K):   151.37   154.22   168.64   181.28   191.97   207.86
   
       mode:     26       27       28       29       30       31
  temp. (K):   213.31   223.54   224.68   237.83   263.00   269.06
   
       mode:     32       33       34       35       36       37
  temp. (K):   273.98   288.64   298.89   311.81   319.80   329.98
   
       mode:     38       39       40       41       42       43
  temp. (K):   356.28   357.97   371.17   373.40   377.82   382.30
   
       mode:     44       45       46       47       48       49
  temp. (K):   390.01   396.94   408.04   424.74   433.07   443.04
   
       mode:     50       51       52       53       54       55
  temp. (K):   450.84   465.02   478.67   482.20   495.71   501.34
   
       mode:     56       57       58       59       60       61
  temp. (K):   519.88   536.75   547.83   555.04   581.07   590.53
   
       mode:     62       63       64       65       66       67
  temp. (K):   595.10   608.18   612.41   642.49   643.51   647.49
   
       mode:     68       69       70       71       72       73
  temp. (K):   658.70   679.43   681.26   695.17   710.84   712.67
   
       mode:     74       75       76       77       78       79
  temp. (K):   737.76   758.73   765.20   774.71   794.22   797.14
   
       mode:     80       81       82       83       84       85
  temp. (K):   809.13   826.24   831.70   858.33   874.77   900.38
   
       mode:     86       87       88       89       90       91
  temp. (K):   909.33   915.01   939.79   960.03   992.93  1019.36
   
       mode:     92       93       94       95       96       97
  temp. (K):  1026.27  1049.68  1082.29  1099.18  1116.91  1118.08
   
       mode:     98       99      100      101      102      103
  temp. (K):  1128.88  1147.22  1149.48  1164.36  1180.11  1185.87
   
       mode:    104      105      106      107      108      109
  temp. (K):  1190.92  1198.75  1202.73  1208.59  1210.55  1217.44
   
       mode:    110      111      112      113      114      115
  temp. (K):  1227.87  1238.48  1259.16  1268.86  1277.75  1303.16
   
       mode:    116      117      118      119      120      121
  temp. (K):  1310.01  1311.57  1312.25  1315.63  1326.63  1330.38
   
       mode:    122      123      124      125      126      127
  temp. (K):  1337.65  1348.15  1364.23  1366.82  1368.58  1370.89
   
       mode:    128      129      130      131      132      133
  temp. (K):  1372.84  1373.26  1386.69  1399.52  1401.97  1417.10
   
       mode:    134      135      136      137      138      139
  temp. (K):  1418.28  1421.44  1423.60  1430.89  1449.62  1468.16
   
       mode:    140      141      142      143      144      145
  temp. (K):  1469.69  1475.61  1481.59  1485.06  1526.34  1527.09
   
       mode:    146      147      148      149      150      151
  temp. (K):  1532.94  1538.51  1540.63  1553.66  1556.10  1579.23
   
       mode:    152      153      154      155      156      157
  temp. (K):  1592.03  1597.25  1599.71  1600.87  1604.43  1605.67
   
       mode:    158      159      160      161      162      163
  temp. (K):  1609.06  1618.35  1638.15  1641.48  1651.67  1654.60
   
       mode:    164      165      166      167      168      169
  temp. (K):  1657.77  1663.92  1670.87  1685.60  1720.99  1721.99
   
       mode:    170      171      172      173      174      175
  temp. (K):  1725.73  1738.92  1742.32  1748.18  1755.61  1759.63
   
       mode:    176      177      178      179      180      181
  temp. (K):  1767.21  1774.68  1801.15  1806.86  1827.33  1835.52
   
       mode:    182      183      184      185      186      187
  temp. (K):  1859.85  1865.14  1868.28  1877.54  1880.51  1887.75
   
       mode:    188      189      190      191      192      193
  temp. (K):  1893.12  1897.50  1900.08  1907.21  1909.05  1926.84
   
       mode:    194      195      196      197      198      199
  temp. (K):  1929.15  1931.88  1934.98  1941.01  1958.61  1963.18
   
       mode:    200      201      202      203      204      205
  temp. (K):  1964.63  1973.41  1976.05  1977.43  1981.28  1994.83
   
       mode:    206      207      208      209      210      211
  temp. (K):  1999.19  2000.88  2012.07  2014.75  2017.90  2019.82
   
       mode:    212      213      214      215      216      217
  temp. (K):  2021.41  2024.50  2029.10  2029.75  2045.75  2046.80
   
       mode:    218      219      220      221      222      223
  temp. (K):  2050.67  2051.80  2075.24  2076.82  2080.83  2122.14
   
       mode:    224      225      226      227      228      229
  temp. (K):  2124.77  2153.92  2156.79  2171.45  2171.50  2173.21
   
       mode:    230      231      232      233      234      235
  temp. (K):  2174.83  2175.70  2176.62  2178.01  2178.24  2181.87
   
       mode:    236      237      238      239      240      241
  temp. (K):  2183.18  2185.33  2186.58  2189.87  2195.37  2198.56
   
       mode:    242      243      244      245      246      247
  temp. (K):  2199.17  2199.84  2202.06  2204.37  2208.08  2210.34
   
       mode:    248      249      250      251      252      253
  temp. (K):  2213.98  2217.04  2221.87  2223.70  2306.33  2344.73
   
       mode:    254      255      256      257      258      259
  temp. (K):  2355.46  2363.72  2370.77  2378.42  2396.57  2398.26
   
       mode:    260      261      262      263      264      265
  temp. (K):  4344.86  4349.25  4352.11  4352.79  4353.01  4354.39
   
       mode:    266      267      268      269      270      271
  temp. (K):  4359.18  4360.07  4360.20  4368.41  4374.67  4375.36
   
       mode:    272      273      274      275      276      277
  temp. (K):  4375.93  4376.07  4379.65  4383.60  4383.84  4386.11
   
       mode:    278      279      280      281      282      283
  temp. (K):  4430.81  4431.94  4432.37  4433.34  4433.88  4439.39
   
       mode:    284      285      286      287      288      289
  temp. (K):  4441.59  4441.91  4453.82  4467.61  4470.45  4477.75
   
       mode:    290      291      292      293      294      295
  temp. (K):  4483.19  4486.55  4490.60  4491.29  4491.74  4492.53
   
       mode:    296      297      298      299      300      301
  temp. (K):  4496.74  4497.97  4500.20  4506.68  4510.14  4533.03
   
       mode:    302      303      304      305      306      307
  temp. (K):  4538.39  4547.89  4564.50  4575.11  4576.15  4583.74
   
       mode:    308      309      310      311      312      313
  temp. (K):  4595.25  4595.90  4603.07  4603.78  4610.95  4624.28
   
       mode:    314      315      316      317      318
  temp. (K):  4625.59  4626.80  4628.63  4630.14  4996.50
   
   
  Thermodynamic properties calculated assuming an ideal gas

  In the table below, the units for temperature
  are kelvins, the units for U, H, and G are
  kcal/mol and the units for Cv and S are cal/(mol K)

  The zero point energy (ZPE):    595.243 kcal/mol
  is not included in U, H, or G in the table below
  
 
  =============================================================================
  Thermodynamic properties for P = 1.00E+00 atm, calculated at   1 temperatures


  T =   298.15 K, P = 1.00E+00 atm
   
                  U         Cv          S          H          G        ln(Q)
              =========  =========  =========  =========  =========  =========
  trans.          0.889      2.981     45.800      1.481    -12.174   20.54742
  rot.            0.889      2.981     38.637      0.889    -10.631   17.94306
  vib.           27.837    186.156    169.025     27.837    -22.558   38.07382
  elec.           0.000      0.000      0.000      0.000      0.000    0.00000
  ----------------------------------------------------------------------------
  total          29.614    192.118    253.463     30.207    -45.363   76.56430
   
   Total internal energy, Utot(SCFE + ZPE + U):   -2371.541506 hartrees
   Total enthalpy, Htot (Utot + nRT), with n=1:   -2371.540562 hartrees
    Total Gibbs free energy, Gtot (Htot - T*S):   -2371.660990 hartrees
   
  end of program freq
   
 Time(freq)  user:       0.629  user+sys:       0.629  wallclock:       1.023
  
  start of program post
  
  Writing input files for PBF
  end of program post
   
 Time(post)  user:       0.361  user+sys:       0.361  wallclock:       0.224

 Total cpu seconds     user:  219562.145   user+sys:  219562.145
  
 Total elapsed time:    126769 seconds

Job red_elim_N_trans_L1_PL146 completed on bp1-compute056.data.bp.acrc.priv at Mon Mar 31 01:40:06 2025
