Job red_elim_L_trans_L1_PL146_2 started on bp1-compute149.data.bp.acrc.priv at Fri May  2 14:40:03 2025
jobid: bp1-compute149-4-6814cb23

  +--------------------------------------------------------------------+
  |  Jaguar version 12.5, release 138                                  |
  |                                                                    |
  |  Copyright Schrodinger, Inc.                                       |
  |  All Rights Reserved.                                              |
  |                                                                    |
  |  The following have contributed to Jaguar (listed alphabetically): |
  |  Ty Balduf, Mike Beachy, Chandler Bennett, Art Bochevarov,         |
  |  Dale Braden, Yixiang Cao, Alan Chien, Chris Cortis,               |
  |  Rich Friesner, Jim Furness, Bill Goddard, Hod Greeley,            |
  |  Tom Hughes, Leif Jacobson, Jean-Marc Langlois, Daniel Levine,     |
  |  Rob Murphy, Dean Philipp, Tom Pollard, Murco Ringnalda,           |
  |  Daniel Mainz, Pablo Videla, Mark Watson, Haoyu Yu.                |
  |                                                                    |
  |  Use of this program should be acknowledged in publications as:    |
  |                                                                    |
  |  Jaguar, version 12.5, Schrodinger, Inc., New York, NY, 2024.      |
  |                                                                    |
  |  A. D. Bochevarov, E. Harder, T. F. Hughes, J. R. Greenwood,       |
  |  D. A. Braden, D. M. Philipp, D. Rinaldo, M. D. Halls,             |
  |  J. Zhang, R. A. Friesner, "Jaguar: A High-Performance Quantum     |
  |  Chemistry Software Program with Strengths in Life and Materials   |
  |  Sciences", Int. J. Quantum Chem., 2013, 113(18), 2110-2142.       |
  +--------------------------------------------------------------------+
  
  start of program pre
  
  Job name: red_elim_L_trans_L1_PL146_2
  Executables used: /software/local/apps/schrodinger2024-3/jaguar-v12.5/bin/Linux-x86_64
  Temporary files : /tmp/ar21627/red_elim_L_trans_L1_PL146_2#bp1-compute149-4-6814cb23
  Basis file : using default basis file from /software/local/apps/schrodinger2024-3
  Maestro file (input):  red_elim_L_trans_L1_PL146_2.mae
  Maestro file (output): red_elim_L_trans_L1_PL146_2.01.mae
  
 Contents of input file: &gen and (if present) &atomic sections only
 ----------------Contents start----------------
&gen
dftname=b3pw91-d3
basis=6-31G*
numd=5
ip11=2
iaccg=3
isolv=2
igeopt=1
solvent=benzene
ifreq=1
&
&atomic
atom basis
Pd2 lacv3p*
&
 -----------------Contents end-----------------
 
  PS calculation requested. Using PS version of 6-31g*
  basis set:               non_standard                    
  net molecular charge:    0
  multiplicity:            1
  
  Using up to   4 threads per process
  
  This run will use ECP on 1 atom
  number of basis functions....          825
 freezing dummy-atom X       
  
Warning: dummy atom X        has only 0 geometric constraints
  
Each dummy atom must have at least 3 geometric constraints, 
so that it's frozen with respect to the non-dummy atoms.
  
  
 Input geometry:
                                   angstroms
  atom               x                 y                 z
  P1           -0.3274357364      0.0609372860     -0.1358017601 
  Pd2          -0.3572185249      0.1309353133      2.1450139869 
  N2            1.5275051438      1.2712254178      2.4522529981 
  C16          -3.9469160703     -2.9764521474      3.0349354482 
  C17          -4.2638945879     -1.8516952140      2.2881204900 
  C18          -3.2504508121     -0.9332215490      1.9978537180 
  C19          -1.9353414539     -1.1063521597      2.4508488985 
  C20          -1.6690792017     -2.2546818437      3.2178481366 
  C21          -2.6603487986     -3.1948417334      3.5097377844 
  F10          -4.9136584155     -3.8829596040      3.3079532775 
  H23          -5.2819266828     -1.7107197928      1.9321597789 
  H24          -3.5069615286     -0.0691991974      1.3922650486 
  H25          -0.6675431424     -2.4264093881      3.6097437889 
  H26          -2.4490845966     -4.0861236757      4.0967876341 
  H30           1.0781656582      2.1849746914      2.5253937254 
  C31           0.6101793300     -1.1748961503      5.7475321247 
  C32          -0.2030066816     -0.0984369250      5.4597736243 
  C33           0.0967086249      0.7582269882      4.3778533736 
  C34           1.2858749211      0.5555531241      3.5902946574 
  C35           2.0919636068     -0.5856373125      3.9099592518 
  C36           1.7639627944     -1.4098252639      4.9622766813 
  H37           0.3715973806     -1.8418242885      6.5727304244 
  H38          -1.0941088167      0.0937533761      6.0532799966 
  H39          -0.4587315961      1.6852963361      4.2527231341 
  H40           2.9791426730     -0.7572803954      3.3059909382 
  H41           2.4013915808     -2.2614770119      5.1946103754 
  C3            1.4605121681      0.2434988350     -0.6657858072 
  C4           -0.9516287267     -1.4921588161     -0.9863355929 
  C5           -1.1296269416      1.4704311012     -1.0317163302 
  C6            1.7164126416      0.3917670257     -2.1704226001 
  C7            3.1895000117      0.7350438291     -2.4321857005 
  C8            4.1399813256     -0.2772441848     -1.7885226357 
  C9            3.8459793112     -0.4430097633     -0.2954654111 
  C10           2.3828659387     -0.8309080490     -0.0721587322 
  C11          -0.4834553550     -2.7534854319     -0.2324702917 
  C12          -0.8474010941     -4.0201694203     -1.0158674530 
  C13          -2.3525496040     -4.0982745053     -1.2804083923 
  C14          -2.8474472010     -2.8300501370     -1.9807191272 
  C15          -2.4768705954     -1.5791028088     -1.1763172468 
  C40          -1.5178015407      1.2603875772     -2.3687651964 
  C41          -2.1123973557      2.2550868708     -3.1379862538 
  C42          -2.3259635005      3.5136593956     -2.5823330265 
  C43          -1.9118262326      3.7510681469     -1.2763865459 
  C44          -1.3086139329      2.7613944633     -0.4798905333 
  C45          -0.8376795853      3.2558069056      0.8597902469 
  C22          -1.7036929105      3.2720546458      1.9783857119 
  C23          -1.2806667169      3.8973421703      3.1526653904 
  C24          -0.0348441486      4.5196631290      3.2606584011 
  C25           0.7884601357      4.5173516236      2.1373698092 
  C26           0.4178844363      3.8956390734      0.9387721740 
  C27           1.3789946219      3.9471872328     -0.2400576101 
  C28           1.2813213512      5.2998825088     -0.9590480529 
  C29          -3.1022342077      2.6810485425      1.9055252856 
  C30          -3.5664530863      2.0509571774      3.2226631883 
  C55           0.4207771879      5.1543819180      4.5615241736 
  C56           2.8290822841      3.6639514014      0.1755699322 
  C57          -4.1154712909      3.7450433067      1.4541275561 
  C58           0.5710032779      4.1009651799      5.6686948506 
  C59          -0.5152168715      6.2870974716      5.0028039767 
  H36           1.7172980773      1.1820331403     -0.1602822386 
  H61           1.4663879545     -0.5487291199     -2.6846478733 
  H62           1.0786431535      1.1711556612     -2.6024846713 
  H63           3.3945745041      1.7327485324     -2.0212668285 
  H64           3.3684058175      0.7975962972     -3.5137623090 
  H65           4.0206173155     -1.2519970766     -2.2865358348 
  H42           5.1826321002      0.0286733478     -1.9459566161 
  H43           4.0499253983      0.4961712944      0.2373998682 
  H44           4.5052011811     -1.2053598038      0.1408207018 
  H45           2.1743048634     -0.9609980943      0.9943141221 
  H46           2.2012452614     -1.7925866619     -0.5709934193 
  H47          -0.4720993758     -1.4946710409     -1.9783362834 
  H48           0.5915105753     -2.7325072243     -0.0402204715 
  H49          -0.9733699214     -2.7743300373      0.7469295621 
  H50          -0.5099243290     -4.9042802218     -0.4592960105 
  H51          -0.3054804603     -4.0263047794     -1.9745813489 
  H52          -2.5940850958     -4.9886510921     -1.8757765965 
  H53          -2.8790340729     -4.2025186878     -0.3201907290 
  H54          -3.9357887905     -2.8686707128     -2.1200566459 
  H55          -2.4031889802     -2.7668128937     -2.9867807810 
  H56          -2.9445081803     -1.6441521725     -0.1899495102 
  H57          -2.8838213046     -0.6853567333     -1.6584495604 
  H58          -1.3360667555      0.2970415649     -2.8347296091 
  H59          -2.3976000120      2.0440626213     -4.1663828284 
  H60          -2.7906349408      4.3082194545     -3.1617487675 
  H85          -2.0348521141      4.7415365836     -0.8447288027 
  H86          -1.9419490505      3.8963932526      4.0148751709 
  H87           1.7611807445      4.9987404295      2.2060930649 
  H88           1.0776751623      3.1739226983     -0.9559983716 
  H89           1.5352270609      6.1184104303     -0.2738871887 
  H66           0.2697749297      5.4760421477     -1.3382732122 
  H67           1.9760569765      5.3375756157     -1.8076181966 
  H68          -3.0787626772      1.8942862994      1.1422888029 
  H69          -3.7522658628      2.8111945246      3.9915512593 
  H70          -4.5072079010      1.5109655150      3.0693575034 
  H71          -2.8339854852      1.3336471772      3.6040254630 
  H72           1.4131079554      5.5909393205      4.3812448917 
  H73           3.2476892777      4.4862249072      0.7682618864 
  H74           3.4622204739      3.5588928735     -0.7128833729 
  H75           2.9008169032      2.7486355436      0.7723461526 
  H76          -4.1315048673      4.5809889192      2.1647489553 
  H77          -5.1252222331      3.3182159139      1.4072082570 
  H78          -3.8709113556      4.1445367431      0.4657419065 
  H79          -0.3970571588      3.6456478069      5.9132441235 
  H80           0.9674095381      4.5539728836      6.5859902568 
  H81           1.2463148520      3.2950056058      5.3618725592 
  H82          -1.5189225583      5.9070148732      5.2303341326 
  H83          -0.6144474427      7.0464850531      4.2190631349 
  H84          -0.1322696842      6.7740784830      5.9080532166 
  X             0.9700295633      0.8616685100      3.4734670097 
   
  principal moments of inertia:
        amu*angstrom^2:              7255.81886              8513.18397             10047.30107
                g*cm^2:          1.20485692E-36          1.41364728E-36          1.66839339E-36
   
  rotational constants:
               cm^(-1):      0.00232333      0.00198018      0.00167783
                   GHz:      0.06965155      0.05936428      0.05029998
   
  Z-matrix: (angstroms and degrees) 
 P1            -0.3274357364             0.0609372860            -0.1358017601 
 Pd2           -0.3572185249             0.1309353133             2.1450139869 
 N2             1.5275051438             1.2712254178             2.4522529981 
 C16           -3.9469160703            -2.9764521474             3.0349354482 
 C17           -4.2638945879            -1.8516952140             2.2881204900 
 C18           -3.2504508121            -0.9332215490             1.9978537180 
 C19           -1.9353414539            -1.1063521597             2.4508488985 
 C20           -1.6690792017            -2.2546818437             3.2178481366 
 C21           -2.6603487986            -3.1948417334             3.5097377844 
 F10           -4.9136584155            -3.8829596040             3.3079532775 
 H23           -5.2819266828            -1.7107197928             1.9321597789 
 H24           -3.5069615286            -0.0691991974             1.3922650486 
 H25           -0.6675431424            -2.4264093881             3.6097437889 
 H26           -2.4490845966            -4.0861236757             4.0967876341 
 H30            1.0781656582             2.1849746914             2.5253937254 
 C31            0.6101793300            -1.1748961503             5.7475321247 
 C32           -0.2030066816            -0.0984369250             5.4597736243 
 C33            0.0967086249             0.7582269882             4.3778533736 
 C34            1.2858749211             0.5555531241             3.5902946574 
 C35            2.0919636068            -0.5856373125             3.9099592518 
 C36            1.7639627944            -1.4098252639             4.9622766813 
 H37            0.3715973806            -1.8418242885             6.5727304244 
 H38           -1.0941088167             0.0937533761             6.0532799966 
 H39           -0.4587315961             1.6852963361             4.2527231341 
 H40            2.9791426730            -0.7572803954             3.3059909382 
 H41            2.4013915808            -2.2614770119             5.1946103754 
 C3             1.4605121681             0.2434988350            -0.6657858072 
 C4            -0.9516287267            -1.4921588161            -0.9863355929 
 C5            -1.1296269416             1.4704311012            -1.0317163302 
 C6             1.7164126416             0.3917670257            -2.1704226001 
 C7             3.1895000117             0.7350438291            -2.4321857005 
 C8             4.1399813256            -0.2772441848            -1.7885226357 
 C9             3.8459793112            -0.4430097633            -0.2954654111 
 C10            2.3828659387            -0.8309080490            -0.0721587322 
 C11           -0.4834553550            -2.7534854319            -0.2324702917 
 C12           -0.8474010941            -4.0201694203            -1.0158674530 
 C13           -2.3525496040            -4.0982745053            -1.2804083923 
 C14           -2.8474472010            -2.8300501370            -1.9807191272 
 C15           -2.4768705954            -1.5791028088            -1.1763172468 
 C40           -1.5178015407             1.2603875772            -2.3687651964 
 C41           -2.1123973557             2.2550868708            -3.1379862538 
 C42           -2.3259635005             3.5136593956            -2.5823330265 
 C43           -1.9118262326             3.7510681469            -1.2763865459 
 C44           -1.3086139329             2.7613944633            -0.4798905333 
 C45           -0.8376795853             3.2558069056             0.8597902469 
 C22           -1.7036929105             3.2720546458             1.9783857119 
 C23           -1.2806667169             3.8973421703             3.1526653904 
 C24           -0.0348441486             4.5196631290             3.2606584011 
 C25            0.7884601357             4.5173516236             2.1373698092 
 C26            0.4178844363             3.8956390734             0.9387721740 
 C27            1.3789946219             3.9471872328            -0.2400576101 
 C28            1.2813213512             5.2998825088            -0.9590480529 
 C29           -3.1022342077             2.6810485425             1.9055252856 
 C30           -3.5664530863             2.0509571774             3.2226631883 
 C55            0.4207771879             5.1543819180             4.5615241736 
 C56            2.8290822841             3.6639514014             0.1755699322 
 C57           -4.1154712909             3.7450433067             1.4541275561 
 C58            0.5710032779             4.1009651799             5.6686948506 
 C59           -0.5152168715             6.2870974716             5.0028039767 
 H36            1.7172980773             1.1820331403            -0.1602822386 
 H61            1.4663879545            -0.5487291199            -2.6846478733 
 H62            1.0786431535             1.1711556612            -2.6024846713 
 H63            3.3945745041             1.7327485324            -2.0212668285 
 H64            3.3684058175             0.7975962972            -3.5137623090 
 H65            4.0206173155            -1.2519970766            -2.2865358348 
 H42            5.1826321002             0.0286733478            -1.9459566161 
 H43            4.0499253983             0.4961712944             0.2373998682 
 H44            4.5052011811            -1.2053598038             0.1408207018 
 H45            2.1743048634            -0.9609980943             0.9943141221 
 H46            2.2012452614            -1.7925866619            -0.5709934193 
 H47           -0.4720993758            -1.4946710409            -1.9783362834 
 H48            0.5915105753            -2.7325072243            -0.0402204715 
 H49           -0.9733699214            -2.7743300373             0.7469295621 
 H50           -0.5099243290            -4.9042802218            -0.4592960105 
 H51           -0.3054804603            -4.0263047794            -1.9745813489 
 H52           -2.5940850958            -4.9886510921            -1.8757765965 
 H53           -2.8790340729            -4.2025186878            -0.3201907290 
 H54           -3.9357887905            -2.8686707128            -2.1200566459 
 H55           -2.4031889802            -2.7668128937            -2.9867807810 
 H56           -2.9445081803            -1.6441521725            -0.1899495102 
 H57           -2.8838213046            -0.6853567333            -1.6584495604 
 H58           -1.3360667555             0.2970415649            -2.8347296091 
 H59           -2.3976000120             2.0440626213            -4.1663828284 
 H60           -2.7906349408             4.3082194545            -3.1617487675 
 H85           -2.0348521141             4.7415365836            -0.8447288027 
 H86           -1.9419490505             3.8963932526             4.0148751709 
 H87            1.7611807445             4.9987404295             2.2060930649 
 H88            1.0776751623             3.1739226983            -0.9559983716 
 H89            1.5352270609             6.1184104303            -0.2738871887 
 H66            0.2697749297             5.4760421477            -1.3382732122 
 H67            1.9760569765             5.3375756157            -1.8076181966 
 H68           -3.0787626772             1.8942862994             1.1422888029 
 H69           -3.7522658628             2.8111945246             3.9915512593 
 H70           -4.5072079010             1.5109655150             3.0693575034 
 H71           -2.8339854852             1.3336471772             3.6040254630 
 H72            1.4131079554             5.5909393205             4.3812448917 
 H73            3.2476892777             4.4862249072             0.7682618864 
 H74            3.4622204739             3.5588928735            -0.7128833729 
 H75            2.9008169032             2.7486355436             0.7723461526 
 H76           -4.1315048673             4.5809889192             2.1647489553 
 H77           -5.1252222331             3.3182159139             1.4072082570 
 H78           -3.8709113556             4.1445367431             0.4657419065 
 H79           -0.3970571588             3.6456478069             5.9132441235 
 H80            0.9674095381             4.5539728836             6.5859902568 
 H81            1.2463148520             3.2950056058             5.3618725592 
 H82           -1.5189225583             5.9070148732             5.2303341326 
 H83           -0.6144474427             7.0464850531             4.2190631349 
 H84           -0.1322696842             6.7740784830             5.9080532166 
 X              0.9700295633#            0.8616685100#            3.4734670097#
  
  Molecular weight:     769.34 amu
   
  Stoichiometry: PdC45PNH59F
  Molecular Point Group: C1      
  Point Group used: C1
  
 
Number of optimization coordinates:   378
Number of independent coordinates:    375
Number of non-redundant coordinates:  321
Number of frozen coordinates:           3
Number of harmonic constraints:         0
 
Number of geometric degrees of freedom:   318
Maximum geometric degrees of freedom:     321
 " " " " " excluding dummy atoms:         318
 
 
  bond lengths (angstroms):
 
 P1      -Pd2     :   2.282084      P1      -C3      :   1.873758
 P1      -C4      :   1.877534      P1      -C5      :   1.852794
 Pd2     -N2      :   2.224149      Pd2     -C19     :   2.028518
 Pd2     -C34     :   2.229101      Pd2     -X       :   2.015030
 N2      -H30     :   1.020879      N2      -C34     :   1.365910
 N2      -X       :   1.233448      C16     -C17     :   1.386826
 C16     -C21     :   1.388664      C16     -F10     :   1.353102
 C17     -C18     :   1.398183      C17     -H23     :   1.087645
 C18     -C19     :   1.401675      C18     -H24     :   1.085850
 C19     -C20     :   1.406359      C20     -C21     :   1.397038
 C20     -H25     :   1.089104      C21     -H26     :   1.087954
 C31     -C32     :   1.379435      C31     -C36     :   1.415286
 C31     -H37     :   1.087505      C32     -C33     :   1.412180
 C32     -H38     :   1.087773      C33     -C34     :   1.440639
 C33     -H39     :   1.087947      C33     -X       :   1.261469
 C34     -C35     :   1.433276      C34     -X       :   0.455097
 C35     -C36     :   1.376315      C35     -H40     :   1.086888
 C36     -H41     :   1.088855      C3      -C6      :   1.533428
 C3      -C10     :   1.535409      C3      -H36     :   1.096503
 C4      -C11     :   1.542220      C4      -C15     :   1.539485
 C4      -H47     :   1.101826      C5      -C40     :   1.408012
 C5      -C44     :   1.415321      C6      -C7      :   1.535039
 C6      -H61     :   1.100669      C6      -H62     :   1.095844
 C7      -C8      :   1.530504      C7      -H63     :   1.098328
 C7      -H64     :   1.098056      C8      -C9      :   1.530730
 C8      -H65     :   1.101094      C8      -H42     :   1.097949
 C9      -C10     :   1.530043      C9      -H43     :   1.098909
 C9      -H44     :   1.098224      C10     -H45     :   1.094434
 C10     -H46     :   1.098475      C11     -C12     :   1.533185
 C11     -H48     :   1.092223      C11     -H49     :   1.095297
 C12     -C13     :   1.530214      C12     -H50     :   1.097868
 C12     -H51     :   1.101294      C13     -C14     :   1.530932
 C13     -H52     :   1.097986      C13     -H53     :   1.100032
 C14     -C15     :   1.532729      C14     -H54     :   1.097904
 C14     -H55     :   1.101601      C15     -H56     :   1.093544
 C15     -H57     :   1.094003      C40     -C41     :   1.390925
 C40     -H58     :   1.085443      C41     -C42     :   1.392252
 C41     -H59     :   1.087875      C42     -C43     :   1.390456
 C42     -H60     :   1.087643      C43     -C44     :   1.406316
 C43     -H85     :   1.087424      C44     -C45     :   1.503651
 C45     -C22     :   1.414743      C45     -C26     :   1.411405
 C22     -C23     :   1.396019      C22     -C29     :   1.520038
 C23     -C24     :   1.396789      C23     -H86     :   1.086601
 C24     -C25     :   1.392700      C24     -C55     :   1.517468
 C25     -C26     :   1.400175      C25     -H87     :   1.087494
 C26     -C27     :   1.521851      C27     -C28     :   1.535015
 C27     -C56     :   1.534836      C27     -H88     :   1.096040
 C28     -H89     :   1.097224      C28     -H66     :   1.094564
 C28     -H67     :   1.097338      C29     -C30     :   1.532112
 C29     -C57     :   1.537041      C29     -H68     :   1.096392
 C30     -H69     :   1.097122      C30     -H70     :   1.095497
 C30     -H71     :   1.093837      C55     -C58     :   1.535605
 C55     -C59     :   1.534229      C55     -H72     :   1.099001
 C56     -H73     :   1.096654      C56     -H74     :   1.096016
 C56     -H75     :   1.095030      C57     -H76     :   1.097290
 C57     -H77     :   1.097260      C57     -H78     :   1.093760
 C58     -H79     :   1.097387      C58     -H80     :   1.097171
 C58     -H81     :   1.095334      C59     -H82     :   1.097113
 C59     -H83     :   1.095795      C59     -H84     :   1.096939
 
  bond angles:
 
 C3      -P1      -Pd2     : 106.986889  C4      -P1      -Pd2     : 118.280468
 C4      -P1      -C3      : 105.645983  C5      -P1      -Pd2     : 117.019554
 C5      -P1      -C3      : 101.668350  C5      -P1      -C4      : 105.443841
 N2      -Pd2     -P1      :  98.205705  C19     -Pd2     -P1      :  98.171007
 C19     -Pd2     -N2      : 162.013129  C34     -Pd2     -P1      : 130.108112
 C34     -Pd2     -N2      :  35.723375  C34     -Pd2     -C19     : 126.290742
 X       -Pd2     -P1      : 131.409237  X       -Pd2     -N2      :  33.368974
 X       -Pd2     -C19     : 129.362336  X       -Pd2     -C34     :  10.873484
 H30     -N2      -Pd2     :  95.497568  C34     -N2      -Pd2     :  72.336017
 C34     -N2      -H30     : 109.354651  X       -N2      -Pd2     :  63.969116
 X       -N2      -H30     :  92.232159  X       -N2      -C34     :  19.310358
 C21     -C16     -C17     : 121.562585  F10     -C16     -C17     : 119.255309
 F10     -C16     -C21     : 119.182106  C18     -C17     -C16     : 118.613262
 H23     -C17     -C16     : 119.689380  H23     -C17     -C18     : 121.691743
 C19     -C18     -C17     : 122.129343  H24     -C18     -C17     : 117.856695
 H24     -C18     -C19     : 120.011000  C18     -C19     -Pd2     : 127.290617
 C20     -C19     -Pd2     : 115.656351  C20     -C19     -C18     : 117.048616
 C21     -C20     -C19     : 121.945107  H25     -C20     -C19     : 119.940389
 H25     -C20     -C21     : 118.112672  C20     -C21     -C16     : 118.692684
 H26     -C21     -C16     : 119.553630  H26     -C21     -C20     : 121.753641
 C36     -C31     -C32     : 119.628630  H37     -C31     -C32     : 120.499448
 H37     -C31     -C36     : 119.871877  C33     -C32     -C31     : 120.536901
 H38     -C32     -C31     : 120.462909  H38     -C32     -C33     : 118.992733
 C34     -C33     -C32     : 120.575398  H39     -C33     -C32     : 119.780840
 H39     -C33     -C34     : 118.582657  X       -C33     -C32     : 138.240008
 X       -C33     -C34     :  17.852472  X       -C33     -H39     : 101.602230
 N2      -C34     -Pd2     :  71.940608  C33     -C34     -Pd2     :  76.867819
 C33     -C34     -N2      : 121.855854  C35     -C34     -Pd2     : 114.047600
 C35     -C34     -N2      : 120.232487  C35     -C34     -C33     : 117.021596
 X       -C34     -Pd2     :  56.641227  X       -C34     -N2      :  63.669936
 X       -C34     -C33     :  58.185918  X       -C34     -C35     : 169.463114
 C36     -C35     -C34     : 120.883579  H40     -C35     -C34     : 117.443551
 H40     -C35     -C36     : 121.656908  C35     -C36     -C31     : 121.272254
 H41     -C36     -C31     : 119.254513  H41     -C36     -C35     : 119.472913
 C6      -C3      -P1      : 116.499785  C10     -C3      -P1      : 113.308326
 C10     -C3      -C6      : 110.290250  H36     -C3      -P1      : 100.163625
 H36     -C3      -C6      : 109.300113  H36     -C3      -C10     : 106.261519
 C11     -C4      -P1      : 110.742980  C15     -C4      -P1      : 115.594452
 C15     -C4      -C11     : 108.354516  H47     -C4      -P1      : 105.369928
 H47     -C4      -C11     : 107.825075  H47     -C4      -C15     : 108.660059
 C40     -C5      -P1      : 117.713821  C44     -C5      -P1      : 124.063983
 C44     -C5      -C40     : 118.128390  C7      -C6      -C3      : 110.431826
 H61     -C6      -C3      : 109.748572  H61     -C6      -C7      : 109.232684
 H62     -C6      -C3      : 111.009090  H62     -C6      -C7      : 109.403498
 H62     -C6      -H61     : 106.936878  C8      -C7      -C6      : 112.106960
 H63     -C7      -C6      : 108.573475  H63     -C7      -C8      : 109.118027
 H64     -C7      -C6      : 109.697810  H64     -C7      -C8      : 110.532534
 H64     -C7      -H63     : 106.639398  C9      -C8      -C7      : 111.257054
 H65     -C8      -C7      : 109.146330  H65     -C8      -C9      : 108.933519
 H42     -C8      -C7      : 110.191445  H42     -C8      -C9      : 110.635788
 H42     -C8      -H65     : 106.543792  C10     -C9      -C8      : 110.700016
 H43     -C9      -C8      : 110.167935  H43     -C9      -C10     : 108.866977
 H44     -C9      -C8      : 110.326551  H44     -C9      -C10     : 109.879198
 H44     -C9      -H43     : 106.811889  C9      -C10     -C3      : 109.914343
 H45     -C10     -C3      : 110.209065  H45     -C10     -C9      : 110.767909
 H46     -C10     -C3      : 109.737752  H46     -C10     -C9      : 108.287087
 H46     -C10     -H45     : 107.875115  C12     -C11     -C4      : 110.724405
 H48     -C11     -C4      : 111.660500  H48     -C11     -C12     : 109.842412
 H49     -C11     -C4      : 108.474068  H49     -C11     -C12     : 109.572186
 H49     -C11     -H48     : 106.451019  C13     -C12     -C11     : 111.345708
 H50     -C12     -C11     : 109.470175  H50     -C12     -C13     : 110.419776
 H51     -C12     -C11     : 109.426835  H51     -C12     -C13     : 109.465251
 H51     -C12     -H50     : 106.593279  C14     -C13     -C12     : 110.779284
 H52     -C13     -C12     : 110.579640  H52     -C13     -C14     : 110.647126
 H53     -C13     -C12     : 108.947400  H53     -C13     -C14     : 108.849624
 H53     -C13     -H52     : 106.929051  C15     -C14     -C13     : 110.969702
 H54     -C14     -C13     : 110.448451  H54     -C14     -C15     : 109.571633
 H55     -C14     -C13     : 109.569767  H55     -C14     -C15     : 109.569191
 H55     -C14     -H54     : 106.611784  C14     -C15     -C4      : 110.511631
 H56     -C15     -C4      : 108.404696  H56     -C15     -C14     : 108.750019
 H57     -C15     -C4      : 112.134931  H57     -C15     -C14     : 110.214388
 H57     -C15     -H56     : 106.680553  C41     -C40     -C5      : 122.433931
 H58     -C40     -C5      : 119.596446  H58     -C40     -C41     : 117.960249
 C42     -C41     -C40     : 119.427941  H59     -C41     -C40     : 119.745115
 H59     -C41     -C42     : 120.825266  C43     -C42     -C41     : 118.914674
 H60     -C42     -C41     : 120.884717  H60     -C42     -C43     : 120.189517
 C44     -C43     -C42     : 122.652635  H85     -C43     -C42     : 119.646652
 H85     -C43     -C44     : 117.690362  C43     -C44     -C5      : 118.380213
 C45     -C44     -C5      : 127.422400  C45     -C44     -C43     : 114.051256
 C22     -C45     -C44     : 121.098335  C26     -C45     -C44     : 118.524095
 C26     -C45     -C22     : 119.675905  C23     -C22     -C45     : 118.995160
 C29     -C22     -C45     : 121.388746  C29     -C22     -C23     : 119.555965
 C24     -C23     -C22     : 122.334841  H86     -C23     -C22     : 118.858766
 H86     -C23     -C24     : 118.805850  C25     -C24     -C23     : 117.656244
 C55     -C24     -C23     : 121.361473  C55     -C24     -C25     : 120.972479
 C26     -C25     -C24     : 122.324762  H87     -C25     -C24     : 118.493722
 H87     -C25     -C26     : 119.168478  C25     -C26     -C45     : 118.988510
 C27     -C26     -C45     : 122.263725  C27     -C26     -C25     : 118.744239
 C28     -C27     -C26     : 110.639226  C56     -C27     -C26     : 112.374491
 C56     -C27     -C28     : 110.461349  H88     -C27     -C26     : 107.966332
 H88     -C27     -C28     : 107.353199  H88     -C27     -C56     : 107.844176
 H89     -C28     -C27     : 110.498401  H66     -C28     -C27     : 111.278992
 H66     -C28     -H89     : 108.067840  H67     -C28     -C27     : 110.621493
 H67     -C28     -H89     : 108.104731  H67     -C28     -H66     : 108.158368
 C30     -C29     -C22     : 113.419973  C57     -C29     -C22     : 110.576078
 C57     -C29     -C30     : 109.719937  H68     -C29     -C22     : 107.018368
 H68     -C29     -C30     : 108.049006  H68     -C29     -C57     : 107.843299
 H69     -C30     -C29     : 111.643451  H70     -C30     -C29     : 110.035635
 H70     -C30     -H69     : 107.109345  H71     -C30     -C29     : 111.501467
 H71     -C30     -H69     : 108.873681  H71     -C30     -H70     : 107.493068
 C58     -C55     -C24     : 111.132350  C59     -C55     -C24     : 111.851568
 C59     -C55     -C58     : 111.024921  H72     -C55     -C24     : 107.255644
 H72     -C55     -C58     : 107.604060  H72     -C55     -C59     : 107.744167
 H73     -C56     -C27     : 111.630655  H74     -C56     -C27     : 110.117791
 H74     -C56     -H73     : 106.826304  H75     -C56     -C27     : 111.329088
 H75     -C56     -H73     : 107.890571  H75     -C56     -H74     : 108.893547
 H76     -C57     -C29     : 110.292041  H77     -C57     -C29     : 110.482509
 H77     -C57     -H76     : 108.094900  H78     -C57     -C29     : 111.766617
 H78     -C57     -H76     : 108.073350  H78     -C57     -H77     : 108.011123
 H79     -C58     -C55     : 111.038750  H80     -C58     -C55     : 110.787467
 H80     -C58     -H79     : 107.681073  H81     -C58     -C55     : 111.291501
 H81     -C58     -H79     : 107.517898  H81     -C58     -H80     : 108.375765
 H82     -C59     -C55     : 111.223619  H83     -C59     -C55     : 111.172123
 H83     -C59     -H82     : 107.792298  H84     -C59     -C55     : 110.618519
 H84     -C59     -H82     : 107.579809  H84     -C59     -H83     : 108.312469
 N2      -X       -Pd2     :  82.661910  C33     -X       -Pd2     :  89.250124
 C33     -X       -N2      : 159.018683  C34     -X       -Pd2     : 112.485290
 C34     -X       -N2      :  97.019706  C34     -X       -C33     : 103.961611
 
  torsional angles:
 
 P1      -Pd2     -N2      -H30     :  95.307315
 P1      -Pd2     -N2      -C34     :-156.104078
 P1      -Pd2     -N2      -X       :-174.890962
 P1      -Pd2     -C19     -C18     : -60.056288
 P1      -Pd2     -C19     -C20     : 120.736432
 P1      -Pd2     -C34     -N2      :  31.614874
 P1      -Pd2     -C34     -C33     : 161.863876
 P1      -Pd2     -C34     -C35     : -84.134519
 P1      -Pd2     -C34     -X       : 101.501160
 P1      -Pd2     -X       -N2      :   6.748934
 P1      -Pd2     -X       -C33     : 167.340501
 P1      -Pd2     -X       -C34     : -87.842789
 P1      -C3      -C6      -C7      : 171.748093
 P1      -C3      -C6      -H61     : -67.772541
 P1      -C3      -C6      -H62     :  50.225394
 P1      -C3      -C10     -C9      :-167.706157
 P1      -C3      -C10     -H45     : -45.346481
 P1      -C3      -C10     -H46     :  73.310851
 P1      -C4      -C11     -C12     :-173.174256
 P1      -C4      -C11     -H48     : -50.439211
 P1      -C4      -C11     -H49     :  66.558356
 P1      -C4      -C15     -C14     : 175.318319
 P1      -C4      -C15     -H56     : -65.591546
 P1      -C4      -C15     -H57     :  51.920080
 P1      -C5      -C40     -C41     :-179.176114
 P1      -C5      -C40     -H58     :  -0.313178
 P1      -C5      -C44     -C43     : 178.851736
 P1      -C5      -C44     -C45     :   3.529843
 Pd2     -P1      -C3      -C6      :-173.012429
 Pd2     -P1      -C3      -C10     :  57.439351
 Pd2     -P1      -C3      -H36     : -55.328899
 Pd2     -P1      -C4      -C11     : -40.385555
 Pd2     -P1      -C4      -C15     :  83.309219
 Pd2     -P1      -C4      -H47     :-156.717819
 Pd2     -P1      -C5      -C40     :-159.514060
 Pd2     -P1      -C5      -C44     :  24.081035
 Pd2     -N2      -C34     -C33     : -61.055776
 Pd2     -N2      -C34     -C35     : 107.821985
 Pd2     -N2      -C34     -X       : -61.055776
 Pd2     -N2      -X       -C33     : -68.120260
 Pd2     -N2      -X       -C34     : 111.879740
 Pd2     -C19     -C18     -C17     :-179.145095
 Pd2     -C19     -C18     -H24     :   1.494598
 Pd2     -C19     -C20     -C21     : 179.940639
 Pd2     -C19     -C20     -H25     :   0.442395
 Pd2     -C34     -N2      -H30     :  89.696698
 Pd2     -C34     -N2      -X       :  61.055776
 Pd2     -C34     -C33     -C32     : 113.946518
 Pd2     -C34     -C33     -H39     : -77.857498
 Pd2     -C34     -C33     -X       : -58.684942
 Pd2     -C34     -C35     -C36     : -89.768495
 Pd2     -C34     -C35     -H40     :  91.661241
 Pd2     -C34     -X       -N2      : -84.933603
 Pd2     -C34     -X       -C33     :  95.066397
 Pd2     -X       -N2      -H30     :  95.029187
 Pd2     -X       -N2      -C34     :-111.879740
 Pd2     -X       -C33     -C32     : 103.465317
 Pd2     -X       -C33     -C34     : 113.008536
 Pd2     -X       -C33     -H39     : -84.113336
 Pd2     -X       -C34     -N2      :  84.933603
 Pd2     -X       -C34     -C33     : -95.066397
 Pd2     -X       -C34     -C35     : -29.367107
 N2      -Pd2     -P1      -C3      :  24.527667
 N2      -Pd2     -P1      -C4      : 143.511788
 N2      -Pd2     -P1      -C5      : -88.623844
 N2      -Pd2     -C19     -C18     : 144.548919
 N2      -Pd2     -C19     -C20     : -34.658361
 N2      -Pd2     -C34     -C33     : 130.249002
 N2      -Pd2     -C34     -C35     :-115.749394
 N2      -Pd2     -C34     -X       :  69.886286
 N2      -Pd2     -X       -C33     : 160.591567
 N2      -Pd2     -X       -C34     : -94.591723
 N2      -C34     -Pd2     -C19     : 179.727393
 N2      -C34     -Pd2     -X       : -69.886286
 N2      -C34     -C33     -C32     : 172.631460
 N2      -C34     -C33     -H39     : -19.172556
 N2      -C34     -C33     -X       :   0.000001
 N2      -C34     -C35     -C36     :-172.133753
 N2      -C34     -C35     -H40     :   9.295983
 N2      -C34     -X       -C33     : 180.000000
 N2      -X       -Pd2     -C19     : 172.338893
 N2      -X       -Pd2     -C34     :  94.591723
 N2      -X       -C33     -C32     : 170.456781
 N2      -X       -C33     -C34     :-179.999999
 N2      -X       -C33     -H39     : -17.121872
 N2      -X       -C34     -C33     : 179.999999
 N2      -X       -C34     -C35     :-114.300710
 C16     -C17     -C18     -C19     :  -0.809941
 C16     -C17     -C18     -H24     : 178.563527
 C16     -C21     -C20     -C19     :  -0.569794
 C16     -C21     -C20     -H25     : 178.937255
 C17     -C16     -C21     -C20     :  -0.229271
 C17     -C16     -C21     -H26     : 179.694813
 C17     -C18     -C19     -C20     :   0.052584
 C18     -C17     -C16     -C21     :   0.899213
 C18     -C17     -C16     -F10     :-179.107165
 C18     -C19     -Pd2     -C34     : 144.033473
 C18     -C19     -Pd2     -X       : 130.812474
 C18     -C19     -C20     -C21     :   0.648754
 C18     -C19     -C20     -H25     :-178.849490
 C19     -Pd2     -P1      -C3      :-148.008370
 C19     -Pd2     -P1      -C4      : -29.024250
 C19     -Pd2     -P1      -C5      :  98.840119
 C19     -Pd2     -N2      -H30     :-109.300178
 C19     -Pd2     -N2      -C34     :  -0.711572
 C19     -Pd2     -N2      -X       : -19.498455
 C19     -Pd2     -C34     -C33     : -50.023605
 C19     -Pd2     -C34     -C35     :  63.977999
 C19     -Pd2     -C34     -X       :-110.386322
 C19     -Pd2     -X       -C33     : -27.069541
 C19     -Pd2     -X       -C34     :  77.747169
 C19     -C18     -C17     -H23     :-179.944876
 C19     -C20     -C21     -H26     : 179.507869
 C20     -C19     -Pd2     -C34     : -35.173808
 C20     -C19     -Pd2     -X       : -48.394807
 C20     -C19     -C18     -H24     :-179.307723
 C20     -C21     -C16     -F10     : 179.777103
 C21     -C16     -C17     -H23     :-179.948090
 F10     -C16     -C17     -H23     :   0.045532
 F10     -C16     -C21     -H26     :  -0.298813
 H23     -C17     -C18     -H24     :  -0.571407
 H25     -C20     -C21     -H26     :  -0.985082
 H30     -N2      -Pd2     -C34     :-108.588606
 H30     -N2      -Pd2     -X       : -89.801723
 H30     -N2      -C34     -C33     :  28.640922
 H30     -N2      -C34     -C35     :-162.481317
 H30     -N2      -C34     -X       :  28.640922
 H30     -N2      -X       -C33     :  26.908927
 H30     -N2      -X       -C34     :-153.091073
 C31     -C32     -C33     -C34     :  -2.569361
 C31     -C32     -C33     -H39     :-170.624642
 C31     -C32     -C33     -X       :   0.815026
 C31     -C36     -C35     -C34     :   1.176546
 C31     -C36     -C35     -H40     : 179.685893
 C32     -C31     -C36     -C35     :  -0.188854
 C32     -C31     -C36     -H41     :-179.982003
 C32     -C33     -C34     -C35     :   3.414444
 C32     -C33     -C34     -X       : 172.631460
 C32     -C33     -X       -C34     :  -9.543219
 C33     -C32     -C31     -C36     :   0.888097
 C33     -C32     -C31     -H37     :-179.189331
 C33     -C34     -Pd2     -X       :  60.362716
 C33     -C34     -N2      -X       :   0.000000
 C33     -C34     -C35     -C36     :  -2.732260
 C33     -C34     -C35     -H40     : 178.697477
 C33     -X       -Pd2     -C34     :-104.816710
 C33     -X       -N2      -C34     : 180.000000
 C33     -X       -C34     -C35     :  65.699290
 C34     -Pd2     -P1      -C3      :   6.514474
 C34     -Pd2     -P1      -C4      : 125.498594
 C34     -Pd2     -P1      -C5      :-106.637037
 C34     -Pd2     -N2      -X       : -18.786883
 C34     -N2      -Pd2     -X       :  18.786883
 C34     -C33     -C32     -H38     : 178.419376
 C34     -C35     -C36     -H41     :-179.030748
 C34     -X       -C33     -H39     : 162.878128
 C35     -C34     -Pd2     -X       : 174.364321
 C35     -C34     -N2      -X       : 168.877761
 C35     -C34     -C33     -H39     : 171.610428
 C35     -C34     -C33     -X       :-169.217016
 C35     -C36     -C31     -H37     : 179.888082
 C36     -C31     -C32     -H38     : 179.884764
 C36     -C35     -C34     -X       : -63.118691
 H37     -C31     -C32     -H38     :  -0.192664
 H37     -C31     -C36     -H41     :   0.094933
 H38     -C32     -C33     -H39     :  10.364095
 H38     -C32     -C33     -X       :-178.196238
 H39     -C33     -C34     -X       : -19.172556
 H40     -C35     -C34     -X       : 118.311045
 H40     -C35     -C36     -H41     :  -0.521401
 C3      -P1      -Pd2     -X       :  20.783165
 C3      -P1      -C4      -C11     :  79.297107
 C3      -P1      -C4      -C15     :-157.008119
 C3      -P1      -C4      -H47     : -37.035157
 C3      -P1      -C5      -C40     :  84.370512
 C3      -P1      -C5      -C44     : -92.034393
 C3      -C6      -C7      -C8      :  54.484854
 C3      -C6      -C7      -H63     : -66.140297
 C3      -C6      -C7      -H64     : 177.682103
 C3      -C10     -C9      -C8      : -58.624748
 C3      -C10     -C9      -H43     :  62.615180
 C3      -C10     -C9      -H44     : 179.268127
 C4      -P1      -Pd2     -X       : 139.767285
 C4      -P1      -C3      -C6      :  60.116217
 C4      -P1      -C3      -C10     : -69.432003
 C4      -P1      -C3      -H36     : 177.799747
 C4      -P1      -C5      -C40     : -25.674189
 C4      -P1      -C5      -C44     : 157.920906
 C4      -C11     -C12     -C13     : -57.335504
 C4      -C11     -C12     -H50     :-179.711573
 C4      -C11     -C12     -H51     :  63.809558
 C4      -C15     -C14     -C13     :  58.624567
 C4      -C15     -C14     -H54     :-179.143723
 C4      -C15     -C14     -H55     : -62.502775
 C5      -P1      -Pd2     -X       : -92.368346
 C5      -P1      -C3      -C6      : -49.773720
 C5      -P1      -C3      -C10     :-179.321940
 C5      -P1      -C3      -H36     :  67.909810
 C5      -P1      -C4      -C11     :-173.529086
 C5      -P1      -C4      -C15     : -49.834311
 C5      -P1      -C4      -H47     :  70.138651
 C5      -C40     -C41     -C42     :   0.637067
 C5      -C40     -C41     -H59     :-179.830280
 C5      -C44     -C43     -C42     :  -0.580230
 C5      -C44     -C43     -H85     :-179.404299
 C5      -C44     -C45     -C22     : -96.950354
 C5      -C44     -C45     -C26     :  92.680168
 C6      -C3      -C10     -C9      :  59.662677
 C6      -C3      -C10     -H45     :-177.977647
 C6      -C3      -C10     -H46     : -59.320315
 C6      -C7      -C8      -C9      : -53.689305
 C6      -C7      -C8      -H65     :  66.549662
 C6      -C7      -C8      -H42     :-176.781086
 C7      -C6      -C3      -C10     : -57.278102
 C7      -C6      -C3      -H36     :  59.196369
 C7      -C8      -C9      -C10     :  55.567001
 C7      -C8      -C9      -H43     : -64.900990
 C7      -C8      -C9      -H44     : 177.411852
 C8      -C7      -C6      -H61     : -66.302845
 C8      -C7      -C6      -H62     : 176.953459
 C8      -C9      -C10     -H45     : 179.347250
 C8      -C9      -C10     -H46     :  61.244431
 C9      -C8      -C7      -H63     :  66.619892
 C9      -C8      -C7      -H64     :-176.415094
 C9      -C10     -C3      -H36     : -58.690872
 C10     -C3      -C6      -H61     :  63.201265
 C10     -C3      -C6      -H62     :-178.800800
 C10     -C9      -C8      -H65     : -64.797640
 C10     -C9      -C8      -H42     : 178.403785
 C11     -C4      -C15     -C14     : -59.744276
 C11     -C4      -C15     -H56     :  59.345859
 C11     -C4      -C15     -H57     : 176.857485
 C11     -C12     -C13     -C14     :  54.711194
 C11     -C12     -C13     -H52     : 177.757968
 C11     -C12     -C13     -H53     : -64.999779
 C12     -C11     -C4      -C15     :  59.065833
 C12     -C11     -C4      -H47     : -58.371742
 C12     -C13     -C14     -C15     : -55.286704
 C12     -C13     -C14     -H54     :-177.006929
 C12     -C13     -C14     -H55     :  65.840299
 C13     -C12     -C11     -H48     : 178.879108
 C13     -C12     -C11     -H49     :  62.274480
 C13     -C14     -C15     -H56     : -60.256061
 C13     -C14     -C15     -H57     :-176.872123
 C14     -C13     -C12     -H50     : 176.537954
 C14     -C13     -C12     -H51     : -66.411415
 C14     -C15     -C4      -H47     :  57.157077
 C15     -C4      -C11     -H48     :-178.199122
 C15     -C4      -C11     -H49     : -61.201556
 C15     -C14     -C13     -H52     :-178.294430
 C15     -C14     -C13     -H53     :  64.482858
 C40     -C5      -C44     -C43     :   2.460661
 C40     -C5      -C44     -C45     :-172.861232
 C40     -C41     -C42     -C43     :   1.323150
 C40     -C41     -C42     -H60     :-179.886159
 C41     -C40     -C5      -C44     :  -2.552930
 C41     -C42     -C43     -C44     :  -1.354217
 C41     -C42     -C43     -H85     : 177.447686
 C42     -C41     -C40     -H58     :-178.243569
 C42     -C43     -C44     -C45     : 175.352409
 C43     -C42     -C41     -H59     :-178.204329
 C43     -C44     -C45     -C22     :  87.556450
 C43     -C44     -C45     -C26     : -82.813028
 C44     -C5      -C40     -H58     : 176.310006
 C44     -C43     -C42     -H60     : 179.846465
 C44     -C45     -C22     -C23     :-171.771755
 C44     -C45     -C22     -C29     :   5.395111
 C44     -C45     -C26     -C25     : 171.525219
 C44     -C45     -C26     -C27     :  -7.782662
 C45     -C44     -C43     -H85     :  -3.471659
 C45     -C22     -C23     -C24     :   0.576380
 C45     -C22     -C23     -H86     :-179.152353
 C45     -C22     -C29     -C30     : 146.534021
 C45     -C22     -C29     -C57     : -89.729211
 C45     -C22     -C29     -H68     :  27.476385
 C45     -C26     -C25     -C24     :   0.454109
 C45     -C26     -C25     -H87     : 179.120128
 C45     -C26     -C27     -C28     :  99.346060
 C45     -C26     -C27     -C56     :-136.666361
 C45     -C26     -C27     -H88     : -17.860100
 C22     -C45     -C26     -C25     :   1.015250
 C22     -C45     -C26     -C27     :-178.292631
 C22     -C23     -C24     -C25     :   0.845465
 C22     -C23     -C24     -C55     :-178.026010
 C22     -C29     -C30     -H69     :  69.852024
 C22     -C29     -C30     -H70     :-171.357667
 C22     -C29     -C30     -H71     : -52.178270
 C22     -C29     -C57     -H76     : -60.252964
 C22     -C29     -C57     -H77     :-179.699295
 C22     -C29     -C57     -H78     :  59.998526
 C23     -C22     -C45     -C26     :  -1.511693
 C23     -C22     -C29     -C30     : -36.314714
 C23     -C22     -C29     -C57     :  87.422053
 C23     -C22     -C29     -H68     :-155.372351
 C23     -C24     -C25     -C26     :  -1.371372
 C23     -C24     -C25     -H87     : 179.953988
 C23     -C24     -C55     -C58     :  63.910842
 C23     -C24     -C55     -C59     : -60.798647
 C23     -C24     -C55     -H72     :-178.728966
 C24     -C23     -C22     -C29     :-176.643359
 C24     -C25     -C26     -C27     : 179.786600
 C24     -C55     -C58     -H79     : -64.353174
 C24     -C55     -C58     -H80     : 176.037464
 C24     -C55     -C58     -H81     :  55.384289
 C24     -C55     -C59     -H82     :  64.200986
 C24     -C55     -C59     -H83     : -55.927582
 C24     -C55     -C59     -H84     :-176.307237
 C25     -C24     -C23     -H86     :-179.425664
 C25     -C24     -C55     -C58     :-114.923336
 C25     -C24     -C55     -C59     : 120.367175
 C25     -C24     -C55     -H72     :   2.436857
 C25     -C26     -C27     -C28     : -79.963446
 C25     -C26     -C27     -C56     :  44.024134
 C25     -C26     -C27     -H88     : 162.830394
 C26     -C45     -C22     -C29     : 175.655173
 C26     -C25     -C24     -C55     : 177.504728
 C26     -C27     -C28     -H89     :  60.193097
 C26     -C27     -C28     -H66     : -59.868733
 C26     -C27     -C28     -H67     : 179.873103
 C26     -C27     -C56     -H73     : -70.106841
 C26     -C27     -C56     -H74     : 171.410724
 C26     -C27     -C56     -H75     :  50.531064
 C27     -C26     -C25     -H87     :  -1.547381
 C28     -C27     -C56     -H73     :  53.979464
 C28     -C27     -C56     -H74     : -64.502972
 C28     -C27     -C56     -H75     : 174.617369
 C29     -C22     -C23     -H86     :   3.627907
 C30     -C29     -C57     -H76     :  65.589661
 C30     -C29     -C57     -H77     : -53.856670
 C30     -C29     -C57     -H78     :-174.158849
 C55     -C24     -C23     -H86     :   1.702861
 C55     -C24     -C25     -H87     :  -1.169912
 C56     -C27     -C28     -H89     : -64.885110
 C56     -C27     -C28     -H66     : 175.053060
 C56     -C27     -C28     -H67     :  54.794896
 C57     -C29     -C30     -H69     : -54.350976
 C57     -C29     -C30     -H70     :  64.439333
 C57     -C29     -C30     -H71     :-176.381269
 C58     -C55     -C59     -H82     : -60.568215
 C58     -C55     -C59     -H83     : 179.303217
 C58     -C55     -C59     -H84     :  58.923562
 C59     -C55     -C58     -H79     :  60.820895
 C59     -C55     -C58     -H80     : -58.788466
 C59     -C55     -C58     -H81     :-179.441641
 H36     -C3      -C6      -H61     : 179.675736
 H36     -C3      -C6      -H62     : -62.326329
 H36     -C3      -C10     -H45     :  63.668803
 H36     -C3      -C10     -H46     :-177.673864
 H61     -C6      -C7      -H63     : 173.072004
 H61     -C6      -C7      -H64     :  56.894404
 H62     -C6      -C7      -H63     :  56.328308
 H62     -C6      -C7      -H64     : -59.849292
 H63     -C7      -C8      -H65     :-173.141141
 H63     -C7      -C8      -H42     : -56.471888
 H64     -C7      -C8      -H65     : -56.176127
 H64     -C7      -C8      -H42     :  60.493126
 H65     -C8      -C9      -H43     : 174.734370
 H65     -C8      -C9      -H44     :  57.047212
 H42     -C8      -C9      -H43     :  57.935794
 H42     -C8      -C9      -H44     : -59.751364
 H43     -C9      -C10     -H45     : -59.412822
 H43     -C9      -C10     -H46     :-177.515642
 H44     -C9      -C10     -H45     :  57.240125
 H44     -C9      -C10     -H46     : -60.862694
 H47     -C4      -C11     -H48     :  64.363303
 H47     -C4      -C11     -H49     :-178.639130
 H47     -C4      -C15     -H56     : 176.247212
 H47     -C4      -C15     -H57     : -66.241162
 H48     -C11     -C12     -H50     :  56.503039
 H48     -C11     -C12     -H51     : -59.975830
 H49     -C11     -C12     -H50     : -60.101589
 H49     -C11     -C12     -H51     :-176.580458
 H50     -C12     -C13     -H52     : -60.415272
 H50     -C12     -C13     -H53     :  56.826982
 H51     -C12     -C13     -H52     :  56.635359
 H51     -C12     -C13     -H53     : 173.877613
 H52     -C13     -C14     -H54     :  59.985346
 H52     -C13     -C14     -H55     : -57.167427
 H53     -C13     -C14     -H54     : -57.237366
 H53     -C13     -C14     -H55     :-174.390138
 H54     -C14     -C15     -H56     :  61.975649
 H54     -C14     -C15     -H57     : -54.640413
 H55     -C14     -C15     -H56     : 178.616597
 H55     -C14     -C15     -H57     :  62.000535
 H58     -C40     -C41     -H59     :   1.289085
 H59     -C41     -C42     -H60     :   0.586362
 H60     -C42     -C43     -H85     :  -1.351632
 H88     -C27     -C28     -H89     : 177.775930
 H88     -C27     -C28     -H66     :  57.714100
 H88     -C27     -C28     -H67     : -62.544064
 H88     -C27     -C56     -H73     : 171.015232
 H88     -C27     -C56     -H74     :  52.532796
 H88     -C27     -C56     -H75     : -68.346863
 H68     -C29     -C30     -H69     :-171.683617
 H68     -C29     -C30     -H70     : -52.893308
 H68     -C29     -C30     -H71     :  66.286090
 H68     -C29     -C57     -H76     :-176.949150
 H68     -C29     -C57     -H77     :  63.604519
 H68     -C29     -C57     -H78     : -56.697660
 H72     -C55     -C58     -H79     : 178.498984
 H72     -C55     -C58     -H80     :  58.889622
 H72     -C55     -C58     -H81     : -61.763553
 H72     -C55     -C59     -H82     :-178.161036
 H72     -C55     -C59     -H83     :  61.710396
 H72     -C55     -C59     -H84     : -58.669259
 
  nuclear repulsion energy.......          7878.957014171 hartrees
  
  Detected an organometallic with only one TM atom. 
  
  Oxidation state on metal       2 is     2
  Formal multiplet on metal      2 is     1
  Formal charge on ligand        3 is    -1
  Formal multiplet on ligand     3 is     1
  Formal charge on ligand        4 is    -1
  Formal multiplet on ligand     4 is     1
  
 
  Will use High-Quality Initial guess for organometallics
       including d-d repulsion (iguess=30)
 
 Non-default options chosen:
   SCF calculation type: DFT(b3pw91-d3)              
   DFT=Becke_3_Parameter/HF+Slater+Becke88+PW91+PW-GGAIIC (B3PW91-D3)
   Geometry will be optimized in redundant internal coordinates
      user-selected coordinates frozen
   Solvation energy will be computed using PBF
     -solute cavity energy will not be included
     -surface area terms will not be included
   Vibrational frequencies and related properties will be computed
      from analytic second derivatives
   IR intensities will be computed
   Thermochemical properties will be computed
   Maximum number of geometry steps: 100
   Scaling standard convergence criteria by a factor of   5.00
   Solvent: benzene                                                         
   Internal dielectric constant:    1.000
   Continuum dielectric constant:   2.283
   Solvent probe molecule radius:   2.600
  
 Non-default print settings:
     11=  2
  
 Temporary integer options set:
     21= -1  73=  2
  
  atom       vdw   vdw2    cov     mass  grid  daf  charge   basis
  P1        2.147  2.074  1.060   30.974    Y    Y      Y    ps_6-31g*
  Pd2       1.450  1.450  1.280  105.903    Y    Y      Y    lacv3p*
  N2        1.831  1.600  0.750   14.003    Y    Y      Y    ps_6-31g*
  C16       1.949  1.900  0.770   12.000    Y    Y      Y    ps_6-31g*
  C17       1.949  1.900  0.770   12.000    Y    Y      Y    ps_6-31g*
  C18       1.949  1.900  0.770   12.000    Y    Y      Y    ps_6-31g*
  C19       1.949  1.900  0.770   12.000    Y    Y      Y    ps_6-31g*
  C20       1.949  1.900  0.770   12.000    Y    Y      Y    ps_6-31g*
  C21       1.949  1.900  0.770   12.000    Y    Y      Y    ps_6-31g*
  F10       1.736  1.682  0.720   18.998    Y    Y      Y    ps_6-31g*
  H23       1.597  1.150  0.320    1.008    Y    Y      Y    ps_6-31g*
  H24       1.597  1.150  0.320    1.008    Y    Y      Y    ps_6-31g*
  H25       1.597  1.150  0.320    1.008    Y    Y      Y    ps_6-31g*
  H26       1.597  1.150  0.320    1.008    Y    Y      Y    ps_6-31g*
  H30       1.597  1.150  0.320    1.008    Y    Y      Y    ps_6-31g*
  C31       1.949  1.900  0.770   12.000    Y    Y      Y    ps_6-31g*
  C32       1.949  1.900  0.770   12.000    Y    Y      Y    ps_6-31g*
  C33       1.949  1.900  0.770   12.000    Y    Y      Y    ps_6-31g*
  C34       1.949  1.900  0.770   12.000    Y    Y      Y    ps_6-31g*
  C35       1.949  1.900  0.770   12.000    Y    Y      Y    ps_6-31g*
  C36       1.949  1.900  0.770   12.000    Y    Y      Y    ps_6-31g*
  H37       1.597  1.150  0.320    1.008    Y    Y      Y    ps_6-31g*
  H38       1.597  1.150  0.320    1.008    Y    Y      Y    ps_6-31g*
  H39       1.597  1.150  0.320    1.008    Y    Y      Y    ps_6-31g*
  H40       1.597  1.150  0.320    1.008    Y    Y      Y    ps_6-31g*
  H41       1.597  1.150  0.320    1.008    Y    Y      Y    ps_6-31g*
  C3        1.949  1.900  0.770   12.000    Y    Y      Y    ps_6-31g*
  C4        1.949  1.900  0.770   12.000    Y    Y      Y    ps_6-31g*
  C5        1.949  1.900  0.770   12.000    Y    Y      Y    ps_6-31g*
  C6        1.949  1.900  0.770   12.000    Y    Y      Y    ps_6-31g*
  C7        1.949  1.900  0.770   12.000    Y    Y      Y    ps_6-31g*
  C8        1.949  1.900  0.770   12.000    Y    Y      Y    ps_6-31g*
  C9        1.949  1.900  0.770   12.000    Y    Y      Y    ps_6-31g*
  C10       1.949  1.900  0.770   12.000    Y    Y      Y    ps_6-31g*
  C11       1.949  1.900  0.770   12.000    Y    Y      Y    ps_6-31g*
  C12       1.949  1.900  0.770   12.000    Y    Y      Y    ps_6-31g*
  C13       1.949  1.900  0.770   12.000    Y    Y      Y    ps_6-31g*
  C14       1.949  1.900  0.770   12.000    Y    Y      Y    ps_6-31g*
  C15       1.949  1.900  0.770   12.000    Y    Y      Y    ps_6-31g*
  C40       1.949  1.900  0.770   12.000    Y    Y      Y    ps_6-31g*
  C41       1.949  1.900  0.770   12.000    Y    Y      Y    ps_6-31g*
  C42       1.949  1.900  0.770   12.000    Y    Y      Y    ps_6-31g*
  C43       1.949  1.900  0.770   12.000    Y    Y      Y    ps_6-31g*
  C44       1.949  1.900  0.770   12.000    Y    Y      Y    ps_6-31g*
  C45       1.949  1.900  0.770   12.000    Y    Y      Y    ps_6-31g*
  C22       1.949  1.900  0.770   12.000    Y    Y      Y    ps_6-31g*
  C23       1.949  1.900  0.770   12.000    Y    Y      Y    ps_6-31g*
  C24       1.949  1.900  0.770   12.000    Y    Y      Y    ps_6-31g*
  C25       1.949  1.900  0.770   12.000    Y    Y      Y    ps_6-31g*
  C26       1.949  1.900  0.770   12.000    Y    Y      Y    ps_6-31g*
  C27       1.949  1.900  0.770   12.000    Y    Y      Y    ps_6-31g*
  C28       1.949  1.900  0.770   12.000    Y    Y      Y    ps_6-31g*
  C29       1.949  1.900  0.770   12.000    Y    Y      Y    ps_6-31g*
  C30       1.949  1.900  0.770   12.000    Y    Y      Y    ps_6-31g*
  C55       1.949  1.900  0.770   12.000    Y    Y      Y    ps_6-31g*
  C56       1.949  1.900  0.770   12.000    Y    Y      Y    ps_6-31g*
  C57       1.949  1.900  0.770   12.000    Y    Y      Y    ps_6-31g*
  C58       1.949  1.900  0.770   12.000    Y    Y      Y    ps_6-31g*
  C59       1.949  1.900  0.770   12.000    Y    Y      Y    ps_6-31g*
  H36       1.597  1.150  0.320    1.008    Y    Y      Y    ps_6-31g*
  H61       1.597  1.150  0.320    1.008    Y    Y      Y    ps_6-31g*
  H62       1.597  1.150  0.320    1.008    Y    Y      Y    ps_6-31g*
  H63       1.597  1.150  0.320    1.008    Y    Y      Y    ps_6-31g*
  H64       1.597  1.150  0.320    1.008    Y    Y      Y    ps_6-31g*
  H65       1.597  1.150  0.320    1.008    Y    Y      Y    ps_6-31g*
  H42       1.597  1.150  0.320    1.008    Y    Y      Y    ps_6-31g*
  H43       1.597  1.150  0.320    1.008    Y    Y      Y    ps_6-31g*
  H44       1.597  1.150  0.320    1.008    Y    Y      Y    ps_6-31g*
  H45       1.597  1.150  0.320    1.008    Y    Y      Y    ps_6-31g*
  H46       1.597  1.150  0.320    1.008    Y    Y      Y    ps_6-31g*
  H47       1.597  1.150  0.320    1.008    Y    Y      Y    ps_6-31g*
  H48       1.597  1.150  0.320    1.008    Y    Y      Y    ps_6-31g*
  H49       1.597  1.150  0.320    1.008    Y    Y      Y    ps_6-31g*
  H50       1.597  1.150  0.320    1.008    Y    Y      Y    ps_6-31g*
  H51       1.597  1.150  0.320    1.008    Y    Y      Y    ps_6-31g*
  H52       1.597  1.150  0.320    1.008    Y    Y      Y    ps_6-31g*
  H53       1.597  1.150  0.320    1.008    Y    Y      Y    ps_6-31g*
  H54       1.597  1.150  0.320    1.008    Y    Y      Y    ps_6-31g*
  H55       1.597  1.150  0.320    1.008    Y    Y      Y    ps_6-31g*
  H56       1.597  1.150  0.320    1.008    Y    Y      Y    ps_6-31g*
  H57       1.597  1.150  0.320    1.008    Y    Y      Y    ps_6-31g*
  H58       1.597  1.150  0.320    1.008    Y    Y      Y    ps_6-31g*
  H59       1.597  1.150  0.320    1.008    Y    Y      Y    ps_6-31g*
  H60       1.597  1.150  0.320    1.008    Y    Y      Y    ps_6-31g*
  H85       1.597  1.150  0.320    1.008    Y    Y      Y    ps_6-31g*
  H86       1.597  1.150  0.320    1.008    Y    Y      Y    ps_6-31g*
  H87       1.597  1.150  0.320    1.008    Y    Y      Y    ps_6-31g*
  H88       1.597  1.150  0.320    1.008    Y    Y      Y    ps_6-31g*
  H89       1.597  1.150  0.320    1.008    Y    Y      Y    ps_6-31g*
  H66       1.597  1.150  0.320    1.008    Y    Y      Y    ps_6-31g*
  H67       1.597  1.150  0.320    1.008    Y    Y      Y    ps_6-31g*
  H68       1.597  1.150  0.320    1.008    Y    Y      Y    ps_6-31g*
  H69       1.597  1.150  0.320    1.008    Y    Y      Y    ps_6-31g*
  H70       1.597  1.150  0.320    1.008    Y    Y      Y    ps_6-31g*
  H71       1.597  1.150  0.320    1.008    Y    Y      Y    ps_6-31g*
  H72       1.597  1.150  0.320    1.008    Y    Y      Y    ps_6-31g*
  H73       1.597  1.150  0.320    1.008    Y    Y      Y    ps_6-31g*
  H74       1.597  1.150  0.320    1.008    Y    Y      Y    ps_6-31g*
  H75       1.597  1.150  0.320    1.008    Y    Y      Y    ps_6-31g*
  H76       1.597  1.150  0.320    1.008    Y    Y      Y    ps_6-31g*
  H77       1.597  1.150  0.320    1.008    Y    Y      Y    ps_6-31g*
  H78       1.597  1.150  0.320    1.008    Y    Y      Y    ps_6-31g*
  H79       1.597  1.150  0.320    1.008    Y    Y      Y    ps_6-31g*
  H80       1.597  1.150  0.320    1.008    Y    Y      Y    ps_6-31g*
  H81       1.597  1.150  0.320    1.008    Y    Y      Y    ps_6-31g*
  H82       1.597  1.150  0.320    1.008    Y    Y      Y    ps_6-31g*
  H83       1.597  1.150  0.320    1.008    Y    Y      Y    ps_6-31g*
  H84       1.597  1.150  0.320    1.008    Y    Y      Y    ps_6-31g*
  X         0.529  0.529  0.529    0.000    N    N      N    
 
  atom      formal  2spin      esp    mulk    frag
  P1           0       0        Y    0.000       0
  Pd2          2       0        Y    0.000       0
  N2          -1       0        Y    0.000       0
  C16         -1       0        Y    0.000       0
  X                          0.000   0.000       0
  
  end of program pre
   
 Time(pre)  user:       1.090  user+sys:       1.090  wallclock:       1.426
  
  start of program onee
  
  smallest eigenvalue of S:    2.862E-04
  number of canonical orbitals.....          822
  end of program onee
   
 Time(onee)  user:       8.618  user+sys:       8.618  wallclock:       6.724
  
  start of program hfig
  
  initial wavefunction generated automatically from atomic wavefunctions
  Only one state below 0.010000
  Skip d-d repulsion considerations 
 
  Irreducible     Total no   No of occupied orbitals 
  representation  orbitals   Shell_1  Shell_2    ...
  No Symm          822        189
  ------------------------
  Orbital occupation/shell    1.000
 
  end of program hfig
   
 Time(hfig)  user:       1.846  user+sys:       1.846  wallclock:       2.155
  
  start of program probe
  
  end of program probe
   
 Time(probe)  user:       1.087  user+sys:       1.087  wallclock:       0.933
  
  start of program grid
  
   grid     grid set  grid #  grid sym
  ------    --------  ------  --------
  coarse        0        0        1
  medium        2        1        1
  fine          0        0        1
  ultrafine     4        2        1
  charge       -1        3        1
  gradient      4        2        1
  density       0        0        1
  DFT-fine    -11        4        1
  DFT-med.    -10        5        1
  DFT-grad    -12        6        1
  DFT-der2     -8        7        1
  DFT-cphf     -9        8        1
  LMP2-enrg     4        2        1
  LMP2-grad     2        1        1
  DFT-cphf2   -15        9        1
  PBF-dens      0        0        1
  plotting      0        0        1
  Rel-grad    -17        0        1
  
  number of gridpoints: 
     atom           P1         Pd2          N2         C16         C17         C18         C19
  grid # 1         613         352         108          79          93          95         100
  grid # 2         431         304         373         330         321         319         390
  grid # 3           9         210          29          39          21           9          10
  grid # 4        8714        8714        8714        8714        8714        8714        8714
  grid # 5        1192        1192        1192        1192        1192        1192        1192
  grid # 6        9132        9132        5922        5922        5922        5922        5922
  grid # 7       23034       32968       13958       13950       13950       13950       13950
  grid # 8         722        1150         756         748         748         748         748
  grid # 9         366        2198         406         394         394         394         394
   
  number of gridpoints: 
     atom          C20         C21         F10         H23         H24         H25         H26
  grid # 1          95          93         584         114         104         112         116
  grid # 2         324         320         566         462         425         446         462
  grid # 3          17          29         350         359          81         160         390
  grid # 4        8714        8714        8714        8714        8714        8714        8714
  grid # 5        1192        1192        1192        1192        1192        1192        1192
  grid # 6        5922        5922        5922        5922        5922        5922        5922
  grid # 7       13950       13950       23190       15206       15206       15206       15206
  grid # 8         748         748         770         786         786         786         786
  grid # 9         394         394         420         420         420         420         420
   
  number of gridpoints: 
     atom          H30         C31         C32         C33         C34         C35         C36
  grid # 1         102          96          95          92          94          94          96
  grid # 2         407         322         322         323         352         324         323
  grid # 3          45          26          20          11          20          25          29
  grid # 4        8714        8714        8714        8714        8714        8714        8714
  grid # 5        1192        1192        1192        1192        1192        1192        1192
  grid # 6        5922        5922        5922        5922        5922        5922        5922
  grid # 7       15206       13950       13950       13950       13950       13950       13950
  grid # 8         786         748         748         748         748         748         748
  grid # 9         420         394         394         394         394         394         394
   
  number of gridpoints: 
     atom          H37         H38         H39         H40         H41          C3          C4
  grid # 1         117         116         104         113         117          81          80
  grid # 2         466         459         415         449         466         327         328
  grid # 3         385         330          28         261         400           6           6
  grid # 4        8714        8714        8714        8714        8714        8714        8714
  grid # 5        1192        1192        1192        1192        1192        1192        1192
  grid # 6        5922        5922        5922        5922        5922        5922        5922
  grid # 7       15206       15206       15206       15206       15206       13950       13950
  grid # 8         786         786         786         786         786         748         748
  grid # 9         420         420         420         420         420         394         394
   
  number of gridpoints: 
     atom           C5          C6          C7          C8          C9         C10         C11
  grid # 1          93          92          92          92          92          91          90
  grid # 2         384         278         277         279         277         276         281
  grid # 3          11           6           6           6           6           6           6
  grid # 4        8714        8714        8714        8714        8714        8714        8714
  grid # 5        1192        1192        1192        1192        1192        1192        1192
  grid # 6        5922        5922        5922        5922        5922        5922        5922
  grid # 7       13950       13950       13950       13950       13950       13950       13950
  grid # 8         748         748         748         748         748         748         748
  grid # 9         394         394         394         394         394         394         394
   
  number of gridpoints: 
     atom          C12         C13         C14         C15         C40         C41         C42
  grid # 1          92          92          92          92          93          95          95
  grid # 2         279         278         279         279         324         324         323
  grid # 3           6           6           6           6          11          31          31
  grid # 4        8714        8714        8714        8714        8714        8714        8714
  grid # 5        1192        1192        1192        1192        1192        1192        1192
  grid # 6        5922        5922        5922        5922        5922        5922        5922
  grid # 7       13950       13950       13950       13950       13950       13950       13950
  grid # 8         748         748         748         748         748         748         748
  grid # 9         394         394         394         394         394         394         394
   
  number of gridpoints: 
     atom          C43         C44         C45         C22         C23         C24         C25
  grid # 1          94          99          99          97          94          99          94
  grid # 2         322         355         360         360         324         358         323
  grid # 3          11           7           8          11          17          14          19
  grid # 4        8714        8714        8714        8714        8714        8714        8714
  grid # 5        1192        1192        1192        1192        1192        1192        1192
  grid # 6        5922        5922        5922        5922        5922        5922        5922
  grid # 7       13950       13950       13950       13950       13950       13950       13950
  grid # 8         748         748         748         748         748         748         748
  grid # 9         394         394         394         394         394         394         394
   
  number of gridpoints: 
     atom          C26         C27         C28         C29         C30         C55         C56
  grid # 1          99          90          81          91          79          90          79
  grid # 2         359         303         239         301         244         304         242
  grid # 3          11           6           6           6           6           6           6
  grid # 4        8714        8714        8714        8714        8714        8714        8714
  grid # 5        1192        1192        1192        1192        1192        1192        1192
  grid # 6        5922        5922        5922        5922        5922        5922        5922
  grid # 7       13950       13950       13950       13950       13950       13950       13950
  grid # 8         748         748         748         748         748         748         748
  grid # 9         394         394         394         394         394         394         394
   
  number of gridpoints: 
     atom          C57         C58         C59         H36         H61         H62         H63
  grid # 1          81          81          79          94         105         105         106
  grid # 2         236         239         242         407         434         434         428
  grid # 3           6           6           6          15         158         127         113
  grid # 4        8714        8714        8714        8714        8714        8714        8714
  grid # 5        1192        1192        1192        1192        1192        1192        1192
  grid # 6        5922        5922        5922        5922        5922        5922        5922
  grid # 7       13950       13950       13950       15206       15206       15206       15206
  grid # 8         748         748         748         786         786         786         786
  grid # 9         394         394         394         420         420         420         420
   
  number of gridpoints: 
     atom          H64         H65         H42         H43         H44         H45         H46
  grid # 1         112         110         112         108         112         102         102
  grid # 2         455         452         458         440         454         427         424
  grid # 3         322         261         327         169         308          74         118
  grid # 4        8714        8714        8714        8714        8714        8714        8714
  grid # 5        1192        1192        1192        1192        1192        1192        1192
  grid # 6        5922        5922        5922        5922        5922        5922        5922
  grid # 7       15206       15206       15206       15206       15206       15206       15206
  grid # 8         786         786         786         786         786         786         786
  grid # 9         420         420         420         420         420         420         420
   
  number of gridpoints: 
     atom          H47         H48         H49         H50         H51         H52         H53
  grid # 1          99         102         103         112         110         112         109
  grid # 2         419         425         420         454         450         456         445
  grid # 3          57         113          73         322         252         331         208
  grid # 4        8714        8714        8714        8714        8714        8714        8714
  grid # 5        1192        1192        1192        1192        1192        1192        1192
  grid # 6        5922        5922        5922        5922        5922        5922        5922
  grid # 7       15206       15206       15206       15206       15206       15206       15206
  grid # 8         786         786         786         786         786         786         786
  grid # 9         420         420         420         420         420         420         420
   
  number of gridpoints: 
     atom          H54         H55         H56         H57         H58         H59         H60
  grid # 1         112         110         103         105         105         118         118
  grid # 2         455         448         417         435         429         465         466
  grid # 3         317         249          60         159         114         410         405
  grid # 4        8714        8714        8714        8714        8714        8714        8714
  grid # 5        1192        1192        1192        1192        1192        1192        1192
  grid # 6        5922        5922        5922        5922        5922        5922        5922
  grid # 7       15206       15206       15206       15206       15206       15206       15206
  grid # 8         786         786         786         786         786         786         786
  grid # 9         420         420         420         420         420         420         420
   
  number of gridpoints: 
     atom          H85         H86         H87         H88         H89         H66         H67
  grid # 1         110         103         106         103         108         107         110
  grid # 2         438         422         437         418         453         442         453
  grid # 3         175          74         148          50         270         202         310
  grid # 4        8714        8714        8714        8714        8714        8714        8714
  grid # 5        1192        1192        1192        1192        1192        1192        1192
  grid # 6        5922        5922        5922        5922        5922        5922        5922
  grid # 7       15206       15206       15206       15206       15206       15206       15206
  grid # 8         786         786         786         786         786         786         786
  grid # 9         420         420         420         420         420         420         420
   
  number of gridpoints: 
     atom          H68         H69         H70         H71         H72         H73         H74
  grid # 1         102         105         108         102         108         105         104
  grid # 2         422         437         441         426         444         442         432
  grid # 3          62         226         215          92         219         236         188
  grid # 4        8714        8714        8714        8714        8714        8714        8714
  grid # 5        1192        1192        1192        1192        1192        1192        1192
  grid # 6        5922        5922        5922        5922        5922        5922        5922
  grid # 7       15206       15206       15206       15206       15206       15206       15206
  grid # 8         786         786         786         786         786         786         786
  grid # 9         420         420         420         420         420         420         420
   
  number of gridpoints: 
     atom          H75         H76         H77         H78         H79         H80         H81
  grid # 1         102         109         110         106         106         109         105
  grid # 2         424         451         451         440         438         456         443
  grid # 3          98         275         311         179         181         322         212
  grid # 4        8714        8714        8714        8714        8714        8714        8714
  grid # 5        1192        1192        1192        1192        1192        1192        1192
  grid # 6        5922        5922        5922        5922        5922        5922        5922
  grid # 7       15206       15206       15206       15206       15206       15206       15206
  grid # 8         786         786         786         786         786         786         786
  grid # 9         420         420         420         420         420         420         420
   
  number of gridpoints: 
     atom          H82         H83         H84           X       total
  grid # 1         108         110         109           0       12115
  grid # 2         445         460         456           0       41573
  grid # 3         242         342         321           0       13613
  grid # 4        8714        8714        8714           0      941112
  grid # 5        1192        1192        1192           0      128736
  grid # 6        5922        5922        5922           0      645996
  grid # 7       15206       15206       15206           0     1618054
[...]
    H65      X     0.00002  -0.00002   0.00001  -0.00001  -0.00000   0.00001
    H65      Y     0.00005   0.00000   0.00017  -0.00010   0.00004  -0.00008
    H65      Z     0.00004   0.00000   0.00009  -0.00006   0.00004  -0.00005
    H42      X    -0.00035   0.00050   0.00007   0.00002   0.00024  -0.00009
    H42      Y    -0.00012   0.00007   0.00004   0.00001  -0.00005  -0.00001
    H42      Z     0.00010  -0.00003  -0.00007  -0.00001   0.00006   0.00002
    H43      X     0.00007   0.00003   0.00005  -0.00007   0.00004  -0.00015
    H43      Y     0.00019   0.00015   0.00022  -0.00023   0.00014  -0.00023
    H43      Z     0.00004   0.00007   0.00015  -0.00009   0.00008  -0.00009
    H44      X    -0.00026   0.00017   0.00023  -0.00010  -0.00006  -0.00001
    H44      Y     0.00035  -0.00019  -0.00035   0.00009  -0.00005  -0.00005
    H44      Z    -0.00020   0.00012   0.00017  -0.00004   0.00006   0.00000
    H45      X    -0.00110  -0.00005   0.00128   0.00008  -0.00007   0.00007
    H45      Y    -0.00064  -0.00009   0.00070   0.00013  -0.00022   0.00031
    H45      Z     0.00533   0.00045  -0.00671  -0.00046   0.00099   0.00021
    H46      X     0.00029   0.00001  -0.00021  -0.00003   0.00010  -0.00004
    H46      Y     0.00160   0.00015  -0.00120  -0.00028   0.00072  -0.00013
    H46      Z     0.00097   0.00007  -0.00075  -0.00018   0.00033  -0.00018
    H47      X     0.00002  -0.00104  -0.00002  -0.00136  -0.00101   0.00002
    H47      Y     0.00000  -0.00083   0.00015  -0.00008  -0.00196   0.00024
    H47      Z    -0.00007   0.00423   0.00018   0.00178   0.00666   0.00035
    H48      X     0.00064   0.00080  -0.00087  -0.00200   0.00087   0.00008
    H48      Y    -0.00003  -0.00002   0.00001   0.00007  -0.00009  -0.00000
    H48      Z     0.00005   0.00013  -0.00006  -0.00034   0.00015  -0.00001
    H49      X     0.00003   0.00017   0.00008  -0.00128   0.00037  -0.00004
    H49      Y     0.00001  -0.00012  -0.00002   0.00010  -0.00015  -0.00009
    H49      Z    -0.00008  -0.00027  -0.00010   0.00281  -0.00074  -0.00004
    H50      X    -0.00004   0.00013  -0.00011  -0.00023   0.00015   0.00000
    H50      Y     0.00009  -0.00039   0.00037   0.00044  -0.00022   0.00003
    H50      Z    -0.00004   0.00022  -0.00019  -0.00026   0.00022  -0.00003
    H51      X     0.00005   0.00004   0.00001  -0.00002  -0.00001  -0.00005
    H51      Y    -0.00000   0.00004  -0.00001  -0.00003   0.00006   0.00002
    H51      Z    -0.00010  -0.00009  -0.00001  -0.00004   0.00007   0.00015
    H52      X     0.00004  -0.00012   0.00003   0.00004  -0.00003   0.00004
    H52      Y     0.00010  -0.00056   0.00015   0.00041  -0.00041   0.00010
    H52      Z     0.00007  -0.00030   0.00009   0.00016  -0.00016   0.00008
    H53      X     0.00009   0.00001  -0.00000  -0.00004   0.00004  -0.00006
    H53      Y     0.00001   0.00003  -0.00001  -0.00004   0.00004  -0.00003
    H53      Z    -0.00016  -0.00002   0.00000   0.00020  -0.00009   0.00009
    H54      X     0.00018  -0.00009   0.00003  -0.00102   0.00111   0.00011
    H54      Y     0.00001   0.00001   0.00002  -0.00013   0.00014   0.00003
    H54      Z     0.00003  -0.00001  -0.00001  -0.00025   0.00010   0.00000
    H55      X     0.00002   0.00035  -0.00005  -0.00079   0.00060  -0.00007
    H55      Y     0.00000   0.00011   0.00002   0.00036   0.00018   0.00001
    H55      Z    -0.00007  -0.00084   0.00012   0.00220  -0.00163   0.00014
    H56      X    -0.00003  -0.00028  -0.00019  -0.00661   0.00013   0.00000
    H56      Y     0.00000  -0.00037  -0.00010  -0.00254  -0.00057  -0.00004
    H56      Z     0.00011   0.00098   0.00045   0.01534   0.00053  -0.00012
    H57      X     0.00006   0.00311  -0.00010   0.00118   0.00562   0.00016
    H57      Y    -0.00012  -0.00569   0.00020  -0.00183  -0.01104  -0.00024
    H57      Z     0.00006   0.00327  -0.00015   0.00016   0.00628   0.00017
    H58      X    -0.00018  -0.06622   0.00103  -0.00210  -0.14334  -0.00003
    H58      Y     0.00089   0.34160  -0.00529   0.01097   0.72942  -0.00010
    H58      Z     0.00043   0.16620  -0.00254   0.00521   0.34912  -0.00019
    H59      X    -0.00026  -0.06090  -0.00072   0.00208   0.10434   0.00003
    H59      Y    -0.00021  -0.04962  -0.00051   0.00150   0.07313  -0.00005
    H59      Z    -0.00099  -0.23184  -0.00267   0.00765   0.38501   0.00004
    H60      X    -0.00132  -0.31174  -0.00054   0.00263   0.10105  -0.00007
    H60      Y     0.00223   0.52866   0.00093  -0.00446  -0.17320   0.00009
    H60      Z    -0.00160  -0.37985  -0.00065   0.00314   0.12157  -0.00013
    H85      X    -0.00024  -0.05071  -0.00010   0.00034   0.01278   0.00010
    H85      Y     0.00165   0.37759   0.00074  -0.00238  -0.09656  -0.00032
    H85      Z     0.00076   0.17423   0.00033  -0.00112  -0.04510   0.00001
    H86      X    -0.02653  -0.00403  -0.00744  -0.00347   0.00206  -0.00152
    H86      Y     0.00025   0.00004   0.00019  -0.00001  -0.00003   0.00015
    H86      Z     0.03346   0.00522   0.00930   0.00459  -0.00272   0.00148
    H87      X    -0.00123   0.00244  -0.00224  -0.00031  -0.00204   0.00288
    H87      Y    -0.00059   0.00126  -0.00111  -0.00019  -0.00103   0.00232
    H87      Z    -0.00010   0.00024  -0.00016  -0.00002  -0.00021   0.00011
    H88      X    -0.00003   0.00007   0.00002  -0.00003   0.00015  -0.00003
    H88      Y    -0.00000   0.00040   0.00010  -0.00012  -0.00007  -0.00077
    H88      Z    -0.00001   0.00031   0.00010  -0.00011  -0.00008  -0.00107
    H89      X    -0.00003  -0.00051   0.00000  -0.00001   0.00012  -0.00013
    H89      Y    -0.00008  -0.00144  -0.00002  -0.00007   0.00030  -0.00028
    H89      Z    -0.00007  -0.00134  -0.00003  -0.00005   0.00028  -0.00002
    H66      X     0.00016  -0.00660  -0.00009  -0.00026   0.00154  -0.00015
    H66      Y    -0.00003   0.00123   0.00003   0.00006  -0.00025   0.00000
    H66      Z     0.00006  -0.00253  -0.00005  -0.00010   0.00056  -0.00000
    H67      X    -0.00007  -0.00086  -0.00024  -0.00001  -0.00024   0.00024
    H67      Y    -0.00002   0.00004  -0.00004   0.00000  -0.00007   0.00023
    H67      Z     0.00009   0.00089   0.00031   0.00002   0.00032  -0.00052
    H68      X    -0.00006   0.00000  -0.00004  -0.00094  -0.00003  -0.00025
    H68      Y    -0.00006   0.00013  -0.00010  -0.00274  -0.00022  -0.00089
    H68      Z    -0.00005   0.00003  -0.00005  -0.00073  -0.00013  -0.00090
    H69      X    -0.00032  -0.00007  -0.00009   0.00013   0.00002   0.00025
    H69      Y     0.00198   0.00047   0.00042  -0.00249  -0.00016  -0.00045
    H69      Z     0.00189   0.00048   0.00044  -0.00145  -0.00021  -0.00036
    H70      X     0.00036  -0.00025  -0.00002  -0.01085   0.00061  -0.00070
    H70      Y     0.00015  -0.00021  -0.00003  -0.00566   0.00035  -0.00041
    H70      Z     0.00007  -0.00003   0.00001  -0.00193   0.00009   0.00003
    H71      X    -0.00197  -0.00088  -0.00059   0.00008   0.00020   0.00011
    H71      Y     0.00153   0.00087   0.00035   0.00108  -0.00025   0.00004
    H71      Z    -0.00080  -0.00056  -0.00015   0.00037   0.00013   0.00029
    H72      X    -0.00002   0.00010  -0.00034  -0.00003  -0.00019   0.00033
    H72      Y     0.00005   0.00006  -0.00016  -0.00000  -0.00010   0.00019
    H72      Z     0.00000   0.00001   0.00005   0.00001   0.00001   0.00008
    H73      X    -0.00009   0.00023  -0.00006  -0.00008  -0.00003  -0.00021
    H73      Y    -0.00021   0.00045  -0.00017  -0.00014   0.00002  -0.00028
    H73      Z    -0.00013   0.00035  -0.00011  -0.00011  -0.00003  -0.00012
    H74      X     0.00001   0.00001  -0.00025   0.00004  -0.00053   0.00057
    H74      Y    -0.00000  -0.00006   0.00002   0.00003   0.00007  -0.00022
    H74      Z    -0.00003  -0.00001   0.00034  -0.00009   0.00068  -0.00037
    H75      X    -0.00002  -0.00014   0.00010  -0.00002   0.00004   0.00043
    H75      Y     0.00022   0.00067   0.00009  -0.00057  -0.00005  -0.00016
    H75      Z    -0.00014  -0.00050  -0.00008   0.00046  -0.00001  -0.00015
    H76      X    -0.00004  -0.00003  -0.00002  -0.00001   0.00000   0.00016
    H76      Y     0.00005  -0.00247  -0.00001  -0.00013   0.00050  -0.00021
    H76      Z     0.00002  -0.00213  -0.00002  -0.00012   0.00045  -0.00013
    H77      X     0.00029   0.00181   0.00019  -0.00090   0.00003  -0.00084
    H77      Y     0.00010   0.00092   0.00007  -0.00021  -0.00004  -0.00014
    H77      Z     0.00004  -0.00001   0.00001  -0.00007   0.00002  -0.00013
    H78      X     0.00006   0.00263  -0.00004  -0.00017  -0.00071   0.00006
    H78      Y     0.00017   0.00443  -0.00005  -0.00034  -0.00110  -0.00002
    H78      Z    -0.00034  -0.01072   0.00013   0.00076   0.00269   0.00005
    H79      X     0.00074  -0.00011  -0.00022  -0.00002  -0.00003  -0.00042
    H79      Y     0.00013  -0.00006  -0.00009  -0.00006   0.00000  -0.00014
    H79      Z     0.00011   0.00002   0.00022  -0.00000   0.00003   0.00011
    H80      X     0.00015   0.00006  -0.00024   0.00009  -0.00014   0.00019
    H80      Y     0.00032   0.00006  -0.00030   0.00015  -0.00017  -0.00007
    H80      Z     0.00045   0.00015  -0.00057   0.00024  -0.00036   0.00048
    H81      X    -0.00205  -0.00014  -0.00032  -0.00050   0.00013   0.00026
    H81      Y     0.00206   0.00015   0.00048   0.00047  -0.00011  -0.00001
    H81      Z     0.00092   0.00005   0.00024   0.00017  -0.00002   0.00008
    H82      X    -0.00096  -0.00016  -0.00040  -0.00028   0.00003  -0.00017
    H82      Y    -0.00040  -0.00007  -0.00015  -0.00011   0.00002  -0.00008
    H82      Z     0.00026   0.00004   0.00011   0.00008   0.00001  -0.00004
    H83      X    -0.00001  -0.00000   0.00000  -0.00001   0.00001   0.00006
    H83      Y     0.00014   0.00004   0.00003   0.00011   0.00000  -0.00019
    H83      Z    -0.00010  -0.00005  -0.00000  -0.00010   0.00002  -0.00001
    H84      X    -0.00021   0.00001  -0.00016  -0.00004  -0.00009   0.00007
    H84      Y    -0.00029   0.00005  -0.00024  -0.00004  -0.00016   0.00045
    H84      Z    -0.00051   0.00007  -0.00043  -0.00007  -0.00027   0.00059
    X        X     0.00000   0.00000   0.00000   0.00000   0.00000   0.00000
    X        Y     0.00000   0.00000   0.00000   0.00000   0.00000   0.00000
    X        Z     0.00000   0.00000   0.00000   0.00000   0.00000   0.00000
  
  Number of imaginary frequencies:   0
   
  Writing vibrational animation data to red_elim_L_trans_L1_PL146_2.vib
  Writing IR vibrational spectrum data to red_elim_L_trans_L1_PL146_2_vib.spm
  rotational symmetry number:  1

  rotational temperatures (K):      0.003336      0.002862      0.002419
   
  The Quasi-Harmonic approximation will be applied to compute
  vibrational constributions to thermodynamic properties.
  Frequencies will be adjusted to a minimum value of  100.00 cm^-1.

  vibrational temperatures:
       mode:      1        2        3        4        5        6
  temp. (K):   143.88   143.88   143.88   143.88   143.88   143.88
   
       mode:      7        8        9       10       11       12
  temp. (K):   143.88   143.88   143.88   143.88   143.88   143.88
   
       mode:     13       14       15       16       17       18
  temp. (K):   143.88   143.88   143.88   143.88   143.88   151.58
   
       mode:     19       20       21       22       23       24
  temp. (K):   160.34   164.32   173.76   185.09   192.68   194.88
   
       mode:     25       26       27       28       29       30
  temp. (K):   220.33   226.04   227.67   246.01   253.81   259.41
   
       mode:     31       32       33       34       35       36
  temp. (K):   287.43   291.91   297.80   303.26   310.42   312.71
   
       mode:     37       38       39       40       41       42
  temp. (K):   337.69   352.88   367.16   377.24   378.05   387.09
   
       mode:     43       44       45       46       47       48
  temp. (K):   389.36   397.14   402.74   422.41   432.83   436.86
   
       mode:     49       50       51       52       53       54
  temp. (K):   443.66   454.46   461.62   481.00   481.42   488.58
   
       mode:     55       56       57       58       59       60
  temp. (K):   498.92   505.95   524.78   549.68   566.16   568.89
   
       mode:     61       62       63       64       65       66
  temp. (K):   589.25   593.15   618.88   621.60   636.78   642.21
   
       mode:     67       68       69       70       71       72
  temp. (K):   642.71   655.59   661.15   685.45   696.76   715.50
   
       mode:     73       74       75       76       77       78
  temp. (K):   721.80   735.82   761.89   765.24   767.80   775.77
   
       mode:     79       80       81       82       83       84
  temp. (K):   779.79   788.51   807.48   828.48   855.90   874.26
   
       mode:     85       86       87       88       89       90
  temp. (K):   893.25   919.16   924.60   940.76   963.06   977.00
   
       mode:     91       92       93       94       95       96
  temp. (K):  1023.96  1041.94  1048.92  1081.66  1098.55  1120.47
   
       mode:     97       98       99      100      101      102
  temp. (K):  1121.75  1143.79  1157.47  1169.66  1173.92  1195.79
   
       mode:    103      104      105      106      107      108
  temp. (K):  1196.76  1198.45  1200.70  1208.46  1210.11  1212.61
   
       mode:    109      110      111      112      113      114
  temp. (K):  1217.71  1246.18  1260.93  1264.13  1266.10  1307.25
   
       mode:    115      116      117      118      119      120
  temp. (K):  1308.70  1313.65  1317.05  1318.31  1321.04  1324.28
   
       mode:    121      122      123      124      125      126
  temp. (K):  1328.16  1330.99  1359.28  1366.44  1368.01  1369.08
   
       mode:    127      128      129      130      131      132
  temp. (K):  1375.62  1376.04  1392.40  1402.64  1406.73  1413.21
   
       mode:    133      134      135      136      137      138
  temp. (K):  1416.79  1418.02  1421.45  1436.29  1438.15  1452.98
   
       mode:    139      140      141      142      143      144
  temp. (K):  1472.02  1473.73  1478.29  1481.59  1484.65  1499.61
   
       mode:    145      146      147      148      149      150
  temp. (K):  1524.27  1528.43  1540.12  1542.98  1551.31  1555.22
   
       mode:    151      152      153      154      155      156
  temp. (K):  1571.09  1584.12  1593.04  1593.64  1597.36  1601.66
   
       mode:    157      158      159      160      161      162
  temp. (K):  1607.44  1608.08  1616.63  1636.82  1641.09  1643.63
   
       mode:    163      164      165      166      167      168
  temp. (K):  1649.31  1651.59  1668.19  1673.49  1687.63  1717.24
   
       mode:    169      170      171      172      173      174
  temp. (K):  1722.08  1725.40  1730.13  1737.39  1741.44  1743.78
   
       mode:    175      176      177      178      179      180
  temp. (K):  1750.53  1755.33  1766.44  1790.44  1811.90  1831.52
   
       mode:    181      182      183      184      185      186
  temp. (K):  1837.99  1860.94  1871.15  1873.94  1878.73  1890.22
   
       mode:    187      188      189      190      191      192
  temp. (K):  1893.58  1895.53  1899.64  1901.99  1905.18  1909.89
   
       mode:    193      194      195      196      197      198
  temp. (K):  1922.85  1925.36  1926.40  1930.43  1934.12  1936.45
   
       mode:    199      200      201      202      203      204
  temp. (K):  1952.92  1954.20  1966.41  1970.53  1973.28  1975.44
   
       mode:    205      206      207      208      209      210
  temp. (K):  1990.71  1994.16  1997.52  2008.31  2012.93  2015.35
   
       mode:    211      212      213      214      215      216
  temp. (K):  2017.51  2021.07  2022.01  2023.47  2025.75  2048.21
   
       mode:    217      218      219      220      221      222
  temp. (K):  2051.07  2052.59  2053.49  2080.34  2081.79  2084.51
   
       mode:    223      224      225      226      227      228
  temp. (K):  2117.24  2135.05  2146.99  2161.04  2163.71  2172.06
   
       mode:    229      230      231      232      233      234
  temp. (K):  2173.05  2174.39  2176.20  2177.69  2178.25  2180.57
   
       mode:    235      236      237      238      239      240
  temp. (K):  2184.41  2185.32  2185.92  2187.73  2189.67  2192.96
   
       mode:    241      242      243      244      245      246
  temp. (K):  2200.03  2201.42  2201.84  2203.88  2206.99  2212.19
   
       mode:    247      248      249      250      251      252
  temp. (K):  2212.52  2215.00  2216.62  2218.61  2222.31  2294.45
   
       mode:    253      254      255      256      257      258
  temp. (K):  2338.11  2341.06  2360.95  2372.08  2382.03  2400.11
   
       mode:    259      260      261      262      263      264
  temp. (K):  2405.14  4336.68  4344.42  4349.43  4352.64  4362.67
   
       mode:    265      266      267      268      269      270
  temp. (K):  4366.01  4378.98  4379.24  4379.78  4380.52  4381.22
   
       mode:    271      272      273      274      275      276
  temp. (K):  4383.33  4383.81  4387.94  4388.73  4393.84  4413.94
   
       mode:    277      278      279      280      281      282
  temp. (K):  4426.32  4427.25  4430.19  4432.57  4441.52  4444.06
   
       mode:    283      284      285      286      287      288
  temp. (K):  4451.95  4454.96  4456.04  4461.97  4471.07  4483.50
   
       mode:    289      290      291      292      293      294
  temp. (K):  4484.29  4485.46  4491.93  4494.11  4496.36  4502.27
   
       mode:    295      296      297      298      299      300
  temp. (K):  4503.69  4511.04  4516.87  4518.87  4528.17  4533.87
   
       mode:    301      302      303      304      305      306
  temp. (K):  4536.85  4540.47  4571.20  4574.99  4585.40  4586.92
   
       mode:    307      308      309      310      311      312
  temp. (K):  4595.64  4599.66  4600.48  4602.37  4610.51  4611.35
   
       mode:    313      314      315      316      317      318
  temp. (K):  4617.88  4620.69  4626.46  4629.18  4635.86  5021.81
   
   
  Thermodynamic properties calculated assuming an ideal gas

  In the table below, the units for temperature
  are kelvins, the units for U, H, and G are
  kcal/mol and the units for Cv and S are cal/(mol K)

  The zero point energy (ZPE):    596.171 kcal/mol
  is not included in U, H, or G in the table below
  
 
  =============================================================================
  Thermodynamic properties for P = 1.00E+00 atm, calculated at   1 temperatures


  T =   298.15 K, P = 1.00E+00 atm
   
                  U         Cv          S          H          G        ln(Q)
              =========  =========  =========  =========  =========  =========
  trans.          0.889      2.981     45.800      1.481    -12.174   20.54742
  rot.            0.889      2.981     38.573      0.889    -10.612   17.91045
  vib.           28.117    187.813    170.396     28.117    -22.687   38.29099
  elec.           0.000      0.000      0.000      0.000      0.000    0.00000
  ----------------------------------------------------------------------------
  total          29.894    193.775    254.769     30.487    -45.473   76.74887
   
   Total internal energy, Utot(SCFE + ZPE + U):   -2371.546518 hartrees
   Total enthalpy, Htot (Utot + nRT), with n=1:   -2371.545574 hartrees
    Total Gibbs free energy, Gtot (Htot - T*S):   -2371.666623 hartrees
   
  end of program freq
   
 Time(freq)  user:       0.418  user+sys:       0.418  wallclock:       0.563
  
  start of program post
  
  Writing input files for PBF
  end of program post
   
 Time(post)  user:       0.182  user+sys:       0.182  wallclock:       0.157

 Total cpu seconds     user:  197336.472   user+sys:  197336.472
  
 Total elapsed time:    113250 seconds

Job red_elim_L_trans_L1_PL146_2 completed on bp1-compute149.data.bp.acrc.priv at Sat May  3 22:07:33 2025
