Job Br-F-Benzene started on bp1-compute032.data.bp.acrc.priv at Wed Nov  8 17:50:00 2023
jobid: bp1-compute032-0-654bca44

  +--------------------------------------------------------------------+
  |  Jaguar version 11.4, release 135                                  |
  |                                                                    |
  |  Copyright Schrodinger, Inc.                                       |
  |  All Rights Reserved.                                              |
  |                                                                    |
  |  The following have contributed to Jaguar (listed alphabetically): |
  |  Mike Beachy, Art Bochevarov, Dale Braden, Yixiang Cao,            |
  |  Alan Chien, Chris Cortis, Rich Friesner, Bill Goddard,            |
  |  Hod Greeley, Tom Hughes, Leif Jacobson, Jean-Marc Langlois,       |
  |  Daniel Levine, Daniel Mainz, Rob Murphy, Dean Philipp,            |
  |  Tom Pollard, Murco Ringnalda, Mark Watson, Haoyu Yu.              |
  |                                                                    |
  |  Use of this program should be acknowledged in publications as:    |
  |                                                                    |
  |  Jaguar, version 11.4, Schrodinger, Inc., New York, NY, 2021.      |
  |                                                                    |
  |  A. D. Bochevarov, E. Harder, T. F. Hughes, J. R. Greenwood,       |
  |  D. A. Braden, D. M. Philipp, D. Rinaldo, M. D. Halls,             |
  |  J. Zhang, R. A. Friesner, "Jaguar: A High-Performance Quantum     |
  |  Chemistry Software Program with Strengths in Life and Materials   |
  |  Sciences", Int. J. Quantum Chem., 2013, 113(18), 2110-2142.       |
  +--------------------------------------------------------------------+
  
  start of program pre
  
  Job name: Br-F-Benzene
  Executables used: /sw/apps/schrodinger2021-4/jaguar-v11.4/bin/Linux-x86_64
  Temporary files : /tmp/ar21627/Br-F-Benzene
  Maestro file (input):  Br-F-Benzene.mae
  Maestro file (output): Br-F-Benzene.01.mae
  
 Contents of input file: &gen section only
 ----------------Contents start----------------
&gen
dftname=b3pw91-d3
basis=6-31G*
numd=5
ip11=2
iaccg=3
isolv=2
igeopt=1
solvent=benzene
ifreq=1
&
 -----------------Contents end-----------------
 
  basis set:             non_standard                    
  net molecular charge:    0
  multiplicity:            1
  
  This run will use ECP on 1 atom
  number of basis functions....          115
  
 Input geometry:
                                   angstroms
  atom               x                 y                 z
  C1            1.4045083333     -0.0000083333      0.0000000000 
  C2            0.7022083333      1.2163916667      0.0000000000 
  C3           -0.7022916667      1.2163916667      0.0000000000 
  C4           -1.4044916667     -0.0000083333      0.0000000000 
  C5           -0.7022916667     -1.2164083333      0.0000000000 
  C6            0.7023083333     -1.2164083333      0.0000000000 
  F7            2.7375083333     -0.0000083333      0.0000000000 
  H8            1.2540083333      2.1719916667      0.0000000000 
  H9           -1.2539916667      2.1719916667      0.0000000000 
  Br10         -3.2944916667     -0.0000083333      0.0000000000 
  H11          -1.2539916667     -2.1719083333      0.0000000000 
  H12           1.2540083333     -2.1720083333      0.0000000000 
   
  principal moments of inertia:
        amu*angstrom^2:       90.03975      827.59298      917.63273
                g*cm^2: 1.49514503E-38 1.37425030E-37 1.52376480E-37
   
  rotational constants:
               cm^(-1):      0.18722430      0.02036947      0.01837078
                   GHz:      5.61284334      0.61066130      0.55074213
   
  Molecular weight:     173.95 amu
   
  Stoichiometry: C6H4BrF
  Molecular Point Group: C2v     
	Molecule translated to center of mass 
	Molecule reoriented along symmetry axes
  Point Group used: C2v
  
 
Number of optimization coordinates:    36
Number of independent coordinates:     36
Number of non-redundant coordinates:   30
Number of frozen coordinates:           0
Number of harmonic constraints:         0
 
Number of geometric degrees of freedom:    30
Maximum geometric degrees of freedom:      30
 " " " " " excluding dummy atoms:          30
 
  
 Symmetrized geometry:
                                   angstroms
  atom               x                 y                 z
  C1            0.0000000000      0.0000000000      2.6001992067 
  C2            0.0000000000      1.2164000000      1.8979492067 
  C3            0.0000000000      1.2164000000      0.4933992067 
  C4            0.0000000000      0.0000000000     -0.2088007933 
  C5            0.0000000000     -1.2164000000      0.4933992067 
  C6            0.0000000000     -1.2164000000      1.8979492067 
  F7            0.0000000000      0.0000000000      3.9331992067 
  H8            0.0000000000      2.1720000000      2.4496992067 
  H9            0.0000000000      2.1719500000     -0.0583007933 
  Br10          0.0000000000      0.0000000000     -2.0988007933 
  H11           0.0000000000     -2.1719500000     -0.0583007933 
  H12           0.0000000000     -2.1720000000      2.4496992067 
   
 
  bond lengths (angstroms):
 
 C1      -C2      :   1.404558      C1      -C6      :   1.404558
 C1      -F7      :   1.333000      C2      -C3      :   1.404550
 C2      -H8      :   1.103449      C3      -C4      :   1.404533
 C3      -H9      :   1.103381      C4      -C5      :   1.404533
 C4      -Br10    :   1.890000      C5      -C6      :   1.404550
 C5      -H11     :   1.103381      C6      -H12     :   1.103449
 
  bond angles:
 
 C6      -C1      -C2      : 120.002746  F7      -C1      -C2      : 119.998627
 F7      -C1      -C6      : 119.998627  C3      -C2      -C1      : 119.998627
 H8      -C2      -C1      : 119.999840  H8      -C2      -C3      : 120.001533
 C4      -C3      -C2      : 119.996860  H9      -C3      -C2      : 120.000582
 H9      -C3      -C4      : 120.002557  C5      -C4      -C3      : 120.006279
 Br10    -C4      -C3      : 119.996860  Br10    -C4      -C5      : 119.996860
 C6      -C5      -C4      : 119.996860  H11     -C5      -C4      : 120.002557
 H11     -C5      -C6      : 120.000582  C5      -C6      -C1      : 119.998627
 H12     -C6      -C1      : 119.999840  H12     -C6      -C5      : 120.001533
 
  torsional angles:
 
 C1      -C2      -C3      -C4      :   0.000000
 C1      -C2      -C3      -H9      : 180.000000
 C1      -C6      -C5      -C4      :   0.000000
 C1      -C6      -C5      -H11     : 180.000000
 C2      -C1      -C6      -C5      :   0.000000
 C2      -C1      -C6      -H12     : 180.000000
 C2      -C3      -C4      -C5      :   0.000000
 C2      -C3      -C4      -Br10    : 180.000000
 C3      -C2      -C1      -C6      :   0.000000
 C3      -C2      -C1      -F7      : 180.000000
 C3      -C4      -C5      -C6      :   0.000000
 C3      -C4      -C5      -H11     : 180.000000
 C4      -C3      -C2      -H8      : 180.000000
 C4      -C5      -C6      -H12     : 180.000000
 C5      -C4      -C3      -H9      : 180.000000
 C5      -C6      -C1      -F7      : 180.000000
 C6      -C1      -C2      -H8      : 180.000000
 C6      -C5      -C4      -Br10    : 180.000000
 F7      -C1      -C2      -H8      :   0.000000
 F7      -C1      -C6      -H12     :   0.000000
 H8      -C2      -C3      -H9      :   0.000000
 H9      -C3      -C4      -Br10    :   0.000000
 Br10    -C4      -C5      -H11     :   0.000000
 H11     -C5      -C6      -H12     :   0.000000
 
  nuclear repulsion energy.......     309.365314762 hartrees
 
 Non-default options chosen:
   SCF calculation type: DFT(b3pw91-d3)              
   DFT=Becke_3_Parameter/HF+Slater+Becke88+PW91+PW-GGAIIC (B3PW91-D3)
   Geometry will be optimized in redundant internal coordinates
   Solvation energy will be computed using PBF
     -solute cavity energy will not be included
     -surface area terms will not be included
   Vibrational frequencies and related properties will be computed
      from analytic second derivatives
   IR intensities will be computed
   Thermochemical properties will be computed
   Scaling standard convergence criteria by a factor of   5.00
   Solvent: benzene                                                         
   Internal dielectric constant:    1.000
   Continuum dielectric constant:   2.283
   Solvent probe molecule radius:   2.600
  
 Non-default print settings:
     11=  2
  
 Temporary integer options set:
     21= -1  73=  2
  
  atom       vdw   vdw2    cov     mass  grid  daf  charge   basis
  C1        1.949  1.900  0.770   12.000    Y    Y      Y    6-31g*
  C2        1.949  1.900  0.770   12.000    Y    Y      Y    6-31g*
  C3        1.949  1.900  0.770   12.000    Y    Y      Y    6-31g*
  C4        1.949  1.900  0.770   12.000    Y    Y      Y    6-31g*
  C5        1.949  1.900  0.770   12.000    Y    Y      Y    6-31g*
  C6        1.949  1.900  0.770   12.000    Y    Y      Y    6-31g*
  F7        1.736  1.682  0.720   18.998    Y    Y      Y    6-31g*
  H8        1.597  1.150  0.320    1.008    Y    Y      Y    6-31g*
  H9        1.597  1.150  0.320    1.008    Y    Y      Y    6-31g*
  Br10      2.095  2.095  1.140   78.918    Y    Y      Y    lav3p*
  H11       1.597  1.150  0.320    1.008    Y    Y      Y    6-31g*
  H12       1.597  1.150  0.320    1.008    Y    Y      Y    6-31g*
  
  end of program pre
   
 Time(pre)  user:        2.4  user+sys:        2.4  wallclock:        2.7
  
  start of program onee
  
  smallest eigenvalue of S:    5.756E-04
  number of canonical orbitals.....          115
  end of program onee
   
 Time(onee)  user:        0.3  user+sys:        0.3  wallclock:        0.3
  
  start of program hfig
  
  initial wavefunction generated automatically from atomic wavefunctions
 
  Irreducible     Total no   No of occupied orbitals 
  representation  orbitals   Shell_1  Shell_2    ...
  A1                50         14
  A2                11          1
  B1                19          4
  B2                35          9
  ------------------------
  Orbital occupation/shell    1.000
 
  end of program hfig
   
 Time(hfig)  user:        0.2  user+sys:        0.2  wallclock:        0.2
  
  start of program probe
  
  end of program probe
   
 Time(probe)  user:        0.1  user+sys:        0.1  wallclock:        0.2
  
  start of program grid
  
   grid     grid set  grid #  grid sym
  ------    --------  ------  --------
  coarse        0        0        1
  medium        2        1        4
  fine          0        0        1
  ultrafine     4        2        4
  charge       -1        3        4
  gradient      4        2        4
  density       0        0        1
  DFT-fine    -11        4        4
  DFT-med.    -10        5        4
  DFT-grad    -12        6        4
  DFT-der2     -8        7        4
  DFT-cphf     -9        8        4
  LMP2-enrg     4        2        4
  LMP2-grad     2        1        4
  DFT-cphf2   -15        9        4
  PBF-dens      0        0        1
  plotting      0        0        1
  Rel-grad    -17        0        1
  
  number of gridpoints: 
     atom        C1       C2       C3       C4       C5       C6       F7
  grid # 1       30       55       56       34        0        0      197
  grid # 2      115      184      184      131        0        0      189
  grid # 3       27       29       29       28        0        0      137
  grid # 4     2395     4541     4541     2395        0        0     2395
  grid # 5      480      756      756      480        0        0      480
  grid # 6     2004     3480     3480     2004        0        0     2004
  grid # 7     3736     6859     6859     3736        0        0     6750
  grid # 8      263      426      426      263        0        0      282
  grid # 9      146      229      229      146        0        0      156
   
  number of gridpoints: 
     atom        H8       H9     Br10      H11      H12    total
  grid # 1       68       69      177        0        0      686
  grid # 2      275      274      167        0        0     1519
  grid # 3      241      221      168        0        0      880
  grid # 4     4541     4541     2395        0        0    27744
  grid # 5      756      756      480        0        0     4944
  grid # 6     3480     3480     2600        0        0    22532
  grid # 7     7413     7413     2805        0        0    45571
  grid # 8      464      464      245        0        0     2833
  grid # 9      245      245      130        0        0     1526
   
  end of program grid
   
 Time(grid)  user:        0.4  user+sys:        0.4  wallclock:        0.4
  
  start of program rwr
  
  end of program rwr
   
 Time(rwr)  user:        0.3  user+sys:        0.3  wallclock:        0.3
  
  start of program scf
  
 number of electrons..........         56
 number of alpha electrons....         28
 number of beta electrons.....         28
 number of orbitals, total....        115
 number of doubly-occ'd orbs..         28
 number of open shell orbs....          0
 number of occupied orbitals..         28
 number of virtual orbitals...         87
 number of hamiltonians.......          1
 number of shells.............          1
 SCF type: DFT=Becke_3_Parameter/HF+Slater+Becke88+PW91+PW-GGAIIC (B3PW91-D3)
 Energy computed with NOPS off.
 Convergence Criterion:
    Energy (econv):       1.00E-05
    RMS density (dconv):  5.00E-06
  
       i  u  d  i  g                   
       t  p  i  c  r                                 RMS    maximum
       e  d  i  u  i                       energy  density   DIIS  
       r  t  s  t  d       total energy    change  change    error 
  
etot    1  N  N  5  M    -343.06657350615           1.1E-02  1.3E-01
etot    2  Y  Y  6  M    -343.66428578918  6.0E-01  7.8E-03  9.6E-02
etot    3  Y  Y  6  M    -343.81537033384  1.5E-01  4.0E-03  6.5E-02
etot    4  N  Y  2  U    -343.91558118185  1.0E-01  3.3E-03  2.2E-02
etot    5  Y  Y  6  M    -343.92784278636  1.2E-02  1.0E-03  1.4E-02
etot    6  N  Y  2  U    -343.93134816339  3.5E-03  8.1E-04  4.9E-03
etot    7  Y  Y  6  M    -343.93158432588  2.4E-04  1.3E-04  1.5E-03
etot    8  Y  Y  6  M    -343.93171639481  1.3E-04  3.1E-05  2.1E-04
etot    9  N  Y  2  U    -343.93188235478  1.7E-04  2.1E-05  1.6E-04
etot   10  N  Y  2  U    -343.93188285489  5.0E-07  1.8E-05  7.1E-05
etot   11  N  Y  2  U    -343.93188290062  4.6E-08  2.9E-06  2.1E-05
etot   12  N  N  2  U    -343.93188291109  1.0E-08  0.0E+00  0.0E+00
 
  Computing the dispersion energy correction and its gradients...
  
  
 Energy components, in hartrees:
   (A)  Nuclear repulsion............     309.36531476190
   (E)  Total one-electron terms.....   -1084.77049049646
   (F)    Electron-nuclear...........   -1417.63834492089
   (H)    Kinetic....................     332.86785442443
   (I)  Total two-electron terms.....     431.47329282347
   (J)    Coulomb....................     478.42621558071
   (K)    Exchange+Correlation.......     -46.95292275724
   (L)  Electronic energy............    -653.29719767299  (E+I)
   (N0) D3 correction................      -0.00930092371
   (N)  Total energy.................    -343.94118383480  (A+L+N0)
   (O)  Gas phase energy.............    -343.94118383480
  
 SCFE: SCF energy: DFT(b3pw91-d3)      -343.94118383480 hartrees   iterations:  12
  
 
 HOMO energy:    -0.24377
 LUMO energy:    -0.02799
 
  Orbital energies (hartrees)/symmetry label: 
   -24.70513 A1        -10.27373 A1        -10.24040 A1        -10.20397 B2     
   -10.20397 A1        -10.19846 A1        -10.19846 B2         -1.24198 A1     
    -0.88632 A1         -0.81527 A1         -0.77239 B2         -0.72922 A1     
    -0.64075 B2         -0.61513 A1         -0.55802 A1         -0.50760 B2     
    -0.48834 A1         -0.47702 B1         -0.45997 A1         -0.44303 B2     
    -0.41559 B2         -0.38996 B1         -0.38302 A1         -0.35921 B2     
    -0.31674 B1         -0.29736 B2         -0.27594 A2         -0.24377 B1     
    -0.02799 A2         -0.01722 B1          0.00482 A1          0.09226 A1     
     0.12999 B2          0.13727 B1          0.15887 A1          0.17517 A1     
     0.18117 B2          0.24637 A1     
 
  end of program scf
   
 Time(scf)  user:        4.9  user+sys:        4.9  wallclock:        5.5
  
  start of program der1a
  
  end of program der1a
   
 Time(der1a)  user:        0.4  user+sys:        0.4  wallclock:        0.4
  
  start of program rwr
  
  end of program rwr
   
 Time(rwr)  user:        0.3  user+sys:        0.3  wallclock:        0.2
  
  start of program der1b
  
   
  forces (hartrees/bohr) : total     
   
 atom  label           x              y              z
 ---- --------   -------------  -------------  -------------
    1 C1          0.000000E+00   3.069779E-20  -2.554834E-02
    2 C2          0.000000E+00   2.425618E-03   2.927876E-03
    3 C3          0.000000E+00   9.615167E-04   1.445633E-04
    4 C4          0.000000E+00   1.565748E-20   3.109884E-02
    5 C5          0.000000E+00  -9.615167E-04   1.445633E-04
    6 C6          0.000000E+00  -2.425618E-03   2.927876E-03
    7 F7          0.000000E+00  -6.032771E-20   3.612218E-03
    8 H8          0.000000E+00  -1.098666E-02  -4.754223E-03
    9 H9          0.000000E+00  -1.026306E-02   6.474362E-03
   10 Br10        0.000000E+00  -8.588754E-20  -1.898425E-02
   11 H11         0.000000E+00   1.026306E-02   6.474362E-03
   12 H12         0.000000E+00   1.098666E-02  -4.754223E-03
 -------------   -------------  -------------  -------------
     total        0.000000E+00  -1.734723E-18  -2.363720E-04
   
  end of program der1b
   
 Time(der1b)  user:        1.0  user+sys:        1.0  wallclock:        1.0
  
  start of program geopt
  
 ----------------------------------------------------------------------------
  Geometry optimization step   1
  Total energy:      -343.94118383480 hartrees
 ----------------------------------------------------------------------------
  
  gradient maximum:        1.8965E-02 .  (  2.2500E-03 )
  gradient rms:            7.5240E-03 .  (  1.5000E-03 )
  displacement maximum:    9.7764E-02 .  (  9.0000E-03 )
  displacement rms:        2.5071E-02 .  (  6.0000E-03 )
  
  predicted energy change:  -3.3189E-03
  step size:     0.15043
  trust radius:  0.30000
  
  molecular structure not yet converged...
  
  center of mass moved by:
     x:     0.0000E+00     y:     0.0000E+00     z:    -2.8171E-02
  
  new geometry: 
                                   angstroms
  atom               x                 y                 z
  C1            0.0000000000      0.0000000000      2.5853338413 
  C2            0.0000000000      1.2064636696      1.9074212022 
  C3            0.0000000000      1.2066759674      0.5210826986 
  C4            0.0000000000      0.0000000000     -0.1706656970 
  C5            0.0000000000     -1.2066759674      0.5210826986 
  C6            0.0000000000     -1.2064636696      1.9074212022 
  F7            0.0000000000      0.0000000000      3.9224505604 
  H8            0.0000000000      2.1375658109      2.4635891364 
  H9            0.0000000000      2.1464422517     -0.0193641088 
  Br10          0.0000000000      0.0000000000     -2.1124001842 
  H11           0.0000000000     -2.1464422517     -0.0193641088 
  H12           0.0000000000     -2.1375658109      2.4635891364 
   
 
  bond lengths (angstroms):
 
 C1      -C2      :   1.383879      C1      -C6      :   1.383879
 C1      -F7      :   1.337117      C2      -C3      :   1.386339
 C2      -H8      :   1.084562      C3      -C4      :   1.390893
 C3      -H9      :   1.084086      C4      -C5      :   1.390893
 C4      -Br10    :   1.941734      C5      -C6      :   1.386339
 C5      -H11     :   1.084086      C6      -H12     :   1.084562
 
  bond angles:
 
 C6      -C1      -C2      : 121.336685  F7      -C1      -C2      : 119.331658
 F7      -C1      -C6      : 119.331658  C3      -C2      -C1      : 119.340432
 H8      -C2      -C1      : 119.817535  H8      -C2      -C3      : 120.842033
 C4      -C3      -C2      : 119.815482  H9      -C3      -C2      : 119.911396
 H9      -C3      -C4      : 120.273122  C5      -C4      -C3      : 120.351488
 Br10    -C4      -C3      : 119.824256  Br10    -C4      -C5      : 119.824256
 C6      -C5      -C4      : 119.815482  H11     -C5      -C4      : 120.273122
 H11     -C5      -C6      : 119.911396  C5      -C6      -C1      : 119.340432
 H12     -C6      -C1      : 119.817535  H12     -C6      -C5      : 120.842033
 
  torsional angles:
 
 C1      -C2      -C3      -C4      :   0.000000
 C1      -C2      -C3      -H9      : 180.000000
 C1      -C6      -C5      -C4      :   0.000000
 C1      -C6      -C5      -H11     : 180.000000
 C2      -C1      -C6      -C5      :   0.000000
 C2      -C1      -C6      -H12     : 180.000000
 C2      -C3      -C4      -C5      :   0.000000
 C2      -C3      -C4      -Br10    : 180.000000
 C3      -C2      -C1      -C6      :   0.000000
 C3      -C2      -C1      -F7      : 180.000000
 C3      -C4      -C5      -C6      :   0.000000
 C3      -C4      -C5      -H11     : 180.000000
 C4      -C3      -C2      -H8      : 180.000000
 C4      -C5      -C6      -H12     : 180.000000
 C5      -C4      -C3      -H9      : 180.000000
 C5      -C6      -C1      -F7      : 180.000000
 C6      -C1      -C2      -H8      : 180.000000
 C6      -C5      -C4      -Br10    : 180.000000
 F7      -C1      -C2      -H8      :   0.000000
 F7      -C1      -C6      -H12     :   0.000000
 H8      -C2      -C3      -H9      :   0.000000
 H9      -C3      -C4      -Br10    :   0.000000
 Br10    -C4      -C5      -H11     :   0.000000
 H11     -C5      -C6      -H12     :   0.000000
 
  nuclear repulsion energy.......     311.697690174 hartrees
  -------------------------------------------------
 /  end of geometry optimization iteration   1   /
 -------------------------------------------------
   
  end of program geopt
   
 Time(geopt)  user:        0.2  user+sys:        0.2  wallclock:        0.2
  
  start of program onee
  
  smallest eigenvalue of S:    5.119E-04
  number of canonical orbitals.....          115
  end of program onee
   
 Time(onee)  user:        0.4  user+sys:        0.4  wallclock:        0.3
  
  start of program probe
  
  end of program probe
   
 Time(probe)  user:        0.2  user+sys:        0.2  wallclock:        0.1
  
  start of program grid
  
   grid     grid set  grid #  grid sym
  ------    --------  ------  --------
  coarse        0        0        1
  medium        2        1        4
  fine          0        0        1
  ultrafine     4        2        4
  charge       -1        3        4
  gradient      4        2        4
  density       0        0        1
  DFT-fine    -11        4        4
  DFT-med.    -10        5        4
  DFT-grad    -12        6        4
  DFT-der2     -8        7        4
  DFT-cphf     -9        8        4
  LMP2-enrg     4        2        4
  LMP2-grad     2        1        4
  DFT-cphf2   -15        9        4
  PBF-dens      0        0        1
  plotting      0        0        1
  Rel-grad    -17        0        1
  
  number of gridpoints: 
     atom        C1       C2       C3       C4       C5       C6       F7
  grid # 1       30       55       56       34        0        0      197
  grid # 2      115      184      184      135        0        0      190
  grid # 3       26       28       28       27        0        0      137
  grid # 4     2395     4541     4541     2395        0        0     2395
  grid # 5      480      756      756      480        0        0      480
  grid # 6     2004     3480     3480     2004        0        0     2004
  grid # 7     3736     6859     6859     3736        0        0     6750
  grid # 8      263      426      426      263        0        0      282
  grid # 9      146      229      229      146        0        0      156
   
  number of gridpoints: 
     atom        H8       H9     Br10      H11      H12    total
  grid # 1       68       69      177        0        0      686
  grid # 2      273      274      167        0        0     1522
  grid # 3      240      220      168        0        0      874
  grid # 4     4541     4541     2395        0        0    27744
  grid # 5      756      756      480        0        0     4944
  grid # 6     3480     3480     2600        0        0    22532
  grid # 7     7413     7413     2805        0        0    45571
  grid # 8      464      464      245        0        0     2833
  grid # 9      245      245      130        0        0     1526
   
  end of program grid
   
 Time(grid)  user:        0.5  user+sys:        0.5  wallclock:        0.4
  
  start of program rwr
  
  end of program rwr
   
 Time(rwr)  user:        0.3  user+sys:        0.3  wallclock:        0.3
  
  start of program scf
  
 Energy computed with NOPS off.
 Convergence Criterion:
    Energy (econv):       1.00E-05
    RMS density (dconv):  5.00E-06
  
       i  u  d  i  g                   
       t  p  i  c  r                                 RMS    maximum
       e  d  i  u  i                       energy  density   DIIS  
       r  t  s  t  d       total energy    change  change    error 
  
etot    1  N  N  2  U    -343.93318119667           7.0E-04  1.2E-02
etot    2  Y  Y  6  M    -343.93427506618  1.1E-03  3.6E-04  4.2E-03
etot    3  Y  Y  6  M    -343.93413583830 -1.4E-04  2.2E-04  4.6E-03
etot    4  Y  Y  6  M    -343.93466898132  5.3E-04  4.9E-05  9.8E-04
etot    5  N  Y  2  U    -343.93470809806  3.9E-05  2.6E-05  2.6E-04
etot    6  N  Y  2  U    -343.93470941701  1.3E-06  1.5E-05  6.7E-05
etot    7  N  Y  2  U    -343.93470948725  7.0E-08  1.2E-05  2.7E-05
etot    8  N  Y  2  U    -343.93470948213 -5.1E-09  1.7E-06  1.0E-05
etot    9  N  N  2  U    -343.93470948843  6.3E-09  0.0E+00  0.0E+00
 
  Computing the dispersion energy correction and its gradients...
  
  
 Energy components, in hartrees:
   (A)  Nuclear repulsion............     311.69769017417
   (E)  Total one-electron terms.....   -1089.36497684101
   (F)    Electron-nuclear...........   -1422.54075862567
   (H)    Kinetic....................     333.17578178467
   (I)  Total two-electron terms.....     433.73257717840
   (J)    Coulomb....................     480.75677882059
   (K)    Exchange+Correlation.......     -47.02420164219
   (L)  Electronic energy............    -655.63239966260  (E+I)
   (N0) D3 correction................      -0.00933781546
   (N)  Total energy.................    -343.94404730389  (A+L+N0)
   (O)  Gas phase energy.............    -343.94404730389
  
 SCFE: SCF energy: DFT(b3pw91-d3)      -343.94404730389 hartrees   iterations:   9
  
 
 HOMO energy:    -0.24732
 LUMO energy:    -0.02624
 
  Orbital energies (hartrees)/symmetry label: 
   -24.70184 A1        -10.26902 A1        -10.24104 A1        -10.20025 B2     
   -10.20025 A1        -10.19340 B2        -10.19340 A1         -1.23854 A1     
    -0.89357 A1         -0.81053 A1         -0.78073 B2         -0.73214 A1     
    -0.64665 B2         -0.61848 A1         -0.56163 A1         -0.51034 B2     
    -0.48960 A1         -0.47626 B1         -0.46266 A1         -0.45036 B2     
    -0.41542 B2         -0.39241 B1         -0.37978 A1         -0.36205 B2     
    -0.31503 B1         -0.29617 B2         -0.28060 A2         -0.24732 B1     
    -0.02624 A2         -0.01489 B1         -0.00845 A1          0.09466 A1     
     0.13445 B2          0.14497 B1          0.16526 A1          0.18090 A1     
     0.18743 B2          0.25113 A1     
 
  end of program scf
   
 Time(scf)  user:        4.4  user+sys:        4.4  wallclock:        5.0
  
  start of program der1a
  
  end of program der1a
   
 Time(der1a)  user:        0.5  user+sys:        0.5  wallclock:        0.4
  
  start of program rwr
  
  end of program rwr
   
 Time(rwr)  user:        0.4  user+sys:        0.4  wallclock:        0.3
  
  start of program der1b
  
   
  forces (hartrees/bohr) : total     
   
 atom  label           x              y              z
 ---- --------   -------------  -------------  -------------
    1 C1          0.000000E+00   1.620606E-20  -1.114875E-03
    2 C2          0.000000E+00   4.521272E-03   3.762077E-03
    3 C3          0.000000E+00   2.465232E-03  -7.276301E-03
    4 C4          0.000000E+00   2.080044E-21   4.715277E-03
    5 C5          0.000000E+00  -2.465232E-03  -7.276301E-03
    6 C6          0.000000E+00  -4.521272E-03   3.762077E-03
    7 F7          0.000000E+00   7.401443E-20   4.019123E-03
    8 H8          0.000000E+00   2.341922E-04   6.931765E-04
    9 H9          0.000000E+00   6.411929E-04  -5.174039E-04
   10 Br10        0.000000E+00  -6.722428E-20  -9.732470E-04
   11 H11         0.000000E+00  -6.411929E-04  -5.174039E-04
   12 H12         0.000000E+00  -2.341922E-04   6.931765E-04
 -------------   -------------  -------------  -------------
     total        0.000000E+00   8.673617E-19  -3.062591E-05
   
  end of program der1b
   
 Time(der1b)  user:        1.0  user+sys:        1.0  wallclock:        1.0
  
  start of program geopt
  
 ----------------------------------------------------------------------------
  Geometry optimization step   2
  Total energy:      -343.94404730389 hartrees
 ----------------------------------------------------------------------------
  
  energy change:          -2.8635E-03 .  (  2.5000E-04 )
  gradient maximum:        5.9400E-03 .  (  2.2500E-03 )
  gradient rms:            2.3777E-03 .  (  1.5000E-03 )
  displacement maximum:    1.4118E-02 .  (  9.0000E-03 )
  displacement rms:        5.7034E-03 *  (  6.0000E-03 )
  
  predicted energy change:  -2.2351E-04
  step size:     0.03422
  trust radius:  0.30000
  
  molecular structure not yet converged...
  
  center of mass moved by:
     x:     0.0000E+00     y:    -5.1060E-18     z:    -9.0268E-04
  
  new geometry: 
                                   angstroms
  atom               x                 y                 z
  C1            0.0000000000      0.0000000000      2.5868120260 
  C2            0.0000000000      1.2133727515      1.9102619458 
  C3            0.0000000000      1.2126558331      0.5173609293 
  C4            0.0000000000      0.0000000000     -0.1664877345 
  C5            0.0000000000     -1.2126558331      0.5173609293 
  C6            0.0000000000     -1.2133727515      1.9102619458 
  F7            0.0000000000      0.0000000000      3.9283388992 
  H8            0.0000000000      2.1419341226      2.4705971824 
  H9            0.0000000000      2.1502726925     -0.0274054736 
  Br10          0.0000000000      0.0000000000     -2.1143834416 
  H11           0.0000000000     -2.1502726925     -0.0274054736 
  H12           0.0000000000     -2.1419341226      2.4705971824 
   
 
  bond lengths (angstroms):
 
 C1      -C2      :   1.389242      C1      -C6      :   1.389242
 C1      -F7      :   1.341527      C2      -C3      :   1.392901
 C2      -H8      :   1.084528      C3      -C4      :   1.392186
 C3      -H9      :   1.084387      C4      -C5      :   1.392186
 C4      -Br10    :   1.947896      C5      -C6      :   1.392901
 C5      -H11     :   1.084387      C6      -H12     :   1.084528
 
  bond angles:
 
 C6      -C1      -C2      : 121.713839  F7      -C1      -C2      : 119.143081
 F7      -C1      -C6      : 119.143081  C3      -C2      -C1      : 119.113591
 H8      -C2      -C1      : 119.748270  H8      -C2      -C3      : 121.138139
 C4      -C3      -C2      : 119.449290  H9      -C3      -C2      : 120.127601
 H9      -C3      -C4      : 120.423110  C5      -C4      -C3      : 121.160400
 Br10    -C4      -C3      : 119.419800  Br10    -C4      -C5      : 119.419800
 C6      -C5      -C4      : 119.449290  H11     -C5      -C4      : 120.423110
 H11     -C5      -C6      : 120.127601  C5      -C6      -C1      : 119.113591
 H12     -C6      -C1      : 119.748270  H12     -C6      -C5      : 121.138139
 
  torsional angles:
 
 C1      -C2      -C3      -C4      :   0.000000
 C1      -C2      -C3      -H9      : 179.999999
 C1      -C6      -C5      -C4      :   0.000000
 C1      -C6      -C5      -H11     : 179.999999
 C2      -C1      -C6      -C5      :   0.000000
 C2      -C1      -C6      -H12     : 179.999999
 C2      -C3      -C4      -C5      :   0.000000
 C2      -C3      -C4      -Br10    : 180.000000
 C3      -C2      -C1      -C6      :   0.000000
 C3      -C2      -C1      -F7      : 180.000000
 C3      -C4      -C5      -C6      :   0.000000
 C3      -C4      -C5      -H11     : 180.000000
 C4      -C3      -C2      -H8      : 180.000000
 C4      -C5      -C6      -H12     : 180.000000
 C5      -C4      -C3      -H9      : 180.000000
 C5      -C6      -C1      -F7      : 180.000000
 C6      -C1      -C2      -H8      : 179.999999
 C6      -C5      -C4      -Br10    : 180.000000
 F7      -C1      -C2      -H8      :   0.000000
 F7      -C1      -C6      -H12     :   0.000000
 H8      -C2      -C3      -H9      :   0.000000
 H9      -C3      -C4      -Br10    :   0.000001
 Br10    -C4      -C5      -H11     :   0.000001
 H11     -C5      -C6      -H12     :   0.000000
 
  nuclear repulsion energy.......     310.885904310 hartrees
  -------------------------------------------------
 /  end of geometry optimization iteration   2   /
 -------------------------------------------------
   
  end of program geopt
   
 Time(geopt)  user:        0.2  user+sys:        0.2  wallclock:        0.1
  
  start of program onee
  
  smallest eigenvalue of S:    5.278E-04
  number of canonical orbitals.....          115
  end of program onee
   
 Time(onee)  user:        0.3  user+sys:        0.3  wallclock:        0.2
  
  start of program probe
  
  end of program probe
   
 Time(probe)  user:        0.2  user+sys:        0.2  wallclock:        0.1
  
  start of program grid
  
   grid     grid set  grid #  grid sym
  ------    --------  ------  --------
  coarse        0        0        1
  medium        2        1        4
  fine          0        0        1
  ultrafine     4        2        4
  charge       -1        3        4
  gradient      4        2        4
  density       0        0        1
  DFT-fine    -11        4        4
  DFT-med.    -10        5        4
  DFT-grad    -12        6        4
  DFT-der2     -8        7        4
  DFT-cphf     -9        8        4
  LMP2-enrg     4        2        4
  LMP2-grad     2        1        4
  DFT-cphf2   -15        9        4
  PBF-dens      0        0        1
  plotting      0        0        1
  Rel-grad    -17        0        1
  
  number of gridpoints: 
     atom        C1       C2       C3       C4       C5       C6       F7
  grid # 1       30       55       56       34        0        0      197
  grid # 2      116      184      184      136        0        0      190
  grid # 3       26       28       28       27        0        0      137
  grid # 4     2395     4541     4541     2395        0        0     2395
  grid # 5      480      756      756      480        0        0      480
  grid # 6     2004     3480     3480     2004        0        0     2004
  grid # 7     3736     6859     6859     3736        0        0     6750
  grid # 8      263      426      426      263        0        0      282
  grid # 9      146      229      229      146        0        0      156
   
  number of gridpoints: 
     atom        H8       H9     Br10      H11      H12    total
  grid # 1       68       69      177        0        0      686
  grid # 2      273      274      167        0        0     1524
  grid # 3      242      221      168        0        0      877
  grid # 4     4541     4541     2395        0        0    27744
  grid # 5      756      756      480        0        0     4944
  grid # 6     3480     3480     2600        0        0    22532
  grid # 7     7413     7413     2805        0        0    45571
  grid # 8      464      464      245        0        0     2833
  grid # 9      245      245      130        0        0     1526
   
  end of program grid
   
 Time(grid)  user:        0.4  user+sys:        0.4  wallclock:        0.4
  
  start of program rwr
  
  end of program rwr
   
 Time(rwr)  user:        0.3  user+sys:        0.3  wallclock:        0.3
  
  start of program scf
  
 Energy computed with NOPS off.
 Convergence Criterion:
    Energy (econv):       1.00E-05
    RMS density (dconv):  5.00E-06
  
       i  u  d  i  g                   
       t  p  i  c  r                                 RMS    maximum
       e  d  i  u  i                       energy  density   DIIS  
       r  t  s  t  d       total energy    change  change    error 
  
etot    1  N  N  2  U    -343.93487796527           1.4E-04  1.4E-03
etot    2  Y  Y  6  M    -343.93492574065  4.8E-05  6.3E-05  5.5E-04
etot    3  Y  Y  6  M    -343.93496687296  4.1E-05  3.3E-05  5.4E-04
etot    4  N  Y  2  U    -343.93496455507 -2.3E-06  7.0E-06  1.0E-04
etot    5  N  Y  2  U    -343.93496487180  3.2E-07  4.6E-06  3.0E-05
etot    6  N  N  2  U    -343.93496489087  1.9E-08  0.0E+00  0.0E+00
 
  Computing the dispersion energy correction and its gradients...
  
  
 Energy components, in hartrees:
   (A)  Nuclear repulsion............     310.88590431032
   (E)  Total one-electron terms.....   -1087.75670179833
   (F)    Electron-nuclear...........   -1420.84858989764
   (H)    Kinetic....................     333.09188809931
   (I)  Total two-electron terms.....     432.93583259714
   (J)    Coulomb....................     479.94002703231
   (K)    Exchange+Correlation.......     -47.00419443517
   (L)  Electronic energy............    -654.82086920119  (E+I)
   (N0) D3 correction................      -0.00934399035
   (N)  Total energy.................    -343.94430888122  (A+L+N0)
   (O)  Gas phase energy.............    -343.94430888122
  
 SCFE: SCF energy: DFT(b3pw91-d3)      -343.94430888122 hartrees   iterations:   6
  
 
 HOMO energy:    -0.24751
 LUMO energy:    -0.02829
 
  Orbital energies (hartrees)/symmetry label: 
   -24.70135 A1        -10.27055 A1        -10.24235 A1        -10.20197 B2     
   -10.20197 A1        -10.19543 A1        -10.19543 B2         -1.23641 A1     
    -0.89196 A1         -0.80910 A1         -0.78010 B2         -0.73136 A1     
    -0.64693 B2         -0.61755 A1         -0.56042 A1         -0.50915 B2     
    -0.48977 A1         -0.47467 B1         -0.46296 A1         -0.45119 B2     
    -0.41563 B2         -0.39164 B1         -0.37843 A1         -0.36316 B2     
    -0.31426 B1         -0.29585 B2         -0.28032 A2         -0.24751 B1     
    -0.02829 A2         -0.01573 B1         -0.00991 A1          0.09408 A1     
     0.13436 B2          0.14201 B1          0.16382 A1          0.17817 A1     
     0.18582 B2          0.24901 A1     
 
  end of program scf
   
 Time(scf)  user:        3.7  user+sys:        3.7  wallclock:        4.1
  
  start of program der1a
  
  end of program der1a
   
 Time(der1a)  user:        0.4  user+sys:        0.4  wallclock:        0.4
  
  start of program rwr
  
  end of program rwr
   
 Time(rwr)  user:        0.3  user+sys:        0.3  wallclock:        0.2
  
  start of program der1b
  
   
  forces (hartrees/bohr) : total     
   
 atom  label           x              y              z
 ---- --------   -------------  -------------  -------------
    1 C1          0.000000E+00  -8.082457E-20  -1.700689E-03
    2 C2          0.000000E+00  -6.322396E-04   2.693327E-04
    3 C3          0.000000E+00  -4.724979E-05  -1.016679E-03
    4 C4          0.000000E+00  -2.905205E-20   2.325533E-03
    5 C5          0.000000E+00   4.724979E-05  -1.016679E-03
    6 C6          0.000000E+00   6.322396E-04   2.693327E-04
    7 F7          0.000000E+00   1.345957E-20   2.626184E-04
    8 H8          0.000000E+00   2.594201E-04   4.051463E-04
    9 H9          0.000000E+00   2.808633E-04  -2.318524E-04
   10 Br10        0.000000E+00   1.204940E-19   2.100399E-04
   11 H11         0.000000E+00  -2.808633E-04  -2.318524E-04
   12 H12         0.000000E+00  -2.594201E-04   4.051463E-04
 -------------   -------------  -------------  -------------
     total        0.000000E+00  -2.710505E-19  -5.060342E-05
   
  end of program der1b
   
 Time(der1b)  user:        1.0  user+sys:        1.0  wallclock:        1.0
  
  start of program geopt
  
 ----------------------------------------------------------------------------
  Geometry optimization step   3
  Total energy:      -343.94430888122 hartrees
 ----------------------------------------------------------------------------
  
  energy change:          -2.6158E-04 .  (  2.5000E-04 )
  gradient maximum:        1.9234E-03 *  (  2.2500E-03 )
  gradient rms:            5.4665E-04 *  (  1.5000E-03 )
  displacement maximum:    7.0165E-03 *  (  9.0000E-03 )
  displacement rms:        2.0130E-03 *  (  6.0000E-03 )
  
  predicted energy change:  -1.7716E-05
  step size:     0.01208
  trust radius:  0.30000
  
  molecular structure not yet converged...
  
  center of mass moved by:
     x:     0.0000E+00     y:     2.5530E-17     z:     2.6695E-03
  
  new geometry: 
                                   angstroms
  atom               x                 y                 z
  C1            0.0000000000     -0.0000000000      2.5821576164 
  C2            0.0000000000      1.2143407632      1.9084537646 
  C3            0.0000000000      1.2142533670      0.5152214208 
  C4            0.0000000000     -0.0000000000     -0.1639245728 
  C5            0.0000000000     -1.2142533670      0.5152214208 
  C6            0.0000000000     -1.2143407632      1.9084537646 
  F7            0.0000000000     -0.0000000000      3.9244160926 
  H8            0.0000000000      2.1416162757      2.4719985374 
  H9            0.0000000000      2.1512052122     -0.0315948589 
  Br10          0.0000000000     -0.0000000000     -2.1118493502 
  H11           0.0000000000     -2.1512052122     -0.0315948589 
  H12           0.0000000000     -2.1416162757      2.4719985374 
   
 
  bond lengths (angstroms):
 
 C1      -C2      :   1.388705      C1      -C6      :   1.388705
 C1      -F7      :   1.342258      C2      -C3      :   1.393232
 C2      -H8      :   1.085091      C3      -C4      :   1.391277
 C3      -H9      :   1.084844      C4      -C5      :   1.391277
 C4      -Br10    :   1.947925      C5      -C6      :   1.393232
 C5      -H11     :   1.084844      C6      -H12     :   1.085091
 
  bond angles:
 
 C6      -C1      -C2      : 121.957868  F7      -C1      -C2      : 119.021066
 F7      -C1      -C6      : 119.021066  C3      -C2      -C1      : 119.017472
 H8      -C2      -C1      : 119.690104  H8      -C2      -C3      : 121.292424
 C4      -C3      -C2      : 119.222385  H9      -C3      -C2      : 120.264752
 H9      -C3      -C4      : 120.512863  C5      -C4      -C3      : 121.562417
 Br10    -C4      -C3      : 119.218791  Br10    -C4      -C5      : 119.218791
 C6      -C5      -C4      : 119.222385  H11     -C5      -C4      : 120.512863
 H11     -C5      -C6      : 120.264752  C5      -C6      -C1      : 119.017472
 H12     -C6      -C1      : 119.690104  H12     -C6      -C5      : 121.292424
 
  torsional angles:
 
 C1      -C2      -C3      -C4      :   0.000000
 C1      -C2      -C3      -H9      : 180.000000
 C1      -C6      -C5      -C4      :   0.000000
 C1      -C6      -C5      -H11     : 180.000000
 C2      -C1      -C6      -C5      :   0.000000
 C2      -C1      -C6      -H12     : 180.000000
 C2      -C3      -C4      -C5      :   0.000000
 C2      -C3      -C4      -Br10    : 179.999999
 C3      -C2      -C1      -C6      :   0.000000
 C3      -C2      -C1      -F7      : 180.000000
 C3      -C4      -C5      -C6      :   0.000000
 C3      -C4      -C5      -H11     : 180.000000
 C4      -C3      -C2      -H8      : 180.000000
 C4      -C5      -C6      -H12     : 180.000000
 C5      -C4      -C3      -H9      : 180.000000
 C5      -C6      -C1      -F7      : 180.000000
 C6      -C1      -C2      -H8      : 180.000000
 C6      -C5      -C4      -Br10    : 179.999999
 F7      -C1      -C2      -H8      :   0.000000
 F7      -C1      -C6      -H12     :   0.000000
 H8      -C2      -C3      -H9      :   0.000000
 H9      -C3      -C4      -Br10    :   0.000000
 Br10    -C4      -C5      -H11     :   0.000000
 H11     -C5      -C6      -H12     :   0.000000
 
  nuclear repulsion energy.......     310.979482773 hartrees
  -------------------------------------------------
 /  end of geometry optimization iteration   3   /
 -------------------------------------------------
   
  end of program geopt
   
 Time(geopt)  user:        0.2  user+sys:        0.2  wallclock:        0.1
  
  start of program onee
  
  smallest eigenvalue of S:    5.265E-04
  number of canonical orbitals.....          115
  end of program onee
   
 Time(onee)  user:        0.3  user+sys:        0.3  wallclock:        0.2
  
  start of program probe
  
  end of program probe
   
 Time(probe)  user:        0.2  user+sys:        0.2  wallclock:        0.1
  
  start of program grid
  
   grid     grid set  grid #  grid sym
  ------    --------  ------  --------
  coarse        0        0        1
  medium        2        1        4
  fine          0        0        1
  ultrafine     4        2        4
  charge       -1        3        4
  gradient      4        2        4
  density       0        0        1
  DFT-fine    -11        4        4
  DFT-med.    -10        5        4
  DFT-grad    -12        6        4
  DFT-der2     -8        7        4
  DFT-cphf     -9        8        4
  LMP2-enrg     4        2        4
  LMP2-grad     2        1        4
  DFT-cphf2   -15        9        4
  PBF-dens      0        0        1
  plotting      0        0        1
  Rel-grad    -17        0        1
  
  number of gridpoints: 
     atom        C1       C2       C3       C4       C5       C6       F7
  grid # 1       30       55       56       34        0        0      197
  grid # 2      116      183      184      136        0        0      190
  grid # 3       26       28       28       27        0        0      136
  grid # 4     2395     4541     4541     2395        0        0     2395
  grid # 5      480      756      756      480        0        0      480
  grid # 6     2004     3480     3480     2004        0        0     2004
  grid # 7     3736     6859     6859     3736        0        0     6750
  grid # 8      263      426      426      263        0        0      282
  grid # 9      146      229      229      146        0        0      156
   
  number of gridpoints: 
     atom        H8       H9     Br10      H11      H12    total
  grid # 1       68       69      177        0        0      686
  grid # 2      273      274      167        0        0     1523
  grid # 3      240      223      168        0        0      876
  grid # 4     4541     4541     2395        0        0    27744
  grid # 5      756      756      480        0        0     4944
  grid # 6     3480     3480     2600        0        0    22532
  grid # 7     7413     7413     2805        0        0    45571
  grid # 8      464      464      245        0        0     2833
  grid # 9      245      245      130        0        0     1526
   
  end of program grid
   
 Time(grid)  user:        0.4  user+sys:        0.4  wallclock:        0.5
  
  start of program rwr
  
  end of program rwr
   
 Time(rwr)  user:        0.3  user+sys:        0.3  wallclock:        0.3
  
  start of program scf
  
 Energy computed with NOPS off.
 Convergence Criterion:
    Energy (econv):       1.00E-05
    RMS density (dconv):  5.00E-06
  
       i  u  d  i  g                   
       t  p  i  c  r                                 RMS    maximum
       e  d  i  u  i                       energy  density   DIIS  
       r  t  s  t  d       total energy    change  change    error 
  
etot    1  N  N  2  U    -343.93496356038           5.0E-05  5.3E-04
etot    2  Y  Y  6  M    -343.93497766536  1.4E-05  1.8E-05  1.6E-04
etot    3  N  Y  2  U    -343.93497320508 -4.5E-06  1.1E-05  1.9E-04
etot    4  N  Y  2  U    -343.93497446686  1.3E-06  2.1E-06  4.1E-05
etot    5  N  N  2  U    -343.93497449250  2.6E-08  0.0E+00  0.0E+00
 
  Computing the dispersion energy correction and its gradients...
  
  
 Energy components, in hartrees:
   (A)  Nuclear repulsion............     310.97948277271
   (E)  Total one-electron terms.....   -1087.94430160699
   (F)    Electron-nuclear...........   -1421.03929708708
   (H)    Kinetic....................     333.09499548008
   (I)  Total two-electron terms.....     433.02984434179
   (J)    Coulomb....................     480.03458523545
   (K)    Exchange+Correlation.......     -47.00474089366
   (L)  Electronic energy............    -654.91445726520  (E+I)
   (N0) D3 correction................      -0.00934437442
   (N)  Total energy.................    -343.94431886692  (A+L+N0)
   (O)  Gas phase energy.............    -343.94431886692
  
 SCFE: SCF energy: DFT(b3pw91-d3)      -343.94431886692 hartrees   iterations:   5
  
 
 HOMO energy:    -0.24748
 LUMO energy:    -0.02865
 
  Orbital energies (hartrees)/symmetry label: 
   -24.70092 A1        -10.27035 A1        -10.24221 A1        -10.20214 B2     
   -10.20213 A1        -10.19562 A1        -10.19562 B2         -1.23584 A1     
    -0.89232 A1         -0.80905 A1         -0.78042 B2         -0.73112 A1     
    -0.64736 B2         -0.61724 A1         -0.56024 A1         -0.50915 B2     
    -0.48968 A1         -0.47435 B1         -0.46299 A1         -0.45178 B2     
    -0.41555 B2         -0.39182 B1         -0.37784 A1         -0.36360 B2     
    -0.31409 B1         -0.29560 B2         -0.28055 A2         -0.24748 B1     
    -0.02865 A2         -0.01551 B1         -0.00964 A1          0.09406 A1     
     0.13411 B2          0.14202 B1          0.16328 A1          0.17819 A1     
     0.18547 B2          0.24894 A1     
 
  end of program scf
   
 Time(scf)  user:        3.6  user+sys:        3.6  wallclock:        4.0
  
  start of program der1a
  
  end of program der1a
   
 Time(der1a)  user:        0.4  user+sys:        0.4  wallclock:        0.4
  
  start of program rwr
  
  end of program rwr
   
 Time(rwr)  user:        0.3  user+sys:        0.3  wallclock:        0.2
  
  start of program der1b
  
   
  forces (hartrees/bohr) : total     
   
 atom  label           x              y              z
 ---- --------   -------------  -------------  -------------
    1 C1          0.000000E+00   5.737265E-20  -1.065959E-04
    2 C2          0.000000E+00  -1.115168E-04  -1.175389E-04
    3 C3          0.000000E+00   1.518918E-04   2.023870E-04
    4 C4          0.000000E+00  -2.902919E-20   7.492697E-05
    5 C5          0.000000E+00  -1.518918E-04   2.023870E-04
    6 C6          0.000000E+00   1.115168E-04  -1.175389E-04
    7 F7          0.000000E+00  -8.138101E-20   6.653961E-05
    8 H8          0.000000E+00  -3.697741E-05   7.764833E-05
    9 H9          0.000000E+00  -7.808310E-05  -2.613770E-05
   10 Br10        0.000000E+00   1.008364E-19  -3.203932E-04
   11 H11         0.000000E+00   7.808310E-05  -2.613770E-05
   12 H12         0.000000E+00   3.697741E-05   7.764833E-05
 -------------   -------------  -------------  -------------
     total        0.000000E+00   1.219727E-19  -1.280490E-05
   
  end of program der1b
   
 Time(der1b)  user:        1.0  user+sys:        1.0  wallclock:        1.0
  
  start of program geopt
  
 ----------------------------------------------------------------------------
  Geometry optimization step   4
  Total energy:      -343.94431886692 hartrees
 ----------------------------------------------------------------------------
  
  energy change:          -9.9857E-06 #  (  2.5000E-04 )
  gradient maximum:        3.1933E-04 #  (  2.2500E-03 )
  gradient rms:            8.9972E-05 #  (  1.5000E-03 )
  displacement maximum:    1.8501E-03 *  (  9.0000E-03 )
  displacement rms:        3.7767E-04 #  (  6.0000E-03 )
  
  predicted energy change:  -5.5262E-07
  step size:     0.00227
  trust radius:  0.30000
  
  ********************************************************
  **           Geometry optimization complete           **
  ********************************************************
  
  Checking the geometry optimization convergence pattern ...
  
  best                    worst
  ==0=====1=====2=====3=====4==
    ^                          
  
  Convergence category 0: monotonic convergence.
  
  center of mass moved by:
     x:     0.0000E+00     y:     0.0000E+00     z:     0.0000E+00
  
  final geometry: 
                                   angstroms
  atom               x                 y                 z
  C1            0.0000000000     -0.0000000000      2.5821576164 
  C2            0.0000000000      1.2143407632      1.9084537646 
  C3            0.0000000000      1.2142533670      0.5152214208 
  C4            0.0000000000     -0.0000000000     -0.1639245728 
  C5            0.0000000000     -1.2142533670      0.5152214208 
  C6            0.0000000000     -1.2143407632      1.9084537646 
  F7            0.0000000000     -0.0000000000      3.9244160926 
  H8            0.0000000000      2.1416162757      2.4719985374 
  H9            0.0000000000      2.1512052122     -0.0315948589 
  Br10          0.0000000000     -0.0000000000     -2.1118493502 
  H11           0.0000000000     -2.1512052122     -0.0315948589 
  H12           0.0000000000     -2.1416162757      2.4719985374 
   
  bond lengths (angstroms):
 C1      -C2      :   1.388705
 C1      -C6      :   1.388705
 C1      -F7      :   1.342258
 C2      -C3      :   1.393232
 C2      -H8      :   1.085091
 C3      -C4      :   1.391277
 C3      -H9      :   1.084844
 C4      -C5      :   1.391277
 C4      -Br10    :   1.947925
 C5      -C6      :   1.393232
 C5      -H11     :   1.084844
 C6      -H12     :   1.085091
  
  bond angles:
 C6      -C1      -C2      : 121.957868
 F7      -C1      -C2      : 119.021066
 F7      -C1      -C6      : 119.021066
 C3      -C2      -C1      : 119.017472
 H8      -C2      -C1      : 119.690104
 H8      -C2      -C3      : 121.292424
 C4      -C3      -C2      : 119.222385
 H9      -C3      -C2      : 120.264752
 H9      -C3      -C4      : 120.512863
 C5      -C4      -C3      : 121.562417
 Br10    -C4      -C3      : 119.218791
 Br10    -C4      -C5      : 119.218791
 C6      -C5      -C4      : 119.222385
 H11     -C5      -C4      : 120.512863
 H11     -C5      -C6      : 120.264752
 C5      -C6      -C1      : 119.017472
 H12     -C6      -C1      : 119.690104
 H12     -C6      -C5      : 121.292424
  
  torsional angles:
 C1      -C2      -C3      -C4      :   0.000000
 C1      -C2      -C3      -H9      : 180.000000
 C1      -C6      -C5      -C4      :   0.000000
 C1      -C6      -C5      -H11     : 180.000000
 C2      -C1      -C6      -C5      :   0.000000
 C2      -C1      -C6      -H12     : 180.000000
 C2      -C3      -C4      -C5      :   0.000000
 C2      -C3      -C4      -Br10    : 179.999999
 C3      -C2      -C1      -C6      :   0.000000
 C3      -C2      -C1      -F7      : 180.000000
 C3      -C4      -C5      -C6      :   0.000000
 C3      -C4      -C5      -H11     : 180.000000
 C4      -C3      -C2      -H8      : 180.000000
 C4      -C5      -C6      -H12     : 180.000000
 C5      -C4      -C3      -H9      : 180.000000
 C5      -C6      -C1      -F7      : 180.000000
 C6      -C1      -C2      -H8      : 180.000000
 C6      -C5      -C4      -Br10    : 179.999999
 F7      -C1      -C2      -H8      :   0.000000
 F7      -C1      -C6      -H12     :   0.000000
 H8      -C2      -C3      -H9      :   0.000000
 H9      -C3      -C4      -Br10    :   0.000000
 Br10    -C4      -C5      -H11     :   0.000000
 H11     -C5      -C6      -H12     :   0.000000
  
  
  principal moments of inertia:
        amu*angstrom^2:       89.34944      830.99938      920.34883
                g*cm^2: 1.48368225E-38 1.37990677E-37 1.52827499E-37
   
  rotational constants:
               cm^(-1):      0.18867078      0.02028597      0.01831657
                   GHz:      5.65620759      0.60815810      0.54911680
   
 
  bond lengths (angstroms):
 
 C1      -C2      :   1.388705      C1      -C6      :   1.388705
 C1      -F7      :   1.342258      C2      -C3      :   1.393232
 C2      -H8      :   1.085091      C3      -C4      :   1.391277
 C3      -H9      :   1.084844      C4      -C5      :   1.391277
 C4      -Br10    :   1.947925      C5      -C6      :   1.393232
 C5      -H11     :   1.084844      C6      -H12     :   1.085091
 
  bond angles:
 
 C6      -C1      -C2      : 121.957868  F7      -C1      -C2      : 119.021066
 F7      -C1      -C6      : 119.021066  C3      -C2      -C1      : 119.017472
 H8      -C2      -C1      : 119.690104  H8      -C2      -C3      : 121.292424
 C4      -C3      -C2      : 119.222385  H9      -C3      -C2      : 120.264752
 H9      -C3      -C4      : 120.512863  C5      -C4      -C3      : 121.562417
 Br10    -C4      -C3      : 119.218791  Br10    -C4      -C5      : 119.218791
 C6      -C5      -C4      : 119.222385  H11     -C5      -C4      : 120.512863
 H11     -C5      -C6      : 120.264752  C5      -C6      -C1      : 119.017472
 H12     -C6      -C1      : 119.690104  H12     -C6      -C5      : 121.292424
 
  torsional angles:
 
 C1      -C2      -C3      -C4      :   0.000000
 C1      -C2      -C3      -H9      : 180.000000
 C1      -C6      -C5      -C4      :   0.000000
 C1      -C6      -C5      -H11     : 180.000000
 C2      -C1      -C6      -C5      :   0.000000
 C2      -C1      -C6      -H12     : 180.000000
 C2      -C3      -C4      -C5      :   0.000000
 C2      -C3      -C4      -Br10    : 179.999999
 C3      -C2      -C1      -C6      :   0.000000
 C3      -C2      -C1      -F7      : 180.000000
 C3      -C4      -C5      -C6      :   0.000000
 C3      -C4      -C5      -H11     : 180.000000
 C4      -C3      -C2      -H8      : 180.000000
 C4      -C5      -C6      -H12     : 180.000000
 C5      -C4      -C3      -H9      : 180.000000
 C5      -C6      -C1      -F7      : 180.000000
 C6      -C1      -C2      -H8      : 180.000000
 C6      -C5      -C4      -Br10    : 179.999999
 F7      -C1      -C2      -H8      :   0.000000
 F7      -C1      -C6      -H12     :   0.000000
 H8      -C2      -C3      -H9      :   0.000000
 H9      -C3      -C4      -Br10    :   0.000000
 Br10    -C4      -C5      -H11     :   0.000000
 H11     -C5      -C6      -H12     :   0.000000
 
  nuclear repulsion energy.......     310.979482773 hartrees
  -------------------------------------------------
 /  end of geometry optimization iteration   4   /
 -------------------------------------------------
   
  end of program geopt
   
 Time(geopt)  user:        2.2  user+sys:        2.2  wallclock:        2.4
  
  start of program onee
  
  smallest eigenvalue of S:    5.265E-04
  number of canonical orbitals.....          115
  end of program onee
   
 Time(onee)  user:        0.4  user+sys:        0.4  wallclock:        0.3
  
  start of program probe
  
  end of program probe
   
 Time(probe)  user:        0.2  user+sys:        0.2  wallclock:        0.1
  
  start of program grid
  
   grid     grid set  grid #  grid sym
  ------    --------  ------  --------
  coarse        0        0        1
  medium        2        1        4
  fine          0        0        1
  ultrafine     4        2        4
  charge       -1        3        4
  gradient      4        2        4
  density       0        0        1
  DFT-fine    -11        4        4
  DFT-med.    -10        5        4
  DFT-grad    -12        6        4
  DFT-der2     -8        7        4
  DFT-cphf     -9        8        4
  LMP2-enrg     4        2        4
  LMP2-grad     2        1        4
  DFT-cphf2   -15        9        4
  PBF-dens      0        0        1
  plotting      0        0        1
  Rel-grad    -17        0        1
  
  number of gridpoints: 
     atom        C1       C2       C3       C4       C5       C6       F7
  grid # 1       30       55       56       34        0        0      197
  grid # 2      116      183      184      136        0        0      190
  grid # 3       26       28       28       27        0        0      136
  grid # 4     2395     4541     4541     2395        0        0     2395
  grid # 5      480      756      756      480        0        0      480
  grid # 6     2004     3480     3480     2004        0        0     2004
  grid # 7     3736     6859     6859     3736        0        0     6750
  grid # 8      263      426      426      263        0        0      282
  grid # 9      146      229      229      146        0        0      156
   
  number of gridpoints: 
     atom        H8       H9     Br10      H11      H12    total
  grid # 1       68       69      177        0        0      686
  grid # 2      273      274      167        0        0     1523
  grid # 3      240      223      168        0        0      876
  grid # 4     4541     4541     2395        0        0    27744
  grid # 5      756      756      480        0        0     4944
  grid # 6     3480     3480     2600        0        0    22532
  grid # 7     7413     7413     2805        0        0    45571
  grid # 8      464      464      245        0        0     2833
  grid # 9      245      245      130        0        0     1526
   
  end of program grid
   
 Time(grid)  user:        0.4  user+sys:        0.4  wallclock:        0.3
  
  start of program rwr
  
  end of program rwr
   
 Time(rwr)  user:        0.3  user+sys:        0.3  wallclock:        0.3
  
  start of program ch
  
  gridpoints discarded for being within atomic van der Waals radii           64
  gridpoints used for charge fit          812
    out of a possible maximum of          876
  
   Electrostatic potential fitting constrained to reproduce
     total charge:                yes
     dipole moment:               no 
     traceless quadrupole moment: no 
     traceless octupole moment:   no 
  
  Atomic charges from electrostatic potential: 
   
 Atom       C1           C2           C3           C4           C5      
 Charge    0.41307     -0.38147      0.13053     -0.23953      0.13053
   
 Atom       C6           F7           H8           H9           Br10    
 Charge   -0.38147     -0.17880      0.19129      0.09383     -0.06308
   
 Atom       H11          H12     
 Charge    0.09383      0.19129
  
  sum of atomic charges:    -0.000000
   
 RMS Error   1.60E-03 hartrees
 
  end of program ch
   
 Time(ch)  user:        2.2  user+sys:        2.2  wallclock:        2.4
  
  start of program post
  
  Writing input files for PBF
  end of program post
   
 Time(post)  user:        2.1  user+sys:        2.1  wallclock:        2.3

  start of program pbf

Pbf Version 4.10

Molecular surface area:      142.76378   [A2]
Reaction field energy:        -2.21994   [kT]
  Peak memory usage: 729 Mb

  end of program pbf

 Time(pbf)  user:        0.2  user+sys:        0.2  wallclock:        0.2
  
  start of program solv
  
   number of surface charges from PBF    1464
   sum of surface charges     -0.00005
   
  nuclear repulsion energy.......     310.979482773 hartrees
  end of program solv
   
 Time(solv)  user:        0.2  user+sys:        0.2  wallclock:        0.1
  
  start of program scf
  
 Energy computed with NOPS off.
 Convergence Criterion:
    Energy (econv):       1.00E-05
    RMS density (dconv):  5.00E-06
  
       i  u  d  i  g                   
       t  p  i  c  r                                 RMS    maximum
       e  d  i  u  i                       energy  density   DIIS  
       r  t  s  t  d       total energy    change  change    error 
  
etot    1  N  N  2  U    -343.93977482470           3.1E-04  1.4E-03
etot    2  Y  Y  6  M    -343.93999041676  2.2E-04  8.5E-05  1.0E-03
etot    3  Y  Y  6  M    -343.93999508306  4.7E-06  3.6E-05  5.7E-04
etot    4  N  Y  2  U    -343.93991518282 -8.0E-05  1.7E-05  2.5E-04
etot    5  N  Y  2  U    -343.93991637075  1.2E-06  7.0E-06  7.8E-05
etot    6  N  Y  2  U    -343.93991650097  1.3E-07  3.3E-06  1.7E-05
etot    7  N  N  2  U    -343.93991650502  4.0E-09  0.0E+00  0.0E+00
 
  Computing the dispersion energy correction and its gradients...
  
  
 Energy components, in hartrees:
   (A)  Total zero-electron terms....     310.98487902210
   (B)    Nuclear-nuclear............     310.97948277271
   (C)    Nuclear-solvent............       0.00539624939
   (E)  Total one-electron terms.....   -1087.99700295422
   (F)    Electron-nuclear...........   -1421.08720556666
   (G)    Electron-solvent...........      -0.01047883632
   (H)    Kinetic....................     333.10068144876
   (I)  Total two-electron terms.....     433.07220742710
   (J)    Coulomb....................     480.07924674789
   (K)    Exchange+Correlation.......     -47.00703932079
   (L)  Electronic energy............    -654.92479552712  (E+I)
   (N0) D3 correction................      -0.00934437442
   (N)  Total quantum mech. energy...    -343.94926087944  (A+L+N0)
   (O)  Gas phase energy.............    -343.94431886692
   (P)  Solution phase energy........    -343.94671958598  (Q+R+S)
   (Q)    Total solute energy........    -343.94417829251  (N-C-G)
   (R)    Total solvent energy.......      -0.00254129347  (C/2+G/2)
   (S)    Solute cavity energy.......       0.00000000000
   (U)  Reorganization energy........       0.00014057441  (Q-O)
   (V)  Solvation energy.............      -0.00240071906  (P-O)
  
 SCFE:  Solution phase energy: DFT(b3pw91-d3)       -343.94671958598 hartrees
        SCF iterations:   7
  
 
 HOMO energy:    -0.24831
 LUMO energy:    -0.02725
 
  Orbital energies (hartrees)/symmetry label: 
   -24.70166 A1        -10.26955 A1        -10.24206 A1        -10.20052 B2     
   -10.20051 A1        -10.19345 A1        -10.19345 B2         -1.23665 A1     
    -0.89159 A1         -0.80983 A1         -0.77858 B2         -0.73166 A1     
    -0.64560 B2         -0.61623 A1         -0.55940 A1         -0.50831 B2     
    -0.48808 A1         -0.47503 B1         -0.46109 A1         -0.44880 B2     
    -0.41477 B2         -0.39212 B1         -0.37819 A1         -0.36179 B2     
    -0.31597 B1         -0.29802 B2         -0.27927 A2         -0.24831 B1     
    -0.02725 A2         -0.01517 B1         -0.01067 A1          0.09794 A1     
     0.14024 B2          0.14318 B1          0.16910 A1          0.18056 A1     
     0.19122 B2          0.25127 A1     
 
  end of program scf
   
 Time(scf)  user:        4.0  user+sys:        4.0  wallclock:        4.8
  
  start of program sole
  
    SCRF                   solvation energy
  iteration          Hartrees            kcal/mol
     0               0.0000000            0.0000
     1              -0.0024007           -1.5065
  
  solvation energy not yet converged... 
  
  end of program sole
   
 Time(sole)  user:        0.1  user+sys:        0.1  wallclock:        0.1
  
  start of program ch
  
  gridpoints discarded for being too close to bond charge centers            2
  gridpoints discarded for being within atomic van der Waals radii     11633248
  gridpoints used for charge fit         3248
    out of a possible maximum of         3248
  
   Electrostatic potential fitting constrained to reproduce
     total charge:                yes
     dipole moment:               no 
     traceless quadrupole moment: no 
     traceless octupole moment:   no 
  
  Atomic charges from electrostatic potential: 
   
 Atom       C1           C2           C3           C4           C5      
 Charge    0.41325     -0.38397      0.12256     -0.23845      0.12256
   
 Atom       C6           F7           H8           H9           Br10    
 Charge   -0.38397     -0.18460      0.20075      0.10322     -0.07532
   
 Atom       H11          H12     
 Charge    0.10322      0.20075
  
  sum of atomic charges:    -0.000000
   
 RMS Error   1.58E-03 hartrees
 
  end of program ch
   
 Time(ch)  user:        2.1  user+sys:        2.1  wallclock:        2.4
  
  start of program post
  
  Writing input files for PBF
  end of program post
   
 Time(post)  user:        2.1  user+sys:        2.1  wallclock:        2.3

  start of program pbf

Pbf Version 4.10

Molecular surface area:      142.76378   [A2]
Reaction field energy:        -2.56497   [kT]
  Peak memory usage: 729 Mb

  end of program pbf

 Time(pbf)  user:        0.2  user+sys:        0.2  wallclock:        0.2
  
  start of program solv
  
   number of surface charges from PBF    1464
   sum of surface charges     -0.00005
   
  nuclear repulsion energy.......     310.979482773 hartrees
  end of program solv
   
 Time(solv)  user:        0.2  user+sys:        0.2  wallclock:        0.1
  
  start of program scf
  
 Energy computed with NOPS off.
 Convergence Criterion:
    Energy (econv):       1.00E-05
    RMS density (dconv):  5.00E-06
  
       i  u  d  i  g                   
       t  p  i  c  r                                 RMS    maximum
       e  d  i  u  i                       energy  density   DIIS  
       r  t  s  t  d       total energy    change  change    error 
  
etot    1  N  N  2  U    -343.94030026883           2.9E-05  1.4E-04
etot    2  N  Y  2  U    -343.94030119672  9.3E-07  8.7E-06  8.5E-05
etot    3  N  Y  2  U    -343.94030140218  2.1E-07  3.2E-06  5.9E-05
etot    4  N  N  2  U    -343.94030147333  7.1E-08  0.0E+00  0.0E+00
 
  Computing the dispersion energy correction and its gradients...
  
  
 Energy components, in hartrees:
   (A)  Total zero-electron terms....     310.98100714089
   (B)    Nuclear-nuclear............     310.97948277271
   (C)    Nuclear-solvent............       0.00152436819
   (E)  Total one-electron terms.....   -1087.99446540818
   (F)    Electron-nuclear...........   -1421.08847805933
   (G)    Electron-solvent...........      -0.00701729601
   (H)    Kinetic....................     333.10102994716
   (I)  Total two-electron terms.....     433.07315679395
   (J)    Coulomb....................     480.08031674589
   (K)    Exchange+Correlation.......     -47.00715995193
   (L)  Electronic energy............    -654.92130861423  (E+I)
   (N0) D3 correction................      -0.00934437442
   (N)  Total quantum mech. energy...    -343.94964584775  (A+L+N0)
   (O)  Gas phase energy.............    -343.94431886692
   (P)  Solution phase energy........    -343.94689938384  (Q+R+S)
   (Q)    Total solute energy........    -343.94415291994  (N-C-G)
   (R)    Total solvent energy.......      -0.00274646391  (C/2+G/2)
   (S)    Solute cavity energy.......       0.00000000000
   (U)  Reorganization energy........       0.00016594698  (Q-O)
   (V)  Solvation energy.............      -0.00258051693  (P-O)
  
 SCFE:  Solution phase energy: DFT(b3pw91-d3)       -343.94689938384 hartrees
        SCF iterations:   4
  
 
 HOMO energy:    -0.24837
 LUMO energy:    -0.02707
 
  Orbital energies (hartrees)/symmetry label: 
   -24.70164 A1        -10.26947 A1        -10.24197 A1        -10.20031 B2     
   -10.20031 A1        -10.19325 A1        -10.19325 B2         -1.23663 A1     
    -0.89148 A1         -0.80992 A1         -0.77838 B2         -0.73172 A1     
    -0.64542 B2         -0.61610 A1         -0.55927 A1         -0.50819 B2     
    -0.48794 A1         -0.47500 B1         -0.46090 A1         -0.44852 B2     
    -0.41463 B2         -0.39209 B1         -0.37825 A1         -0.36159 B2     
    -0.31618 B1         -0.29836 B2         -0.27909 A2         -0.24837 B1     
    -0.02707 A2         -0.01509 B1         -0.01082 A1          0.09828 A1     
     0.14074 B2          0.14333 B1          0.16956 A1          0.18082 A1     
     0.19169 B2          0.25151 A1     
 
  end of program scf
   
 Time(scf)  user:        3.2  user+sys:        3.2  wallclock:        3.5
  
  start of program sole
  
    SCRF                   solvation energy
  iteration          Hartrees            kcal/mol
     0               0.0000000            0.0000
     1              -0.0024007           -1.5065
     2              -0.0025805           -1.6193
  
  solvation energy not yet converged... 
  
  end of program sole
   
 Time(sole)  user:        0.1  user+sys:        0.1  wallclock:        0.1
  
  start of program ch
  
  gridpoints discarded for being too close to bond charge centers            2
  gridpoints discarded for being within atomic van der Waals radii     11633248
  gridpoints used for charge fit         3248
    out of a possible maximum of         3248
  
   Electrostatic potential fitting constrained to reproduce
     total charge:                yes
     dipole moment:               no 
     traceless quadrupole moment: no 
     traceless octupole moment:   no 
  
  Atomic charges from electrostatic potential: 
   
 Atom       C1           C2           C3           C4           C5      
 Charge    0.41265     -0.38330      0.12121     -0.23754      0.12121
   
 Atom       C6           F7           H8           H9           Br10    
 Charge   -0.38330     -0.18484      0.20139      0.10402     -0.07692
   
 Atom       H11          H12     
 Charge    0.10402      0.20139
  
  sum of atomic charges:    -0.000000
   
 RMS Error   1.58E-03 hartrees
 
  end of program ch
   
 Time(ch)  user:        2.2  user+sys:        2.2  wallclock:        2.4
  
  start of program post
  
  Writing input files for PBF
  end of program post
   
 Time(post)  user:        2.1  user+sys:        2.1  wallclock:        2.3

  start of program pbf

Pbf Version 4.10

Molecular surface area:      142.76378   [A2]
Reaction field energy:        -2.59609   [kT]
  Peak memory usage: 729 Mb

  end of program pbf

 Time(pbf)  user:        0.2  user+sys:        0.2  wallclock:        0.2
  
  start of program solv
  
   number of surface charges from PBF    1464
   sum of surface charges     -0.00006
   
  nuclear repulsion energy.......     310.979482773 hartrees
  end of program solv
   
 Time(solv)  user:        0.2  user+sys:        0.2  wallclock:        0.1
  
  start of program scf
  
 Energy computed with NOPS off.
 Convergence Criterion:
    Energy (econv):       1.00E-05
    RMS density (dconv):  5.00E-06
  
       i  u  d  i  g                   
       t  p  i  c  r                                 RMS    maximum
       e  d  i  u  i                       energy  density   DIIS  
       r  t  s  t  d       total energy    change  change    error 
  
etot    1  N  N  2  U    -343.94033437134           4.4E-06  3.5E-05
etot    2  N  N  2  U    -343.94033437168  3.5E-10  0.0E+00  0.0E+00
 
  Computing the dispersion energy correction and its gradients...
  
  
 Energy components, in hartrees:
   (A)  Total zero-electron terms....     310.98017068176
   (B)    Nuclear-nuclear............     310.97948277271
   (C)    Nuclear-solvent............       0.00068790905
   (E)  Total one-electron terms.....   -1087.99271308005
   (F)    Electron-nuclear...........   -1421.08739571933
   (G)    Electron-solvent...........      -0.00621693425
   (H)    Kinetic....................     333.10089957354
   (I)  Total two-electron terms.....     433.07220802661
   (J)    Coulomb....................     480.07937020719
   (K)    Exchange+Correlation.......     -47.00716218058
   (L)  Electronic energy............    -654.92050505344  (E+I)
   (N0) D3 correction................      -0.00934437442
   (N)  Total quantum mech. energy...    -343.94967874610  (A+L+N0)
   (O)  Gas phase energy.............    -343.94431886692
   (P)  Solution phase energy........    -343.94691423350  (Q+R+S)
   (Q)    Total solute energy........    -343.94414972090  (N-C-G)
   (R)    Total solvent energy.......      -0.00276451260  (C/2+G/2)
   (S)    Solute cavity energy.......       0.00000000000
   (U)  Reorganization energy........       0.00016914601  (Q-O)
   (V)  Solvation energy.............      -0.00259536659  (P-O)
  
 SCFE:  Solution phase energy: DFT(b3pw91-d3)       -343.94691423350 hartrees
        SCF iterations:   2
  
 
 HOMO energy:    -0.24838
 LUMO energy:    -0.02708
 
  Orbital energies (hartrees)/symmetry label: 
   -24.70159 A1        -10.26930 A1        -10.24222 A1        -10.20041 B2     
   -10.20040 A1        -10.19318 A1        -10.19318 B2         -1.23657 A1     
    -0.89152 A1         -0.80993 A1         -0.77838 B2         -0.73173 A1     
    -0.64542 B2         -0.61610 A1         -0.55924 A1         -0.50819 B2     
    -0.48793 A1         -0.47495 B1         -0.46090 A1         -0.44852 B2     
    -0.41462 B2         -0.39214 B1         -0.37829 A1         -0.36156 B2     
    -0.31618 B1         -0.29838 B2         -0.27910 A2         -0.24838 B1     
    -0.02708 A2         -0.01511 B1         -0.01089 A1          0.09832 A1     
     0.14077 B2          0.14333 B1          0.16957 A1          0.18087 A1     
     0.19171 B2          0.25152 A1     
 
  end of program scf
   
 Time(scf)  user:        2.5  user+sys:        2.5  wallclock:        2.8
  
  start of program sole
  
    SCRF                   solvation energy
  iteration          Hartrees            kcal/mol
     0               0.0000000            0.0000
     1              -0.0024007           -1.5065
     2              -0.0025805           -1.6193
     3              -0.0025954           -1.6286
  
  stopping: solvation energy converged
  
  iterations:   3    sfinal:     -1.6286 kcal/mol
  
  end of program sole
   
 Time(sole)  user:        0.1  user+sys:        0.1  wallclock:        0.1
  
  start of program ch
  
  gridpoints discarded for being too close to bond charge centers            2
  gridpoints discarded for being within atomic van der Waals radii     11633248
  gridpoints used for charge fit         3248
    out of a possible maximum of         3248
  
   Electrostatic potential fitting constrained to reproduce
     total charge:                yes
     dipole moment:               no 
     traceless quadrupole moment: no 
     traceless octupole moment:   no 
  
  Atomic charges from electrostatic potential: 
   
 Atom       C1           C2           C3           C4           C5      
 Charge    0.41226     -0.38316      0.12092     -0.23678      0.12092
   
 Atom       C6           F7           H8           H9           Br10    
 Charge   -0.38316     -0.18479      0.20147      0.10413     -0.07741
   
 Atom       H11          H12     
 Charge    0.10413      0.20147
  
  sum of atomic charges:    -0.000000
   
 RMS Error   1.58E-03 hartrees
 
  end of program ch
   
 Time(ch)  user:        2.1  user+sys:        2.1  wallclock:        2.4
  
  start of program post
  
  Writing input files for PBF
  end of program post
   
 Time(post)  user:        2.1  user+sys:        2.1  wallclock:        2.3

  start of program pbf

Pbf Version 4.10
  Peak memory usage: 729 Mb

  end of program pbf

 Time(pbf)  user:        0.2  user+sys:        0.2  wallclock:        0.2
  
  start of program der1a
  
  end of program der1a
   
 Time(der1a)  user:        0.9  user+sys:        0.9  wallclock:        0.8
  
  start of program dsolv
  
   
  end of program dsolv
   
 Time(dsolv)  user:        0.1  user+sys:        0.1  wallclock:        0.1
  
  start of program rwr
  
  end of program rwr
   
 Time(rwr)  user:        0.3  user+sys:        0.3  wallclock:        0.2
  
  start of program der1b
  
   
  forces (hartrees/bohr) : total     
   
 atom  label           x              y              z
 ---- --------   -------------  -------------  -------------
    1 C1          0.000000E+00   5.737265E-20  -2.215422E-03
[...]
  --------------------------------------
        0.1534      -0.0000      -0.0000
        0.0000       0.0282      -0.0375
        0.0000      -0.0465       0.0244
  --------------------------------------
  
  APT for atom H9      
  --------------------------------------
        0.1383      -0.0000       0.0000
        0.0000       0.0237       0.0392
       -0.0000       0.0483       0.0614
  --------------------------------------
  
  APT for atom Br10    
  --------------------------------------
       -0.0736       0.0000       0.0000
       -0.0000      -0.0991       0.0000
        0.0000      -0.0000      -0.6653
  --------------------------------------
  
  APT for atom H11     
  --------------------------------------
        0.1383      -0.0000      -0.0000
       -0.0000       0.0236      -0.0392
       -0.0000      -0.0483       0.0614
  --------------------------------------
  
  APT for atom H12     
  --------------------------------------
        0.1534       0.0000      -0.0000
       -0.0000       0.0281       0.0375
        0.0000       0.0465       0.0244
  --------------------------------------
  
  end of program cphfa
   
 Time(cphfa)  user:       67.1  user+sys:       67.1  wallclock:       67.5
  
  start of program freq
  
   
  Number of frequencies:  30
  harmonic frequencies in cm**-1, reduced masses in amu,
  force constants in mDyne/A, and
  normal modes in cartesian coordinates:          30
  IR intensities in km/mol
  
  vibration #            1        2        3        4        5        6
                  -------- -------- -------- -------- -------- --------
  frequencies       113.30   220.48   279.21   324.56   418.62   425.18
  symmetries       B1       B2       A1       B1       B2       A2      
  intensities         0.54     0.76     1.17     2.13     2.20     0.00
  reduc. mass         4.13     3.65    21.18     2.21     3.09     1.66
  force const         0.03     0.10     0.97     0.14     0.32     0.18
    C1       X     0.00198  0.00000 -0.00000  0.09401  0.00000  0.00001
    C1       Y    -0.00000 -0.00844 -0.00000  0.00000 -0.10452  0.00007
    C1       Z    -0.00000 -0.00000  0.09243  0.00000 -0.00000  0.00000
    C2       X    -0.05850  0.00000 -0.00000  0.11206  0.00009  0.12573
    C2       Y    -0.00000 -0.04061 -0.01258  0.00000 -0.09799  0.00007
    C2       Z    -0.00000 -0.05161  0.06543  0.00000  0.03086 -0.00002
    C3       X    -0.10992  0.00000  0.00000 -0.05546 -0.00008 -0.12240
    C3       Y    -0.00000 -0.10522 -0.01345  0.00000  0.03914 -0.00003
    C3       Z    -0.00000 -0.04152  0.05408  0.00000  0.04472 -0.00003
    C4       X    -0.10209 -0.00000  0.00000 -0.15843 -0.00000  0.00001
    C4       Y    -0.00000 -0.12439  0.00000  0.00000  0.06459 -0.00004
    C4       Z    -0.00000  0.00000  0.01662 -0.00000  0.00000 -0.00000
    C5       X    -0.10992 -0.00000 -0.00000 -0.05546  0.00008  0.12240
    C5       Y    -0.00000 -0.10522  0.01345  0.00000  0.03914 -0.00003
    C5       Z    -0.00000  0.04152  0.05408  0.00000 -0.04471  0.00003
    C6       X    -0.05850  0.00000 -0.00000  0.11206 -0.00008 -0.12573
    C6       Y    -0.00000 -0.04061  0.01258  0.00000 -0.09799  0.00007
    C6       Z     0.00000  0.05161  0.06543  0.00000 -0.03086  0.00002
    F7       X     0.13707 -0.00000  0.00000 -0.08747 -0.00000 -0.00000
    F7       Y     0.00000  0.09758  0.00000 -0.00000  0.13700 -0.00010
    F7       Z    -0.00000 -0.00000  0.10010  0.00000 -0.00001  0.00000
    H8       X    -0.03561  0.00001 -0.00001  0.15716  0.00019  0.24380
    H8       Y     0.00000 -0.01760  0.00039 -0.00000 -0.15546  0.00010
    H8       Z    -0.00000 -0.09019  0.04519  0.00000  0.12479 -0.00009
    H9       X    -0.12580  0.00000  0.00000 -0.07660 -0.00018 -0.26470
    H9       Y    -0.00000 -0.12871  0.00001  0.00000  0.08034 -0.00006
    H9       Z    -0.00000 -0.08093  0.07669  0.00000  0.11602 -0.00008
    Br10     X     0.03757 -0.00000 -0.00000  0.01158 -0.00000 -0.00000
    Br10     Y     0.00000  0.04479  0.00000 -0.00000 -0.00709  0.00001
    Br10     Z     0.00000  0.00000 -0.08013 -0.00000  0.00000 -0.00000
    H11      X    -0.12579 -0.00000 -0.00000 -0.07660  0.00019  0.26464
    H11      Y    -0.00000 -0.12871 -0.00001  0.00000  0.08034 -0.00005
    H11      Z     0.00000  0.08093  0.07669  0.00000 -0.11602  0.00008
    H12      X    -0.03562  0.00002  0.00000  0.15717 -0.00018 -0.24383
    H12      Y    -0.00000 -0.01761 -0.00039  0.00000 -0.15544  0.00010
    H12      Z    -0.00000  0.09019  0.04519  0.00001 -0.12475  0.00008
  
  vibration #            7        8        9       10       11       12
                  -------- -------- -------- -------- -------- --------
  frequencies       512.26   587.62   633.13   694.99   827.69   834.26
  symmetries       B1       A1       B2       B1       A2       A1      
  intensities        16.69    38.95     0.19     0.11     0.00     0.01
  reduc. mass         2.10     2.72     2.32     1.75     0.29     2.26
  force const         0.33     0.55     0.55     0.50     0.12     0.93
    C1       X    -0.16498  0.00001 -0.00000 -0.14665  0.00011  0.00002
    C1       Y     0.00000 -0.00000 -0.03682  0.00000  0.00000 -0.00000
    C1       Z    -0.00000  0.07596  0.00000  0.00000  0.00000  0.00587
    C2       X     0.00971 -0.00001 -0.00000  0.08021 -0.06662  0.00001
    C2       Y    -0.00000 -0.05857 -0.06577 -0.00000 -0.00002 -0.07809
    C2       Z     0.00000 -0.05710 -0.11094  0.00001  0.00001  0.03306
    C3       X     0.06293  0.00001 -0.00000 -0.09154 -0.06482  0.00001
    C3       Y     0.00000 -0.05180  0.08094 -0.00001 -0.00003 -0.12030
    C3       Z     0.00000 -0.07171 -0.11446  0.00000  0.00002  0.06482
    C4       X    -0.14342 -0.00001  0.00001  0.13414  0.00006  0.00000
    C4       Y     0.00000  0.00000  0.04070 -0.00000 -0.00000  0.00000
    C4       Z     0.00000 -0.12708  0.00000 -0.00002 -0.00001 -0.09024
    C5       X     0.06296  0.00001 -0.00001 -0.09154  0.06470 -0.00002
    C5       Y     0.00000  0.05180  0.08094  0.00000  0.00002  0.12030
    C5       Z     0.00000 -0.07172  0.11446 -0.00001  0.00002  0.06483
    C6       X     0.00970 -0.00000  0.00000  0.08020  0.06650 -0.00002
    C6       Y     0.00000  0.05856 -0.06577  0.00001  0.00002  0.07809
    C6       Z     0.00000 -0.05711  0.11094 -0.00001  0.00001  0.03306
    F7       X     0.03685 -0.00000 -0.00000  0.01095 -0.00002 -0.00000
    F7       Y    -0.00000  0.00001 -0.03986  0.00000 -0.00000 -0.00000
    F7       Z    -0.00000  0.12628  0.00000  0.00000 -0.00003 -0.10248
    H8       X     0.24353  0.00001  0.00002  0.26086  0.47149 -0.00010
    H8       Y    -0.00001  0.00176 -0.08430 -0.00000 -0.00002 -0.06184
    H8       Z     0.00000 -0.15542 -0.08026 -0.00000 -0.00000 -0.00289
    H9       X     0.30175  0.00002 -0.00001 -0.12404  0.41448 -0.00005
    H9       Y     0.00000 -0.02175  0.09927 -0.00001 -0.00001 -0.05555
    H9       Z     0.00000 -0.02153 -0.08442  0.00001  0.00004  0.18216
    Br10     X     0.00200  0.00000 -0.00000 -0.00078 -0.00000 -0.00000
    Br10     Y    -0.00000 -0.00000  0.00401 -0.00000  0.00000  0.00000
    Br10     Z    -0.00000  0.02107  0.00000  0.00000 -0.00000  0.00315
    H11      X     0.30177  0.00001 -0.00000 -0.12406 -0.41370  0.00015
    H11      Y     0.00000  0.02175  0.09927 -0.00000  0.00001  0.05555
    H11      Z     0.00000 -0.02154  0.08441  0.00000  0.00005  0.18216
    H12      X     0.24347 -0.00002  0.00002  0.26090 -0.47077  0.00011
    H12      Y     0.00001 -0.00175 -0.08429  0.00001  0.00001  0.06184
    H12      Z     0.00001 -0.15541  0.08026  0.00000 -0.00002 -0.00289
  
  vibration #           13       14       15       16       17       18
                  -------- -------- -------- -------- -------- --------
  frequencies       845.51   951.90   966.66  1021.14  1081.39  1135.74
  symmetries       B1       B1       A2       A1       A1       B2      
  intensities        71.50     0.53     0.00    38.07    25.64     7.90
  reduc. mass         0.47     0.29     0.35     2.46     1.96     0.29
  force const         0.20     0.16     0.19     1.51     1.35     0.22
    C1       X    -0.10761  0.02069 -0.00003 -0.00001 -0.00000 -0.00000
    C1       Y    -0.00000  0.00000  0.00000  0.00000 -0.00000  0.02243
    C1       Z    -0.00000  0.00001  0.00000  0.02063  0.01019  0.00002
    C2       X     0.06842 -0.06594 -0.07010  0.00002  0.00000 -0.00000
    C2       Y    -0.00000 -0.00003 -0.00000 -0.15113 -0.00672 -0.02920
    C2       Z     0.00000 -0.00000  0.00000 -0.04604 -0.05119 -0.05668
    C3       X     0.05905  0.06796  0.07720 -0.00001 -0.00000  0.00000
    C3       Y    -0.00001  0.00001  0.00000  0.06381 -0.08631 -0.02588
    C3       Z     0.00000  0.00000 -0.00000 -0.00967  0.01659  0.06067
    C4       X    -0.05713 -0.01436  0.00003  0.00000  0.00000 -0.00000
    C4       Y     0.00000  0.00000 -0.00001 -0.00001  0.00002  0.04510
    C4       Z    -0.00001  0.00001  0.00001  0.10854  0.17691 -0.00005
    C5       X     0.05917  0.06773 -0.07742 -0.00001  0.00000 -0.00000
    C5       Y     0.00002 -0.00001 -0.00000 -0.06381  0.08630 -0.02601
    C5       Z     0.00001 -0.00000  0.00000 -0.00966  0.01655 -0.06065
    C6       X     0.06855 -0.06572  0.07030  0.00001 -0.00000  0.00001
    C6       Y    -0.00000  0.00003  0.00001  0.15114  0.00669 -0.02918
    C6       Z     0.00001 -0.00001 -0.00001 -0.04605 -0.05116  0.05669
    F7       X     0.01997 -0.00688  0.00001  0.00000 -0.00000  0.00000
    F7       Y    -0.00000 -0.00000 -0.00000 -0.00000  0.00000 -0.00413
    F7       Z    -0.00001 -0.00001 -0.00000 -0.01276 -0.00017 -0.00002
    H8       X    -0.38512  0.42607  0.40366 -0.00011 -0.00001  0.00001
    H8       Y     0.00000 -0.00004 -0.00001 -0.22628  0.14113  0.19433
    H8       Z    -0.00000  0.00001  0.00000  0.06621 -0.30410 -0.43933
    H9       X    -0.39681 -0.45284 -0.44966  0.00006  0.00001 -0.00001
    H9       Y    -0.00001  0.00002 -0.00001  0.11259 -0.20748  0.14207
    H9       Z     0.00000  0.00002 -0.00002  0.08015 -0.16984  0.36057
    Br10     X     0.00143  0.00077 -0.00000 -0.00000  0.00000  0.00000
    Br10     Y     0.00000 -0.00000  0.00000  0.00000 -0.00000 -0.00109
    Br10     Z     0.00000 -0.00000 -0.00000 -0.00337 -0.00578  0.00000
    H11      X    -0.39759 -0.45150  0.45106  0.00004 -0.00003  0.00002
    H11      Y     0.00001 -0.00002 -0.00000 -0.11261  0.20755  0.14164
    H11      Z     0.00002  0.00001  0.00000  0.08019 -0.17002 -0.36006
    H12      X    -0.38606  0.42482 -0.40491 -0.00006  0.00004 -0.00005
    H12      Y    -0.00001  0.00005 -0.00001  0.22622 -0.14096  0.19418
    H12      Z    -0.00002  0.00003 -0.00004  0.06609 -0.30375  0.43907
  
  vibration #           19       20       21       22       23       24
                  -------- -------- -------- -------- -------- --------
  frequencies      1199.62  1295.46  1321.09  1361.53  1449.02  1538.96
  symmetries       A1       A1       B2       B2       B2       A1      
  intensities         9.66   105.60     1.08     0.00     2.25   166.38
  reduc. mass         0.24     3.04     0.33     2.34     1.18     1.02
  force const         0.20     3.00     0.34     2.55     1.46     1.42
    C1       X    -0.00000  0.00000 -0.00000  0.00000  0.00000 -0.00000
    C1       Y    -0.00003  0.00004  0.08961  0.13487  0.07782 -0.00002
    C1       Z     0.03921 -0.19287  0.00012  0.00000  0.00002  0.10706
    C2       X     0.00000 -0.00000  0.00000 -0.00000 -0.00000 -0.00000
    C2       Y     0.01332  0.01690  0.01133 -0.06552 -0.01104  0.06298
    C2       Z    -0.02447 -0.06124 -0.03235  0.06853 -0.11320 -0.02559
    C3       X     0.00000  0.00000 -0.00000  0.00000  0.00000 -0.00000
    C3       Y     0.05032 -0.04412 -0.01849 -0.07361 -0.02445 -0.07151
    C3       Z     0.03113  0.04694 -0.02807 -0.07434  0.10286 -0.08977
    C4       X    -0.00000 -0.00000 -0.00000 -0.00000  0.00000  0.00000
    C4       Y    -0.00002 -0.00003 -0.07014  0.15778  0.08538  0.00001
    C4       Z    -0.01214  0.02220  0.00000 -0.00000  0.00001  0.08367
    C5       X    -0.00000  0.00000  0.00000 -0.00000 -0.00000 -0.00000
    C5       Y    -0.05028  0.04410 -0.01852 -0.07362 -0.02444  0.07151
    C5       Z     0.03120  0.04696  0.02802  0.07434 -0.10286 -0.08976
    C6       X    -0.00000 -0.00000 -0.00000  0.00000  0.00000  0.00000
    C6       Y    -0.01330 -0.01689  0.01132 -0.06552 -0.01106 -0.06297
    C6       Z    -0.02456 -0.06120  0.03238 -0.06854  0.11318 -0.02560
    F7       X    -0.00000  0.00000 -0.00000  0.00000 -0.00000  0.00000
    F7       Y     0.00001 -0.00000 -0.00818 -0.00186 -0.01264  0.00000
    F7       Z    -0.02261  0.09318 -0.00005 -0.00000 -0.00000 -0.02798
    H8       X     0.00000  0.00000 -0.00000  0.00000  0.00000  0.00000
    H8       Y     0.24477 -0.09000 -0.20619 -0.02168 -0.19373 -0.07722
    H8       Z    -0.40701  0.09862  0.32892 -0.01340  0.16694  0.23122
    H9       X    -0.00000 -0.00000  0.00000 -0.00000 -0.00000 -0.00000
    H9       Y     0.25299  0.07258  0.24355 -0.03911 -0.19225  0.14418
    H9       Z     0.37460  0.26357  0.42516 -0.00599 -0.16007  0.29443
    Br10     X     0.00000  0.00000  0.00000  0.00000 -0.00000 -0.00000
    Br10     Y     0.00000  0.00000  0.00024 -0.00019 -0.00112  0.00000
    Br10     Z     0.00013 -0.00138  0.00000 -0.00000  0.00000 -0.00061
    H11      X    -0.00000 -0.00000 -0.00001  0.00000  0.00001  0.00000
    H11      Y    -0.25319 -0.07233  0.24356 -0.03911 -0.19228 -0.14420
    H11      Z     0.37510  0.26312 -0.42528  0.00597  0.16014  0.29447
    H12      X     0.00003 -0.00000  0.00002 -0.00000  0.00000 -0.00001
    H12      Y    -0.24489  0.08980 -0.20637 -0.02167 -0.19377  0.07730
    H12      Z    -0.40737  0.09832 -0.32914  0.01340 -0.16700  0.23133
  
  vibration #           25       26       27       28       29       30
                  -------- -------- -------- -------- -------- --------
  frequencies      1657.45  1664.35  3219.76  3221.73  3234.55  3235.34
  symmetries       B2       A1       A1       B2       B2       A1      
  intensities         2.71    17.21     0.72     0.10     0.09     0.69
  reduc. mass         2.19     1.96     0.26     0.26     0.27     0.26
  force const         3.54     3.20     1.60     1.62     1.63     1.62
    C1       X    -0.00000 -0.00000  0.00000 -0.00000 -0.00000 -0.00000
    C1       Y     0.15875  0.00001  0.00001  0.00338  0.00320  0.00003
    C1       Z    -0.00001  0.11176  0.00320 -0.00001  0.00003 -0.00278
    C2       X     0.00000  0.00000  0.00000 -0.00000 -0.00000 -0.00000
    C2       Y    -0.09155  0.04504  0.04218 -0.04260 -0.02810 -0.02931
    C2       Z     0.03776 -0.12897  0.02333 -0.02411 -0.01892 -0.01908
    C3       X    -0.00000 -0.00000  0.00000 -0.00000 -0.00000 -0.00000
    C3       Y     0.08251  0.02326 -0.02917  0.02898 -0.04200 -0.04311
    C3       Z     0.04193  0.10575  0.01446 -0.01486  0.02591  0.02581
    C4       X    -0.00000 -0.00000 -0.00000 -0.00000  0.00000 -0.00000
    C4       Y    -0.13076 -0.00002 -0.00001 -0.00158  0.00382  0.00004
    C4       Z     0.00001 -0.04779  0.00176 -0.00001 -0.00003  0.00320
    C5       X     0.00000  0.00000 -0.00000  0.00000 -0.00000  0.00000
    C5       Y     0.08252 -0.02324  0.02940  0.02875 -0.04283  0.04229
    C5       Z    -0.04196  0.10574  0.01458  0.01475 -0.02640  0.02530
    C6       X    -0.00000  0.00000 -0.00000 -0.00000  0.00000  0.00000
    C6       Y    -0.09154 -0.04506 -0.04253 -0.04226 -0.02866  0.02875
    C6       Z    -0.03773 -0.12898  0.02353  0.02392  0.01929 -0.01871
    F7       X     0.00000  0.00000  0.00000 -0.00000 -0.00000 -0.00000
    F7       Y    -0.00634 -0.00000 -0.00000 -0.00014 -0.00016 -0.00000
    F7       Z     0.00000 -0.01674 -0.00047  0.00000 -0.00000  0.00045
    H8       X    -0.00001 -0.00000 -0.00000  0.00000  0.00000  0.00000
    H8       Y    -0.01701 -0.11459 -0.47607  0.48172  0.31835  0.32802
    H8       Z    -0.10759  0.13671 -0.28358  0.28766  0.19329  0.19849
    H9       X     0.00001 -0.00000  0.00000 -0.00000 -0.00000 -0.00000
    H9       Y     0.00062 -0.08364  0.32997 -0.32927  0.47702  0.48418
    H9       Z    -0.11515 -0.06976 -0.18918  0.18887 -0.27832 -0.28204
    Br10     X     0.00000  0.00000 -0.00000 -0.00000  0.00000  0.00000
    Br10     Y     0.00044  0.00000  0.00000  0.00001 -0.00001 -0.00000
    Br10     Z     0.00000 -0.00035 -0.00006  0.00000  0.00000 -0.00008
    H11      X    -0.00001 -0.00000 -0.00000 -0.00000  0.00000  0.00000
    H11      Y     0.00059  0.08365 -0.33259 -0.32656  0.48632 -0.47489
    H11      Z     0.11520 -0.06974 -0.19068 -0.18731  0.28374 -0.27662
    H12      X     0.00000 -0.00000  0.00000  0.00000  0.00000 -0.00000
    H12      Y    -0.01702  0.11462  0.47998  0.47788  0.32459 -0.32178
    H12      Z     0.10759  0.13679 -0.28591 -0.28536 -0.19707  0.19470
  
  Number of imaginary frequencies:   0
   
  Writing vibrational animation data to Br-F-Benzene.vib
  Writing IR vibrational spectrum data to Br-F-Benzene_vib.spm
  rotational symmetry number:  2

  rotational temperatures (K):      0.270326      0.029174      0.026332
   
  The Quasi-Harmonic approximation will be applied to compute
  vibrational constributions to thermodynamic properties.
  Frequencies will be adjusted to a minimum value of  100.00 cm^-1.

  vibrational temperatures:
       mode:      1        2        3        4        5        6
  temp. (K):   163.02   317.23   401.72   466.97   602.30   611.74
   
       mode:      7        8        9       10       11       12
  temp. (K):   737.03   845.45   910.94   999.93  1190.86  1200.32
   
       mode:     13       14       15       16       17       18
  temp. (K):  1216.50  1369.57  1390.81  1469.19  1555.88  1634.08
   
       mode:     19       20       21       22       23       24
  temp. (K):  1725.98  1863.88  1900.75  1958.94  2084.81  2214.21
   
       mode:     25       26       27       28       29       30
  temp. (K):  2384.70  2394.63  4632.51  4635.34  4653.79  4654.93
   
   
  Thermodynamic properties calculated assuming an ideal gas

  In the table below, the units for temperature
  are kelvins, the units for U, H, and G are
  kcal/mol and the units for Cv and S are cal/(mol K)

  The zero point energy (ZPE):     51.854 kcal/mol
  is not included in U, H, or G in the table below
  
 
  =============================================================================
  Thermodynamic properties for P = 1.00E+00 atm, calculated at   1 temperatures


  T =   298.15 K, P = 1.00E+00 atm
   
                  U         Cv          S          H          G        ln(Q)
              =========  =========  =========  =========  =========  =========
  trans.          0.889      2.981     41.368      1.481    -10.853   18.31726
  rot.            0.889      2.981     28.150      0.889     -7.504   12.66541
  vib.            2.341     18.398     12.691      2.341     -1.443    2.43596
  elec.           0.000      0.000      0.000      0.000      0.000    0.00000
  ----------------------------------------------------------------------------
  total           4.118     24.360     82.209      4.710    -19.800   33.41862
   
   Total internal energy, Utot(SCFE + ZPE + U):    -343.857726 hartrees
   Total enthalpy, Htot (Utot + nRT), with n=1:    -343.856782 hartrees
    Total Gibbs free energy, Gtot (Htot - T*S):    -343.895842 hartrees
   
  end of program freq
   
 Time(freq)  user:        2.5  user+sys:        2.5  wallclock:        3.6
  
  start of program post
  
  Writing input files for PBF
  end of program post
   
 Time(post)  user:        2.3  user+sys:        2.3  wallclock:        2.4

 Total cpu seconds     user:     203.219   user+sys:     203.219
  
 Total elapsed time:    284 seconds

Job Br-F-Benzene completed on bp1-compute032.data.bp.acrc.priv at Wed Nov  8 17:54:44 2023
