Job HOtBu_freq started on bp1-compute166.data.bp.acrc.priv at Thu Dec 15 17:42:49 2022
jobid: bp1-compute166-0-639b5c96

  +--------------------------------------------------------------------+
  |  Jaguar version 11.4, release 135                                  |
  |                                                                    |
  |  Copyright Schrodinger, Inc.                                       |
  |  All Rights Reserved.                                              |
  |                                                                    |
  |  The following have contributed to Jaguar (listed alphabetically): |
  |  Mike Beachy, Art Bochevarov, Dale Braden, Yixiang Cao,            |
  |  Alan Chien, Chris Cortis, Rich Friesner, Bill Goddard,            |
  |  Hod Greeley, Tom Hughes, Leif Jacobson, Jean-Marc Langlois,       |
  |  Daniel Levine, Daniel Mainz, Rob Murphy, Dean Philipp,            |
  |  Tom Pollard, Murco Ringnalda, Mark Watson, Haoyu Yu.              |
  |                                                                    |
  |  Use of this program should be acknowledged in publications as:    |
  |                                                                    |
  |  Jaguar, version 11.4, Schrodinger, Inc., New York, NY, 2021.      |
  |                                                                    |
  |  A. D. Bochevarov, E. Harder, T. F. Hughes, J. R. Greenwood,       |
  |  D. A. Braden, D. M. Philipp, D. Rinaldo, M. D. Halls,             |
  |  J. Zhang, R. A. Friesner, "Jaguar: A High-Performance Quantum     |
  |  Chemistry Software Program with Strengths in Life and Materials   |
  |  Sciences", Int. J. Quantum Chem., 2013, 113(18), 2110-2142.       |
  +--------------------------------------------------------------------+
  
  start of program pre
  
  Job name: HOtBu_freq
  Executables used: /sw/apps/schrodinger2021-4/jaguar-v11.4/bin/Linux-x86_64
  Temporary files : /tmp/ar21627/HOtBu_freq
  Maestro file (input):  HOtBu_freq.mae
  Maestro file (output): HOtBu_freq.01.mae
  
 Contents of input file: &gen section only
 ----------------Contents start----------------
&gen
dftname=b3pw91-d3
basis=6-31g*
numd=5
ip11=2
iaccg=3
isolv=2
ifreq=1
solvent=benzene
esolv0=    -233.59478254793
nogas=1
&
 -----------------Contents end-----------------
 
  basis set:             6-31g*                          
  net molecular charge:    0
  multiplicity:            1
  
  number of basis functions....           90
  
 Input geometry:
                                   angstroms
  atom               x                 y                 z
  O1           -1.3675057325     -0.3336027485      0.0000000000 
  H2           -1.4345215414     -1.3020180908      0.0000000000 
  C3            0.0269276924      0.0036244188      0.0000000000 
  C4            0.0718483360      1.5300139664      0.0000000000 
  C5            0.6950448515     -0.5546039743      1.2604020116 
  C6            0.6950448515     -0.5546039743     -1.2604020116 
  H7            1.1077451118      1.8862717159      0.0000000000 
  H8           -0.4335662658      1.9253393247     -0.8880999028 
  H9           -0.4335662658      1.9253393247      0.8880999028 
  H10           1.7532200302     -0.2712206223      1.3087612804 
  H11           0.1897622176     -0.1744691511      2.1551439406 
  H12           0.6417918103     -1.6513277573      1.2746734994 
  H13           1.7532200302     -0.2712206223     -1.3087612804 
  H14           0.6417918103     -1.6513277573     -1.2746734994 
  H15           0.1897622176     -0.1744691511     -2.1551439406 
   
  principal moments of inertia:
        amu*angstrom^2:      107.60517      108.09037      112.09723
                g*cm^2: 1.78682564E-38 1.79488256E-38 1.86141806E-38
   
  rotational constants:
               cm^(-1):      0.15666189      0.15595866      0.15038399
                   GHz:      4.69660531      4.67552307      4.50839873
   
  Molecular weight:      74.07 amu
   
  Stoichiometry: C4H10O
  Molecular Point Group: Cs      
	Molecule translated to center of mass 
	Molecule reoriented along symmetry axes
  Point Group used: Cs
  
  
 Symmetrized geometry:
                                   angstroms
  atom               x                 y                 z
  O1           -1.3675057325     -0.3336027485      0.0000000000 
  H2           -1.4345215414     -1.3020180908      0.0000000000 
  C3            0.0269276924      0.0036244188      0.0000000000 
  C4            0.0718483360      1.5300139664      0.0000000000 
  C5            0.6950448515     -0.5546039743      1.2604020116 
  C6            0.6950448515     -0.5546039743     -1.2604020116 
  H7            1.1077451118      1.8862717159      0.0000000000 
  H8           -0.4335662658      1.9253393247     -0.8880999028 
  H9           -0.4335662658      1.9253393247      0.8880999028 
  H10           1.7532200302     -0.2712206223      1.3087612804 
  H11           0.1897622176     -0.1744691511      2.1551439406 
  H12           0.6417918103     -1.6513277573      1.2746734994 
  H13           1.7532200302     -0.2712206223     -1.3087612804 
  H14           0.6417918103     -1.6513277573     -1.2746734994 
  H15           0.1897622176     -0.1744691511     -2.1551439406 
   
 
  bond lengths (angstroms):
 
 O1      -H2      :   0.970731      O1      -C3      :   1.434631
 C3      -C4      :   1.527050      C3      -C5      :   1.531866
 C3      -C6      :   1.531866      C4      -H7      :   1.095446
 C4      -H8      :   1.095649      C4      -H9      :   1.095649
 C5      -H10     :   1.096531      C5      -H11     :   1.095617
 C5      -H12     :   1.098109      C6      -H13     :   1.096531
 C6      -H14     :   1.098109      C6      -H15     :   1.095617
 
  bond angles:
 
 C3      -O1      -H2      : 107.553916  C4      -C3      -O1      : 105.280963
 C5      -C3      -O1      : 109.771282  C5      -C3      -C4      : 110.574385
 C6      -C3      -O1      : 109.771282  C6      -C3      -C4      : 110.574385
 C6      -C3      -C5      : 110.729894  H7      -C4      -C3      : 110.664420
 H8      -C4      -C3      : 110.309305  H8      -C4      -H7      : 108.594804
 H9      -C4      -C3      : 110.309305  H9      -C4      -H7      : 108.594804
 H9      -C4      -H8      : 108.303213  H10     -C5      -C3      : 111.284539
 H11     -C5      -C3      : 110.142444  H11     -C5      -H10     : 108.624865
 H12     -C5      -C3      : 110.701143  H12     -C5      -H10     : 107.718230
 H12     -C5      -H11     : 108.272889  H13     -C6      -C3      : 111.284539
 H14     -C6      -C3      : 110.701143  H14     -C6      -H13     : 107.718230
 H15     -C6      -C3      : 110.142444  H15     -C6      -H13     : 108.624865
 H15     -C6      -H14     : 108.272889
 
  torsional angles:
 
 O1      -C3      -C4      -H7      : 179.999999
 O1      -C3      -C4      -H8      : -59.802963
 O1      -C3      -C4      -H9      :  59.802963
 O1      -C3      -C5      -H10     :-177.373532
 O1      -C3      -C5      -H11     : -56.844894
 O1      -C3      -C5      -H12     :  62.866094
 O1      -C3      -C6      -H13     : 177.373532
 O1      -C3      -C6      -H14     : -62.866094
 O1      -C3      -C6      -H15     :  56.844894
 H2      -O1      -C3      -C4      : 180.000000
 H2      -O1      -C3      -C5      : -60.965804
 H2      -O1      -C3      -C6      :  60.965804
 C4      -C3      -C5      -H10     : -61.647423
 C4      -C3      -C5      -H11     :  58.881216
 C4      -C3      -C5      -H12     : 178.592204
 C4      -C3      -C6      -H13     :  61.647423
 C4      -C3      -C6      -H14     :-178.592204
 C4      -C3      -C6      -H15     : -58.881216
 C5      -C3      -C4      -H7      :  61.503274
 C5      -C3      -C4      -H8      :-178.299689
 C5      -C3      -C4      -H9      : -58.693763
 C5      -C3      -C6      -H13     : -61.268735
 C5      -C3      -C6      -H14     :  58.491639
 C5      -C3      -C6      -H15     : 178.202627
 C6      -C3      -C4      -H7      : -61.503274
 C6      -C3      -C4      -H8      :  58.693763
 C6      -C3      -C4      -H9      : 178.299689
 C6      -C3      -C5      -H10     :  61.268735
 C6      -C3      -C5      -H11     :-178.202627
 C6      -C3      -C5      -H12     : -58.491639
 
  nuclear repulsion energy.......     199.174315738 hartrees
 
 Non-default options chosen:
   HF Initial guess: read from Jaguar .in file
   SCF calculation type: DFT(b3pw91-d3)              
   DFT=Becke_3_Parameter/HF+Slater+Becke88+PW91+PW-GGAIIC (B3PW91-D3)
   Solvation energy will be computed using PBF
     -solute cavity energy will not be included
     -surface area terms will not be included
   Vibrational frequencies and related properties will be computed
      from analytic second derivatives
   IR intensities will be computed
   Thermochemical properties will be computed
   Solvent: benzene                                                         
   Internal dielectric constant:    1.000
   Continuum dielectric constant:   2.283
   Solvent probe molecule radius:   2.600
  
 Non-default print settings:
     11=  2
  
 Temporary integer options set:
     73=  2
  
  atom       vdw   vdw2    cov     mass  grid  daf  charge   basis
  O1        1.702  1.600  0.730   15.995    Y    Y      Y    6-31g*
  H2        1.597  1.150  0.320    1.008    Y    Y      Y    6-31g*
  C3        1.949  1.900  0.770   12.000    Y    Y      Y    6-31g*
  C4        1.949  1.900  0.770   12.000    Y    Y      Y    6-31g*
  C5        1.949  1.900  0.770   12.000    Y    Y      Y    6-31g*
  C6        1.949  1.900  0.770   12.000    Y    Y      Y    6-31g*
  H7        1.597  1.150  0.320    1.008    Y    Y      Y    6-31g*
  H8        1.597  1.150  0.320    1.008    Y    Y      Y    6-31g*
  H9        1.597  1.150  0.320    1.008    Y    Y      Y    6-31g*
  H10       1.597  1.150  0.320    1.008    Y    Y      Y    6-31g*
  H11       1.597  1.150  0.320    1.008    Y    Y      Y    6-31g*
  H12       1.597  1.150  0.320    1.008    Y    Y      Y    6-31g*
  H13       1.597  1.150  0.320    1.008    Y    Y      Y    6-31g*
  H14       1.597  1.150  0.320    1.008    Y    Y      Y    6-31g*
  H15       1.597  1.150  0.320    1.008    Y    Y      Y    6-31g*
  
  end of program pre
   
 Time(pre)  user:        2.3  user+sys:        2.3  wallclock:        2.4
  
  start of program onee
  
  smallest eigenvalue of S:    4.154E-03
  number of canonical orbitals.....           90
  end of program onee
   
 Time(onee)  user:        0.2  user+sys:        0.2  wallclock:        0.1
  
  start of program hfig
  
  initial wavefunction read from .in file
  reading wavefunction from input file
          31  orbitals read from .in file
  virtual orbitals input are ignored
  Largest Normalization error   2.622502215388067E-011
  RMS Normalization error   5.252757320274129E-012
 
  Irreducible     Total no   No of occupied orbitals 
  representation  orbitals   Shell_1  Shell_2    ...
  Ap                56         14
  App               34          7
  ------------------------
  Orbital occupation/shell    1.000
 
  end of program hfig
   
 Time(hfig)  user:        0.1  user+sys:        0.1  wallclock:        0.1
  
  start of program probe
  
  end of program probe
   
 Time(probe)  user:        0.1  user+sys:        0.1  wallclock:        0.1
  
  start of program grid
  
   grid     grid set  grid #  grid sym
  ------    --------  ------  --------
  coarse        0        0        1
  medium        2        1        2
  fine          0        0        1
  ultrafine     4        2        2
  charge       -1        3        2
  gradient      4        2        2
  density       0        0        1
  DFT-fine    -11        4        2
  DFT-med.    -10        5        2
  DFT-grad    -12        6        2
  DFT-der2     -8        7        2
  DFT-cphf     -9        8        2
  LMP2-enrg     4        2        2
  LMP2-grad     2        1        2
  DFT-cphf2   -15        9        2
  PBF-dens      0        0        1
  plotting      0        0        1
  Rel-grad    -17        0        1
  
  number of gridpoints: 
     atom        O1       H2       C3       C4       C5       C6       H7
  grid # 1       66       66       57       47       79        0       65
  grid # 2      246      258      192      160      267        0      258
  grid # 3       86      202        5        5        6        0      183
  grid # 4     2430     2430     2430     2430     4304        0     2430
  grid # 5      756      756      756      756     1192        0      756
  grid # 6     3001     3001     3001     3001     5226        0     3001
  grid # 7    12534     7413     6859     6859    12650        0     7413
  grid # 8      441      464      426      426      688        0      464
  grid # 9      234      245      229      229      358        0      245
   
  number of gridpoints: 
     atom        H8       H9      H10      H11      H12      H13      H14
  grid # 1        0      110      108      110      109        0        0
  grid # 2        0      437      436      436      435        0        0
  grid # 3        0      309      295      310      288        0        0
  grid # 4        0     4304     4304     4304     4304        0        0
  grid # 5        0     1192     1192     1192     1192        0        0
  grid # 6        0     5226     5226     5226     5226        0        0
  grid # 7        0    13718    13718    13718    13718        0        0
  grid # 8        0      744      744      744      744        0        0
  grid # 9        0      382      382      382      382        0        0
   
  number of gridpoints: 
     atom       H15    total
  grid # 1        0      817
  grid # 2        0     3125
  grid # 3        0     1689
  grid # 4        0    33670
  grid # 5        0     9740
  grid # 6        0    41135
  grid # 7        0   108600
  grid # 8        0     5885
  grid # 9        0     3068
   
  end of program grid
   
 Time(grid)  user:        0.7  user+sys:        0.7  wallclock:        0.7
  
  start of program rwr
  
  end of program rwr
   
 Time(rwr)  user:        0.4  user+sys:        0.4  wallclock:        0.4
  
  start of program ch
  
  gridpoints discarded for being within atomic van der Waals radii          106
  gridpoints used for charge fit         1583
    out of a possible maximum of         1689
  
   Electrostatic potential fitting constrained to reproduce
     total charge:                yes
     dipole moment:               no 
     traceless quadrupole moment: no 
     traceless octupole moment:   no 
  
  Atomic charges from electrostatic potential: 
   
 Atom       O1           H2           C3           C4           C5      
 Charge   -0.71247      0.41609      0.77376     -0.48744     -0.60033
   
 Atom       C6           H7           H8           H9           H10     
 Charge   -0.60033      0.10696      0.13182      0.13182      0.14796
   
 Atom       H11          H12          H13          H14          H15     
 Charge    0.14039      0.13171      0.14796      0.13171      0.14039
  
  sum of atomic charges:     0.000000
   
 RMS Error   4.69E-04 hartrees
 
  end of program ch
   
 Time(ch)  user:        2.2  user+sys:        2.2  wallclock:        2.3
  
  start of program post
  
  Writing input files for PBF
  end of program post
   
 Time(post)  user:        2.1  user+sys:        2.1  wallclock:        2.3

  start of program pbf

Pbf Version 4.10

Molecular surface area:      113.41049   [A2]
Reaction field energy:        -4.42280   [kT]
  Peak memory usage: 731 Mb

  end of program pbf

 Time(pbf)  user:        0.2  user+sys:        0.2  wallclock:        0.2
  
  start of program solv
  
   number of surface charges from PBF    1616
   sum of surface charges     -0.00021
   
  nuclear repulsion energy.......     199.174315738 hartrees
  end of program solv
   
 Time(solv)  user:        0.2  user+sys:        0.2  wallclock:        0.1
  
  start of program scf
  
 number of electrons..........         42
 number of alpha electrons....         21
 number of beta electrons.....         21
 number of orbitals, total....         90
 number of doubly-occ'd orbs..         21
 number of open shell orbs....          0
 number of occupied orbitals..         21
 number of virtual orbitals...         69
 number of hamiltonians.......          1
 number of shells.............          1
 SCF type: DFT=Becke_3_Parameter/HF+Slater+Becke88+PW91+PW-GGAIIC (B3PW91-D3)
 Energy computed with NOPS off.
 Convergence Criterion:
    Energy (econv):       1.00E-05
    RMS density (dconv):  5.00E-06
  
       i  u  d  i  g                   
       t  p  i  c  r                                 RMS    maximum
       e  d  i  u  i                       energy  density   DIIS  
       r  t  s  t  d       total energy    change  change    error 
  
etot    1  N  N  2  U    -233.59133329913           1.6E-06  1.5E-05
etot    2  N  N  2  U    -233.59133329139 -7.7E-09  0.0E+00  0.0E+00
 
  Computing the dispersion energy correction...
  
  
 Energy components, in hartrees:
   (A)  Total zero-electron terms....     199.23749291248
   (B)    Nuclear-nuclear............     199.17431573782
   (C)    Nuclear-solvent............       0.06317717466
   (E)  Total one-electron terms.....    -710.51948166895
   (F)    Electron-nuclear...........    -942.56942639178
   (G)    Electron-solvent...........      -0.07202399791
   (H)    Kinetic....................     232.12196872073
   (I)  Total two-electron terms.....     277.69065546509
   (J)    Coulomb....................     311.69755013597
   (K)    Exchange+Correlation.......     -34.00689467088
   (L)  Electronic energy............    -432.82882620386  (E+I)
   (N0) D3 correction................      -0.01201967295
   (N)  Total quantum mech. energy...    -233.60335296434  (A+L+N0)
   (O)  Gas phase energy.............    -233.59478254793
   (P)  Solution phase energy........    -233.59892955271  (Q+R+S)
   (Q)    Total solute energy........    -233.59450614109  (N-C-G)
   (R)    Total solvent energy.......      -0.00442341162  (C/2+G/2)
   (S)    Solute cavity energy.......       0.00000000000
   (U)  Reorganization energy........       0.00027640684  (Q-O)
   (V)  Solvation energy.............      -0.00414700478  (P-O)
  
 SCFE:  Solution phase energy: DFT(b3pw91-d3)       -233.59892955271 hartrees
        SCF iterations:   2
  
 
 HOMO energy:    -0.29710
 LUMO energy:     0.07838
 
  Orbital energies (hartrees)/symmetry label: 
   -17.73394 Ap        -11.14222 Ap        -10.59311 Ap        -10.15302 Ap     
   -10.14223 App        -0.75643 Ap         -0.75495 Ap         -0.74631 Ap     
    -0.69387 App        -0.53560 Ap         -0.51282 Ap         -0.46728 Ap     
    -0.46487 Ap         -0.43976 Ap         -0.43762 Ap         -0.42272 App    
    -0.37829 App        -0.37788 App        -0.34887 Ap         -0.33965 App    
    -0.29710 App         0.07838 Ap          0.12082 Ap          0.13944 Ap     
     0.15824 App         0.16744 Ap          0.17131 App         0.17768 Ap     
     0.20237 App         0.20640 Ap          0.22110 Ap     
 
  end of program scf
   
 Time(scf)  user:        3.1  user+sys:        3.1  wallclock:        3.3
  
  start of program sole
  
    SCRF                   solvation energy
  iteration          Hartrees            kcal/mol
     0               0.0000000            0.0000
     1              -0.0041470           -2.6023
  
  solvation energy not yet converged... 
  
  end of program sole
   
 Time(sole)  user:        0.1  user+sys:        0.1  wallclock:        0.1
  
  start of program ch
  
  gridpoints discarded for being too close to bond charge centers            8
  gridpoints discarded for being within atomic van der Waals radii     11633248
  gridpoints used for charge fit         3166
    out of a possible maximum of         3166
  
   Electrostatic potential fitting constrained to reproduce
     total charge:                yes
     dipole moment:               no 
     traceless quadrupole moment: no 
     traceless octupole moment:   no 
  
  Atomic charges from electrostatic potential: 
   
 Atom       O1           H2           C3           C4           C5      
 Charge   -0.71265      0.41611      0.77408     -0.48739     -0.60028
   
 Atom       C6           H7           H8           H9           H10     
 Charge   -0.60028      0.10694      0.13178      0.13178      0.14795
   
 Atom       H11          H12          H13          H14          H15     
 Charge    0.14035      0.13166      0.14795      0.13166      0.14035
  
  sum of atomic charges:     0.000000
   
 RMS Error   4.69E-04 hartrees
 
  end of program ch
   
 Time(ch)  user:        2.2  user+sys:        2.2  wallclock:        2.4
  
  start of program post
  
  Writing input files for PBF
  end of program post
   
 Time(post)  user:        2.1  user+sys:        2.1  wallclock:        2.3

  start of program pbf

Pbf Version 4.10

Molecular surface area:      113.41049   [A2]
Reaction field energy:        -4.42369   [kT]
  Peak memory usage: 731 Mb

  end of program pbf

 Time(pbf)  user:        0.2  user+sys:        0.2  wallclock:        0.2
  
  start of program solv
  
   number of surface charges from PBF    1616
   sum of surface charges     -0.00021
   
  nuclear repulsion energy.......     199.174315738 hartrees
  end of program solv
   
 Time(solv)  user:        0.2  user+sys:        0.2  wallclock:        0.1
  
  start of program scf
  
 Energy computed with NOPS off.
 Convergence Criterion:
    Energy (econv):       1.00E-05
    RMS density (dconv):  5.00E-06
  
       i  u  d  i  g                   
       t  p  i  c  r                                 RMS    maximum
       e  d  i  u  i                       energy  density   DIIS  
       r  t  s  t  d       total energy    change  change    error 
  
etot    1  N  N  2  U    -233.59133402115           2.3E-06  2.2E-05
etot    2  N  N  2  U    -233.59133400862 -1.3E-08  0.0E+00  0.0E+00
 
  Computing the dispersion energy correction...
  
  
 Energy components, in hartrees:
   (A)  Total zero-electron terms....     199.23748678737
   (B)    Nuclear-nuclear............     199.17431573782
   (C)    Nuclear-solvent............       0.06317104956
   (E)  Total one-electron terms.....    -710.52019041392
   (F)    Electron-nuclear...........    -942.56971748556
   (G)    Electron-solvent...........      -0.07201709296
   (H)    Kinetic....................     232.12154416460
   (I)  Total two-electron terms.....     277.69136961793
   (J)    Coulomb....................     311.69821658836
   (K)    Exchange+Correlation.......     -34.00684697043
   (L)  Electronic energy............    -432.82882079599  (E+I)
   (N0) D3 correction................      -0.01201967295
   (N)  Total quantum mech. energy...    -233.60335368157  (A+L+N0)
   (O)  Gas phase energy.............    -233.59478254793
   (P)  Solution phase energy........    -233.59893065987  (Q+R+S)
   (Q)    Total solute energy........    -233.59450763817  (N-C-G)
   (R)    Total solvent energy.......      -0.00442302170  (C/2+G/2)
   (S)    Solute cavity energy.......       0.00000000000
   (U)  Reorganization energy........       0.00027490976  (Q-O)
   (V)  Solvation energy.............      -0.00414811194  (P-O)
  
 SCFE:  Solution phase energy: DFT(b3pw91-d3)       -233.59893065987 hartrees
        SCF iterations:   2
  
 
 HOMO energy:    -0.26275
 LUMO energy:     0.07838
 
  Orbital energies (hartrees)/symmetry label: 
   -19.12014 Ap        -10.22241 Ap        -10.15070 App       -10.15066 Ap     
   -10.14748 Ap         -1.01522 Ap         -0.78772 Ap         -0.68993 App    
    -0.68971 Ap         -0.56660 Ap         -0.48630 Ap         -0.44903 Ap     
    -0.44607 App        -0.40897 Ap         -0.39439 App        -0.37756 Ap     
    -0.36365 App        -0.35090 Ap         -0.34403 App        -0.31398 Ap     
    -0.26275 App         0.07838 Ap          0.12083 Ap          0.13945 Ap     
     0.15827 App         0.16746 Ap          0.17132 App         0.17770 Ap     
     0.20240 App         0.20642 Ap          0.22115 Ap     
 
  end of program scf
   
 Time(scf)  user:        2.6  user+sys:        2.6  wallclock:        2.9
  
  start of program sole
  
    SCRF                   solvation energy
  iteration          Hartrees            kcal/mol
     0               0.0000000            0.0000
     1              -0.0041470           -2.6023
     2              -0.0041481           -2.6030
  
  stopping: solvation energy converged
  
  WARNING: 
  The solvation energy is computed from 
  energies at the solution phase geometry and
  at the gas phase geometry.  Because the 
  nogas=1 flag was used, the gas phase geometry
  was not optimized in this calculation; 
  instead the input gas phase energy (esolv0)
  was assumed to be the correct energy of the
  optimized gas phase geometry. 
  
  iterations:   2    sfinal:     -2.6030 kcal/mol
  
  end of program sole
   
 Time(sole)  user:        0.1  user+sys:        0.1  wallclock:        0.1
  
  start of program cutabab2
  
  end of program cutabab2
   
 Time(cutabab2)  user:        0.1  user+sys:        0.1  wallclock:        0.1
  
  start of program der2a
  
  end of program der2a
   
 Time(der2a)  user:        1.0  user+sys:        1.0  wallclock:        1.0
  
  start of program grid
  
  
   Turning symmetry off because some of the
   following programs cannot use it.
   grid     grid set  grid #  grid sym
  ------    --------  ------  --------
  coarse        0        0        1
  medium        2        1        2
  fine          0        0        1
  ultrafine     4        2        2
  charge       -1        3        2
  gradient      4        2        2
  density       0        0        1
  DFT-fine    -11        4        2
  DFT-med.    -10        5        2
  DFT-grad    -12        6        2
  DFT-der2     -8        7        2
  DFT-cphf     -9        8        2
  LMP2-enrg     4        2        2
  LMP2-grad     2        1        2
  DFT-cphf2   -15        9        2
  PBF-dens      0        0        1
  plotting      0        0        1
  Rel-grad    -17        0        1
  
  number of gridpoints: 
     atom        O1       H2       C3       C4       C5       C6       H7
  grid # 1      112      111       94       76       79       79      109
  grid # 2      427      439      328      269      267      267      437
  grid # 3      136      336        6        6        6        6      295
  grid # 4     4304     4304     4304     4304     4304     4304     4304
  grid # 5     1192     1192     1192     1192     1192     1192     1192
  grid # 6     5226     5226     5226     5226     5226     5226     5226
  grid # 7    23504    13718    12650    12650    12650    12650    13718
  grid # 8      714      744      688      688      688      688      744
  grid # 9      360      382      358      358      358      358      382
   
  number of gridpoints: 
     atom        H8       H9      H10      H11      H12      H13      H14
  grid # 1      110      110      108      110      109      108      109
  grid # 2      437      437      436      436      435      436      435
  grid # 3      309      309      295      310      288      295      288
  grid # 4     4304     4304     4304     4304     4304     4304     4304
  grid # 5     1192     1192     1192     1192     1192     1192     1192
  grid # 6     5226     5226     5226     5226     5226     5226     5226
  grid # 7    13718    13718    13718    13718    13718    13718    13718
  grid # 8      744      744      744      744      744      744      744
  grid # 9      382      382      382      382      382      382      382
   
  number of gridpoints: 
     atom       H15    total
  grid # 1      110     1534
  grid # 2      436     5922
  grid # 3      310     3195
  grid # 4     4304    64560
  grid # 5     1192    17880
  grid # 6     5226    78390
  grid # 7    13718   211284
  grid # 8      744    10906
  grid # 9      382     5612
   
  end of program grid
   
 Time(grid)  user:        1.3  user+sys:        1.3  wallclock:        1.3
  
  start of program der2b
  
  end of program der2b
   
 Time(der2b)  user:       15.7  user+sys:       15.7  wallclock:       15.7
  
  start of program der2nda
  
  Computing the dispersion energy correction, gradient, hessian...
 
  end of program der2nda
   
 Time(der2nda)  user:        1.8  user+sys:        1.8  wallclock:        1.7
  
  start of program der2ndb
  
  end of program der2ndb
   
 Time(der2ndb)  user:       35.7  user+sys:       35.7  wallclock:       35.7
  
  start of program rwr
  
  end of program rwr
   
 Time(rwr)  user:        0.6  user+sys:        0.6  wallclock:        0.6
  
  start of program cphfa
  
       1  vectors produced in CPHF
  
     v    i  j  k  i  g
     e    t  c  c  c  r
     c    e  o  o  u  i
     t    r  r  r  t  d       RMS  
  
     1    1  0  0  6  M     2.8E-02
     1    2  0  0  6  M     1.4E-03
     1    3  0  0  6  M     3.8E-04
     1    4  0  0  6  M     1.0E-04
     1    5  0  0  6  M     2.9E-05
  
  
  Atomic Polar Tensors (au): Total
  =========================
  
  APT for atom O1      
  --------------------------------------
       -0.9772      -0.1425       0.0000
       -0.1432      -0.3446      -0.0000
       -0.0000       0.0000      -0.6213
  --------------------------------------
  
  APT for atom H2      
  --------------------------------------
        0.3116       0.0743      -0.0000
        0.0231       0.0908       0.0000
       -0.0000      -0.0001       0.3479
  --------------------------------------
  
  APT for atom C3      
  --------------------------------------
        0.7294       0.0962       0.0000
        0.0853       0.3990      -0.0000
        0.0000      -0.0000       0.4935
  --------------------------------------
  
  APT for atom C4      
  --------------------------------------
        0.0646       0.0374      -0.0000
       -0.0385      -0.0721       0.0000
       -0.0000      -0.0000       0.0417
  --------------------------------------
  
  APT for atom C5      
  --------------------------------------
        0.0127      -0.0121      -0.0140
        0.0515       0.0389       0.0526
       -0.0939       0.0367      -0.0786
  --------------------------------------
  
  APT for atom C6      
  --------------------------------------
        0.0129      -0.0121       0.0139
        0.0514       0.0391      -0.0526
        0.0940      -0.0367      -0.0784
  --------------------------------------
  
  APT for atom H7      
  --------------------------------------
       -0.1183      -0.0783      -0.0000
       -0.0268       0.0312       0.0000
        0.0000       0.0000       0.0675
  --------------------------------------
  
  APT for atom H8      
  --------------------------------------
        0.0307       0.0477      -0.0772
        0.0240       0.0046       0.0454
       -0.0791       0.0832      -0.0718
  --------------------------------------
  
  APT for atom H9      
  --------------------------------------
        0.0307       0.0478       0.0773
        0.0240       0.0046      -0.0454
        0.0791      -0.0831      -0.0718
  --------------------------------------
  
  APT for atom H10     
  --------------------------------------
       -0.1267      -0.0412      -0.0318
       -0.0626       0.0481      -0.0007
        0.0074       0.0093       0.0508
  --------------------------------------
  
  APT for atom H11     
  --------------------------------------
        0.0232       0.0382       0.0828
        0.0381       0.0355      -0.0624
        0.0485      -0.0369      -0.1011
  --------------------------------------
  
  APT for atom H12     
  --------------------------------------
        0.0538      -0.0235      -0.0152
       -0.0000      -0.1778       0.0321
       -0.0197      -0.0142       0.0373
  --------------------------------------
  
  APT for atom H13     
  --------------------------------------
       -0.1268      -0.0413       0.0318
       -0.0625       0.0481       0.0006
       -0.0074      -0.0093       0.0507
  --------------------------------------
  
  APT for atom H14     
  --------------------------------------
        0.0538      -0.0235       0.0152
       -0.0000      -0.1780      -0.0322
        0.0197       0.0142       0.0373
  --------------------------------------
  
  APT for atom H15     
  --------------------------------------
        0.0232       0.0382      -0.0828
        0.0381       0.0355       0.0624
       -0.0485       0.0370      -0.1013
  --------------------------------------
  
  end of program cphfa
   
 Time(cphfa)  user:       37.2  user+sys:       37.2  wallclock:       37.2
  
  start of program freq
  
   
  Number of frequencies:  39
  harmonic frequencies in cm**-1, reduced masses in amu,
  force constants in mDyne/A, and
  normal modes in cartesian coordinates:          39
  IR intensities in km/mol
  
  vibration #            1        2        3        4        5        6
                  -------- -------- -------- -------- -------- --------
  frequencies       231.55   290.63   296.99   348.62   351.23   407.57
  symmetries       App      App      Ap       App      Ap       App     
  intensities         0.92     0.19     0.02     0.04     1.07   114.39
  reduc. mass         0.12     0.13     0.16     1.37     1.29     0.82
  force const         0.00     0.01     0.01     0.10     0.09     0.08
    O1       X     0.00003  0.00005 -0.00047  0.00005 -0.02661  0.00025
    O1       Y    -0.00004 -0.00006 -0.00539 -0.00026  0.10045  0.00006
    O1       Z     0.00797 -0.01520  0.00019  0.10845  0.00028 -0.03778
    H2       X     0.00006  0.00010  0.00154  0.00028 -0.10277  0.00039
    H2       Y    -0.00004 -0.00006 -0.00531 -0.00027  0.10520  0.00006
    H2       Z    -0.08484  0.02046  0.00001  0.16996  0.00002  0.94248
    C3       X     0.00003  0.00002 -0.00469  0.00000 -0.00630  0.00019
    C3       Y     0.00000  0.00003  0.00429 -0.00005  0.01866  0.00012
    C3       Z    -0.00037  0.00632 -0.00004  0.01523  0.00006 -0.02867
    C4       X     0.00003 -0.00021 -0.04980  0.00028 -0.08872 -0.00017
    C4       Y     0.00000  0.00004  0.00488 -0.00006  0.02084  0.00015
    C4       Z     0.00869 -0.00788 -0.00005 -0.12391 -0.00033  0.03738
    C5       X     0.00730 -0.03072  0.02604 -0.05092  0.06202 -0.02205
    C5       Y    -0.00468 -0.02372  0.00076 -0.08889 -0.06838  0.00902
    C5       Z    -0.00603  0.01028 -0.01671 -0.00076 -0.07363 -0.02196
    C6       X    -0.00737  0.03087  0.02587  0.05057  0.06226  0.02187
    C6       Y     0.00472  0.02374  0.00066  0.08925 -0.06789 -0.00929
    C6       Z    -0.00610  0.01035  0.01658 -0.00115  0.07366 -0.02203
    H7       X     0.00003 -0.00028 -0.06380  0.00039 -0.12668 -0.00031
    H7       Y     0.00000  0.00023  0.04643 -0.00040  0.12858  0.00055
    H7       Z     0.41077 -0.42142  0.00185 -0.10373 -0.00029  0.09731
    H8       X     0.33873 -0.34656 -0.06530  0.06751 -0.13735  0.03840
    H8       Y     0.01860 -0.02674 -0.01667 -0.12305 -0.03775  0.05858
    H8       Z    -0.17620  0.17743 -0.00067 -0.21784  0.00121  0.04092
    H9       X    -0.33864  0.34595 -0.06852 -0.06665 -0.13767 -0.03910
    H9       Y    -0.01859  0.02661 -0.01680  0.12329 -0.03706 -0.05870
    H9       Z    -0.17620  0.17742 -0.00121 -0.21783 -0.00238  0.04090
    H10      X     0.08085  0.04212  0.12161 -0.04337  0.04750 -0.01825
    H10      Y    -0.25220 -0.27508 -0.31800 -0.13614 -0.00742 -0.01019
    H10      Z    -0.16044 -0.10344 -0.24285  0.09833 -0.10862 -0.02249
    H11      X     0.20295  0.13612  0.30281 -0.10545  0.09886 -0.01430
    H11      Y     0.20878  0.17428  0.27514 -0.16356 -0.21965  0.03405
    H11      Z     0.01398  0.02034  0.02306 -0.00026  0.01092 -0.02690
    H12      X    -0.25395 -0.29287 -0.30713 -0.09322  0.14230 -0.02273
    H12      Y     0.01009 -0.00976  0.01896 -0.08949 -0.07451  0.00653
    H12      Z     0.11932  0.11315  0.14604 -0.11475 -0.21786 -0.00141
    H13      X    -0.08093 -0.04110  0.12202  0.04295  0.04760  0.01817
    H13      Y     0.25223  0.27217 -0.32006  0.13671 -0.00632  0.00943
    H13      Z    -0.16076 -0.10162  0.24395  0.09745  0.10892 -0.02328
    H14      X     0.25378  0.28987 -0.30925  0.09302  0.14313  0.02205
    H14      Y    -0.01005  0.00995  0.01897  0.08985 -0.07404 -0.00679
    H14      Z     0.11925  0.11178 -0.14716 -0.11557  0.21747 -0.00097
    H15      X    -0.20326 -0.13372  0.30425  0.10451  0.09909  0.01372
    H15      Y    -0.20876 -0.17180  0.27679  0.16420 -0.21908 -0.03455
    H15      Z     0.01404  0.02018 -0.02336 -0.00018 -0.01085 -0.02684
  
  vibration #            7        8        9       10       11       12
                  -------- -------- -------- -------- -------- --------
  frequencies       426.10   474.13   475.48   763.98   927.53   940.14
  symmetries       Ap       App      Ap       Ap       App      Ap      
  intensities         0.82    20.31     7.39     2.54     0.07     2.58
  reduc. mass         1.21     1.79     1.39     2.05     0.69     0.68
  force const         0.13     0.24     0.18     0.71     0.35     0.35
    O1       X     0.11075 -0.00010  0.02322 -0.09608  0.00006 -0.04273
    O1       Y     0.03424  0.00072 -0.10783 -0.02709  0.00002 -0.02294
    O1       Z     0.00018 -0.12733 -0.00082  0.00001 -0.01205 -0.00000
    H2       X     0.10242 -0.00127  0.20611 -0.06811 -0.00001 -0.06400
    H2       Y     0.03532  0.00079 -0.11972 -0.03063  0.00003 -0.02297
    H2       Z    -0.00205  0.13461  0.00036  0.00005  0.02238  0.00004
    C3       X     0.10225  0.00024 -0.02619 -0.01221 -0.00009  0.06703
    C3       Y     0.02888 -0.00059  0.09334  0.00206  0.00000 -0.07491
    C3       Z    -0.00001  0.09336  0.00062  0.00001 -0.09804 -0.00004
    C4       X    -0.07398 -0.00032  0.04000 -0.00142 -0.00005  0.07581
    C4       Y     0.04004 -0.00077  0.12211  0.12924 -0.00001  0.08776
    C4       Z    -0.00006 -0.05139 -0.00035  0.00001 -0.05094  0.00001
    C5       X    -0.04392  0.07621 -0.03190  0.05438  0.09236 -0.02221
    C5       Y    -0.04407 -0.05240 -0.02442 -0.05126 -0.03494 -0.02599
    C5       Z     0.05073  0.06493 -0.06879  0.11276  0.04128 -0.06441
    C6       X    -0.04394 -0.07583 -0.03294  0.05442 -0.09233 -0.02230
    C6       Y    -0.04409  0.05267 -0.02373 -0.05128  0.03493 -0.02582
    C6       Z    -0.05071  0.06393  0.06966 -0.11279  0.04120  0.06438
    H7       X    -0.14264 -0.00062  0.07925  0.00870  0.00005 -0.06094
    H7       Y     0.23746  0.00010  0.01150  0.10781 -0.00030  0.48234
    H7       Z    -0.00007 -0.09890 -0.00068  0.00003  0.08010 -0.00004
    H8       X    -0.16170  0.02116  0.09325  0.01844 -0.01892 -0.11810
    H8       Y    -0.06298 -0.15186  0.17916  0.15728  0.23690 -0.08391
    H8       Z     0.00395 -0.13126 -0.00569 -0.00054  0.06577  0.03136
    H9       X    -0.16164 -0.02260  0.09300  0.01844  0.01910 -0.11811
    H9       Y    -0.06293  0.14941  0.18118  0.15725 -0.23662 -0.08368
    H9       Z    -0.00407 -0.13132  0.00393  0.00057  0.06579 -0.03144
    H10      X    -0.02307  0.07452 -0.00969  0.05503  0.10150 -0.06214
    H10      Y    -0.15277 -0.02708 -0.11294 -0.04266 -0.12589  0.12693
    H10      Z     0.22575 -0.04607 -0.04411  0.10012  0.36089 -0.08368
    H11      X    -0.15461  0.18013  0.00132  0.07820 -0.14709 -0.07698
    H11      Y    -0.03828 -0.11264 -0.13066 -0.05673  0.04975  0.16595
    H11      Z    -0.01434  0.15018 -0.00547  0.13056 -0.12714 -0.17839
    H12      X    -0.16469  0.12250 -0.10550  0.07388 -0.06683  0.07333
    H12      Y    -0.03952 -0.05589 -0.02408 -0.05277 -0.02763 -0.02461
    H12      Z    -0.00308  0.00471 -0.22916  0.12436  0.14087  0.18340
    H13      X    -0.02299 -0.07433 -0.01068  0.05506 -0.10148 -0.06213
    H13      Y    -0.15315  0.02814 -0.11267 -0.04264  0.12593  0.12677
    H13      Z    -0.22539 -0.04684  0.04358 -0.10019  0.36084  0.08403
    H14      X    -0.16494 -0.12149 -0.10719  0.07391  0.06692  0.07316
    H14      Y    -0.03954  0.05616 -0.02335 -0.05279  0.02761 -0.02445
    H14      Z     0.00288  0.00157  0.22915 -0.12438  0.14087 -0.18257
    H15      X    -0.15421 -0.18016 -0.00102  0.07821  0.14715 -0.07666
    H15      Y    -0.03797  0.11448 -0.12907 -0.05677 -0.04992  0.16545
    H15      Z     0.01427  0.15008  0.00748 -0.13057 -0.12731  0.17786
  
  vibration #           13       14       15       16       17       18
                  -------- -------- -------- -------- -------- --------
  frequencies       953.95   974.00  1046.11  1061.63  1189.58  1260.74
  symmetries       Ap       App      Ap       App      Ap       Ap      
  intensities        33.13     0.00    10.09     1.83    62.13    56.09
  reduc. mass         1.98     0.23     0.36     0.38     0.67     2.99
  force const         1.06     0.13     0.23     0.25     0.56     2.80
    O1       X    -0.13512  0.00010  0.00722  0.00006 -0.04092 -0.04380
    O1       Y    -0.03029  0.00001  0.00492  0.00001  0.02390 -0.00807
    O1       Z    -0.00001  0.00077 -0.00002 -0.02096 -0.00000  0.00000
    H2       X    -0.04086 -0.00004 -0.26714  0.00013  0.60901 -0.02986
    H2       Y    -0.04157  0.00002  0.02312  0.00001 -0.02447 -0.01155
    H2       Z     0.00004 -0.00782  0.00005  0.00881 -0.00007  0.00001
    C3       X     0.10195 -0.00005  0.01797 -0.00007 -0.00986  0.20153
    C3       Y     0.06314 -0.00015 -0.06063 -0.00004  0.12448  0.01013
    C3       Z     0.00001 -0.00532  0.00007  0.05259  0.00007 -0.00003
    C4       X     0.03352  0.00006 -0.08817  0.00008 -0.02351 -0.06978
    C4       Y    -0.06277  0.00013  0.04538  0.00002 -0.04136  0.00107
    C4       Z    -0.00006 -0.07148  0.00004  0.07133 -0.00002  0.00002
    C5       X     0.04353 -0.01352  0.04751  0.04661  0.01423 -0.06230
    C5       Y     0.04223  0.05791 -0.01125  0.07349 -0.06140 -0.00677
    C5       Z    -0.01610  0.03617 -0.05423 -0.03078 -0.01890  0.01299
    C6       X     0.04345  0.01338  0.04746 -0.04672  0.01421 -0.06231
    C6       Y     0.04207 -0.05799 -0.01141 -0.07350 -0.06146 -0.00679
    C6       Z     0.01615  0.03622  0.05418 -0.03087  0.01886 -0.01297
    H7       X    -0.01705 -0.00005  0.05265 -0.00005  0.01158  0.02142
    H7       Y     0.07984  0.00045 -0.33970  0.00041 -0.15179 -0.23343
    H7       Z     0.00014  0.13794 -0.00005 -0.09721  0.00004 -0.00004
    H8       X    -0.04315 -0.03676  0.14152  0.02613  0.02005  0.13641
    H8       Y    -0.15006  0.34684  0.25429 -0.27855 -0.03151  0.10138
    H8       Z     0.00671  0.10674 -0.03649 -0.07000 -0.01748 -0.06515
    H9       X    -0.04307  0.03655  0.14147 -0.02638  0.02008  0.13637
    H9       Y    -0.15073 -0.34679  0.25460  0.27821 -0.03163  0.10145
    H9       Z    -0.00648  0.10666  0.03641 -0.07007  0.01752  0.06513
    H10      X     0.08253  0.04009  0.03695  0.09581 -0.02735 -0.06463
    H10      Y    -0.14690 -0.12731 -0.02844 -0.17856  0.08940  0.06779
    H10      Z     0.22400 -0.04586  0.19768  0.23974  0.05883 -0.22174
    H11      X    -0.10037  0.12537 -0.19398 -0.13111 -0.03320  0.11177
    H11      Y    -0.03667 -0.22447  0.12014 -0.07578  0.13470  0.04210
    H11      Z    -0.06509  0.23249 -0.24480 -0.06793 -0.12319  0.07962
    H12      X    -0.16237 -0.08670 -0.08216 -0.23394  0.08414  0.12584
    H12      Y     0.05076  0.05376 -0.00140  0.08159 -0.05753 -0.01078
    H12      Z    -0.17067 -0.33833  0.09339 -0.26212  0.25353 -0.06749
    H13      X     0.08232 -0.04036  0.03682 -0.09597 -0.02741 -0.06469
    H13      Y    -0.14651  0.12782 -0.02819  0.17886  0.08954  0.06799
    H13      Z    -0.22357 -0.04512 -0.19738  0.24028 -0.05870  0.22184
    H14      X    -0.16193  0.08714 -0.08176  0.23417  0.08430  0.12581
    H14      Y     0.05058 -0.05386 -0.00157 -0.08161 -0.05759 -0.01079
    H14      Z     0.16985 -0.33882 -0.09405 -0.26204 -0.25375  0.06739
    H15      X    -0.10028 -0.12521 -0.19383  0.13142 -0.03316  0.11178
    H15      Y    -0.03619  0.22472  0.12043  0.07555  0.13478  0.04203
    H15      Z     0.06531  0.23250  0.24481 -0.06835  0.12318 -0.07963
  
  vibration #           19       20       21       22       23       24
                  -------- -------- -------- -------- -------- --------
  frequencies      1279.08  1395.59  1424.35  1432.37  1452.27  1500.62
  symmetries       App      Ap       App      Ap       Ap       App     
  intensities        25.37    35.26    15.01    35.16     3.17     0.05
  reduc. mass         3.44     0.60     0.39     0.39     0.24     0.14
  force const         3.31     0.69     0.47     0.47     0.30     0.18
    O1       X    -0.00003  0.03119 -0.00013 -0.01715 -0.00796  0.00003
    O1       Y     0.00000 -0.03990  0.00016  0.02122  0.00954 -0.00004
    O1       Z     0.01795 -0.00000 -0.00146  0.00001  0.00000 -0.00013
    H2       X     0.00011 -0.55192  0.00202  0.27554  0.15058 -0.00048
    H2       Y    -0.00001  0.01170 -0.00004 -0.00605 -0.00438  0.00001
    H2       Z    -0.00691  0.00004 -0.00945  0.00005 -0.00002 -0.00166
    C3       X    -0.00002 -0.00351  0.00014  0.01356 -0.00882 -0.00009
    C3       Y     0.00002  0.12597 -0.00071 -0.09271 -0.03368  0.00019
    C3       Z    -0.20942  0.00003  0.03791 -0.00026  0.00004 -0.00533
    C4       X     0.00001  0.01750 -0.00009 -0.00897  0.00532  0.00017
    C4       Y     0.00000  0.03949  0.00051  0.08930  0.08944 -0.00007
    C4       Z     0.07731 -0.00001 -0.01271  0.00008 -0.00001 -0.03805
    C5       X    -0.01198 -0.01148 -0.03708 -0.02693  0.03327 -0.00926
    C5       Y     0.01007 -0.03127  0.02845  0.04852 -0.00819  0.02639
    C5       Z     0.05377 -0.01615 -0.08455 -0.04666  0.05342  0.01421
    C6       X     0.01202 -0.01145  0.03651 -0.02751  0.03341  0.00909
    C6       Y    -0.01007 -0.03130 -0.02757  0.04891 -0.00825 -0.02639
    C6       Z     0.05382  0.01607 -0.08359  0.04801 -0.05376  0.01389
    H7       X    -0.00000  0.11341  0.00052  0.10646  0.14211  0.00035
    H7       Y     0.00002 -0.27158 -0.00129 -0.25584 -0.32500 -0.00076
    H7       Z    -0.18729  0.00001  0.06339 -0.00043  0.00001  0.47853
    H8       X     0.07225 -0.10620 -0.03150 -0.03482 -0.10405 -0.25593
    H8       Y    -0.21602 -0.28768  0.00431 -0.21474 -0.27586 -0.18625
    H8       Z    -0.07234 -0.06537  0.00854 -0.11301 -0.09435  0.03742
    H9       X    -0.07226 -0.10620  0.03142 -0.03525 -0.10404  0.25328
    H9       Y     0.21591 -0.28772 -0.00637 -0.21472 -0.27594  0.18736
    H9       Z    -0.07231  0.06538  0.00988  0.11290  0.09436  0.03524
    H10      X     0.02815 -0.04248 -0.00463  0.04079  0.01982  0.09306
    H10      Y    -0.09726  0.08863 -0.13504 -0.22696  0.07157 -0.31846
    H10      Z     0.00205  0.11023  0.35139  0.16271 -0.28115 -0.17204
    H11      X     0.13263  0.12799  0.25813  0.09317 -0.24268 -0.21222
    H11      Y    -0.10928  0.05705 -0.16712 -0.18428  0.06149 -0.05272
    H11      Z     0.18378  0.03459  0.17752  0.12240 -0.13957 -0.07629
    H12      X     0.10534  0.04578  0.13856  0.13986 -0.13175  0.25555
    H12      Y    -0.00486 -0.02416  0.01653  0.03066 -0.00252  0.00435
    H12      Z    -0.01263  0.12061  0.30225  0.16834 -0.19039  0.06344
    H13      X    -0.02808 -0.04247  0.00533  0.04051  0.02001 -0.09220
    H13      Y     0.09709  0.08872  0.13072 -0.22843  0.07153  0.31508
    H13      Z     0.00182 -0.10991  0.34791 -0.16873  0.28282 -0.17114
    H14      X    -0.10522  0.04577 -0.13564  0.14158 -0.13193 -0.25157
    H14      Y     0.00485 -0.02419 -0.01599  0.03090 -0.00257 -0.00459
    H14      Z    -0.01288 -0.12044  0.29866 -0.17295  0.19152  0.06508
    H15      X    -0.13267  0.12776 -0.25596  0.09786 -0.24410  0.21068
    H15      Y     0.10934  0.05719  0.16366 -0.18682  0.06209  0.05523
    H15      Z     0.18388 -0.03444  0.17503 -0.12548  0.14045 -0.07462
  
  vibration #           25       26       27       28       29       30
                  -------- -------- -------- -------- -------- --------
  frequencies      1509.64  1513.18  1527.55  1536.35  1549.42  3039.46
  symmetries       App      Ap       App      Ap       Ap       App     
  intensities         0.02     0.02     3.14     5.16     7.74    19.39
  reduc. mass         0.18     0.16     0.14     0.17     0.13     0.18
  force const         0.24     0.21     0.19     0.24     0.19     0.97
    O1       X     0.00002  0.00145 -0.00015  0.01164  0.00373  0.00000
    O1       Y    -0.00005 -0.00188  0.00015 -0.01413  0.00365 -0.00000
    O1       Z     0.00036  0.00001  0.00325  0.00003  0.00001 -0.00004
    H2       X    -0.00050 -0.01826  0.00200 -0.18682  0.03886  0.00000
    H2       Y    -0.00001 -0.00025 -0.00005  0.00470  0.00029  0.00000
    H2       Z     0.00813 -0.00011  0.01660  0.00019  0.00006 -0.00226
    C3       X     0.00017  0.00178  0.00027 -0.01421 -0.04547 -0.00000
    C3       Y     0.00014  0.00428 -0.00072  0.07069 -0.02009  0.00000
    C3       Z    -0.00047 -0.00029 -0.04768 -0.00047 -0.00011  0.00224
    C4       X    -0.00092 -0.04090  0.00038 -0.00912 -0.02559  0.00000
    C4       Y     0.00006  0.00392  0.00019 -0.02303  0.01500 -0.00000
    C4       Z     0.01104 -0.00062 -0.02951 -0.00020 -0.00004 -0.00013
    C5       X     0.02930  0.02165  0.01981 -0.00378 -0.01403 -0.01435
    C5       Y     0.02475  0.00056 -0.01816  0.01937 -0.01371  0.02147
    C5       Z    -0.01007 -0.01171 -0.00060  0.01481  0.01400 -0.02420
    C6       X    -0.02815  0.02290 -0.01996 -0.00429 -0.01427  0.01436
    C6       Y    -0.02467  0.00170  0.01787  0.01986 -0.01371 -0.02150
    C6       Z    -0.00945  0.01231 -0.00029 -0.01484 -0.01410 -0.02421
    H7       X    -0.00233 -0.10566  0.00143 -0.06047 -0.07915  0.00005
    H7       Y     0.00511  0.23387 -0.00320  0.13075  0.19523  0.00002
    H7       Z    -0.15689  0.00882  0.48027  0.00364  0.00061  0.00027
    H8       X     0.09023  0.34991 -0.26264  0.12266  0.27068 -0.00044
    H8       Y     0.06108 -0.15794 -0.22022 -0.03321 -0.16134  0.00145
    H8       Z    -0.01936 -0.28415  0.03296 -0.07711 -0.24146 -0.00063
    H9       X    -0.07458  0.35931  0.25476  0.12662  0.27137  0.00039
    H9       Y    -0.06764 -0.15053  0.22343 -0.02968 -0.16075 -0.00142
    H9       Z    -0.00692  0.28550  0.02698  0.07754  0.24154 -0.00055
    H10      X     0.02544 -0.03852 -0.07540  0.10534  0.00442  0.35681
    H10      Y     0.03029  0.20171  0.31648 -0.34053 -0.08271  0.10271
    H10      Z    -0.24654 -0.05267  0.05640 -0.24351  0.17453  0.01102
    H11      X    -0.22562 -0.01085  0.12866 -0.29114  0.11198 -0.15978
    H11      Y    -0.42505 -0.22126 -0.07779 -0.09645  0.33398  0.12420
    H11      Z     0.04336  0.07492  0.09488 -0.10566 -0.06686  0.26872
    H12      X    -0.22458 -0.27782 -0.31472  0.27605  0.19295 -0.02856
    H12      Y     0.02977  0.01795  0.00379 -0.00115 -0.02348 -0.47828
    H12      Z     0.34593  0.16305  0.01115  0.16356 -0.28711 -0.00235
    H13      X    -0.02740 -0.03731  0.07367  0.10728  0.00478 -0.35709
    H13      Y    -0.01971  0.20245 -0.31155 -0.34855 -0.08476 -0.10280
    H13      Z    -0.24295  0.06339  0.05140  0.24498 -0.17512  0.01103
    H14      X     0.20979 -0.28728  0.31149  0.28399  0.19591  0.02859
    H14      Y    -0.02877  0.01927 -0.00383 -0.00123 -0.02364  0.47884
    H14      Z     0.33657 -0.17864  0.01462 -0.16359  0.28886 -0.00235
    H15      X     0.22448 -0.02107 -0.12285 -0.29429  0.11210  0.15986
    H15      Y     0.41249 -0.23994  0.08038 -0.09489  0.33639 -0.12427
    H15      Z     0.03937 -0.07655  0.09300  0.10779  0.06768  0.26885
  
  vibration #           31       32       33       34       35       36
                  -------- -------- -------- -------- -------- --------
  frequencies      3043.77  3057.45  3113.22  3119.28  3134.00  3135.93
  symmetries       Ap       Ap       App      Ap       App      Ap      
  intensities        27.63     9.03     2.34    53.54     2.74     7.18
  reduc. mass         0.16     0.29     0.23     0.22     0.21     0.19
  force const         0.87     1.61     1.30     1.25     1.19     1.13
    O1       X     0.00024 -0.00004  0.00000  0.00029 -0.00000 -0.00036
    O1       Y    -0.00010 -0.00007  0.00000  0.00055 -0.00000 -0.00009
    O1       Z    -0.00000  0.00000  0.00012 -0.00000  0.00031 -0.00000
    H2       X     0.00245 -0.00220  0.00001  0.00637  0.00001  0.00134
    H2       Y     0.00371 -0.00057  0.00000  0.00061  0.00001  0.00167
    H2       Z     0.00000  0.00000 -0.00364  0.00000 -0.00211  0.00001
    C3       X    -0.00153  0.00079 -0.00000 -0.00090  0.00001  0.00110
    C3       Y     0.00052  0.00185 -0.00000 -0.00293 -0.00000 -0.00032
    C3       Z    -0.00000 -0.00000 -0.00012  0.00000 -0.00075  0.00000
    C4       X    -0.00021  0.00088  0.00001  0.00726 -0.00022 -0.04182
    C4       Y    -0.01090 -0.04764 -0.00000 -0.00046  0.00000  0.00048
    C4       Z    -0.00000 -0.00001 -0.00360  0.00000  0.03768 -0.00028
    C5       X     0.01387 -0.00306  0.02857 -0.02555  0.04533  0.04349
    C5       Y    -0.02046  0.00596  0.05305 -0.05362 -0.01420 -0.01358
    C5       Z     0.02415 -0.00582  0.01466 -0.01678 -0.03202 -0.03078
    C6       X     0.01386 -0.00306 -0.02864 -0.02548 -0.04479  0.04398
    C6       Y    -0.02046  0.00597 -0.05319 -0.05347  0.01405 -0.01373
    C6       Z    -0.02412  0.00582  0.01471  0.01673 -0.03165  0.03114
    H7       X     0.12873  0.50769 -0.00007 -0.05002  0.00182  0.34950
    H7       Y     0.04202  0.16473 -0.00002 -0.01540  0.00062  0.11881
    H7       Z    -0.00000 -0.00000  0.00051 -0.00000  0.00724 -0.00005
    H8       X    -0.06195 -0.25943  0.01147 -0.01823 -0.13416  0.07535
    H8       Y     0.04353  0.19135 -0.00857  0.01575  0.10007 -0.06255
    H8       Z    -0.10867 -0.45669  0.02084 -0.03356 -0.22713  0.14921
    H9       X    -0.06197 -0.25950 -0.01152 -0.01822  0.13491  0.07338
    H9       Y     0.04355  0.19140  0.00862  0.01574 -0.10069 -0.06107
    H9       Z     0.10870  0.45679  0.02094  0.03354 -0.22861 -0.14586
    H10      X    -0.34535  0.07512 -0.42138  0.39847 -0.32530 -0.31533
    H10      Y    -0.09922  0.02192 -0.10581  0.09888 -0.09384 -0.09185
    H10      Z    -0.01021  0.00230 -0.01307  0.01254 -0.01723 -0.01794
    H11      X     0.15794 -0.03551  0.10172 -0.11505 -0.23027 -0.22095
    H11      Y    -0.12194  0.02753 -0.05974  0.07232  0.17836  0.17014
    H11      Z    -0.26951  0.06225 -0.16231  0.18862  0.40759  0.39075
    H12      X     0.02710 -0.00609 -0.02035  0.02065  0.01374  0.01396
    H12      Y     0.46096 -0.12074 -0.46761  0.47476  0.08441  0.08483
    H12      Z     0.00087  0.00168  0.00274 -0.00630 -0.00608 -0.00704
    H13      X    -0.34497  0.07509  0.42257  0.39749  0.32134 -0.31883
    H13      Y    -0.09912  0.02191  0.10610  0.09864  0.09269 -0.09286
    H13      Z     0.01020 -0.00230 -0.01311 -0.01251 -0.01701  0.01813
    H14      X     0.02708 -0.00609  0.02040  0.02057 -0.01358  0.01411
    H14      Y     0.46066 -0.12076  0.46876  0.47336 -0.08341  0.08569
    H14      Z    -0.00087 -0.00168  0.00275  0.00629 -0.00600  0.00711
    H15      X     0.15772 -0.03548 -0.10206 -0.11476  0.22764 -0.22348
    H15      Y    -0.12178  0.02751  0.05995  0.07214 -0.17633  0.17211
    H15      Z     0.26916 -0.06220 -0.16287 -0.18816  0.40294 -0.39524
  
  vibration #           37       38       39
                  -------- -------- --------
  frequencies      3139.70  3144.03  3734.51
  symmetries       App      Ap       Ap      
  intensities        37.85    45.54    16.39
  reduc. mass         0.36     0.33     0.95
  force const         2.08     1.95     7.79
    O1       X    -0.00000  0.00082 -0.00590
    O1       Y    -0.00000  0.00026 -0.06009
    O1       Z     0.00035  0.00000 -0.00000
    H2       X    -0.00000  0.00087  0.07708
    H2       Y     0.00000 -0.00113  0.96350
    H2       Z    -0.00022 -0.00000 -0.00000
    C3       X     0.00000 -0.00293  0.00113
    C3       Y    -0.00000  0.00049 -0.00197
    C3       Z    -0.00255 -0.00000  0.00000
    C4       X     0.00016 -0.07781 -0.00031
    C4       Y     0.00000  0.00057  0.00041
    C4       Z    -0.08020 -0.00012  0.00000
    C5       X     0.01990 -0.02558  0.00013
    C5       Y    -0.00875  0.00251  0.00053
    C5       Z    -0.01506  0.01490 -0.00013
    C6       X    -0.01987 -0.02568  0.00013
    C6       Y     0.00877  0.00255  0.00053
    C6       Z    -0.01506 -0.01498  0.00013
    H7       X    -0.00137  0.65358  0.00017
    H7       Y    -0.00047  0.22488 -0.00037
    H7       Z    -0.01503 -0.00002 -0.00000
    H8       X     0.28669  0.14106  0.00041
    H8       Y    -0.21835 -0.11891  0.00048
    H8       Z     0.48762  0.27356 -0.00001
    H9       X    -0.28721  0.14022  0.00041
    H9       Y     0.21879 -0.11826  0.00048
    H9       Z     0.48863 -0.27211  0.00001
    H10      X    -0.13242  0.20918  0.00251
    H10      Y    -0.03955  0.05784 -0.00004
    H10      Z    -0.00727  0.01192  0.00137
    H11      X    -0.11068  0.10614 -0.00029
    H11      Y     0.08344 -0.08313 -0.00028
    H11      Z     0.19810 -0.19076 -0.00022
    H12      X     0.00671 -0.00442 -0.00091
    H12      Y     0.05795 -0.00630 -0.00190
    H12      Z    -0.00219  0.00292 -0.00135
    H13      X     0.13209  0.20983  0.00251
    H13      Y     0.03947  0.05804 -0.00004
    H13      Z    -0.00725 -0.01196 -0.00137
    H14      X    -0.00672 -0.00446 -0.00091
    H14      Y    -0.05808 -0.00654 -0.00190
    H14      Z    -0.00219 -0.00293  0.00135
    H15      X     0.11067  0.10669 -0.00029
    H15      Y    -0.08343 -0.08354 -0.00028
    H15      Z     0.19808  0.19174  0.00022
  
  Number of imaginary frequencies:   0
   
  Writing vibrational animation data to HOtBu_freq.vib
  Writing IR vibrational spectrum data to HOtBu_freq_vib.spm
  rotational symmetry number:  1

  rotational temperatures (K):      0.225401      0.224389      0.216369
   
  The Quasi-Harmonic approximation will be applied to compute
  vibrational constributions to thermodynamic properties.
  Frequencies will be adjusted to a minimum value of  100.00 cm^-1.

  vibrational temperatures:
       mode:      1        2        3        4        5        6
  temp. (K):   333.15   418.15   427.30   501.59   505.35   586.40
   
       mode:      7        8        9       10       11       12
  temp. (K):   613.07   682.17   684.10  1099.19  1334.51  1352.65
   
       mode:     13       14       15       16       17       18
  temp. (K):  1372.53  1401.37  1505.12  1527.44  1711.54  1813.93
   
       mode:     19       20       21       22       23       24
  temp. (K):  1840.31  2007.95  2049.31  2060.85  2089.49  2159.05
   
       mode:     25       26       27       28       29       30
  temp. (K):  2172.04  2177.13  2197.80  2210.47  2229.27  4373.10
   
       mode:     31       32       33       34       35       36
  temp. (K):  4379.30  4398.98  4479.22  4487.94  4509.12  4511.90
   
       mode:     37       38       39
  temp. (K):  4517.33  4523.55  5373.12
   
   
  Thermodynamic properties calculated assuming an ideal gas

  In the table below, the units for temperature
  are kelvins, the units for U, H, and G are
  kcal/mol and the units for Cv and S are cal/(mol K)

  The zero point energy (ZPE):     86.063 kcal/mol
  is not included in U, H, or G in the table below
  
 
  =============================================================================
  Thermodynamic properties for P = 1.00E+00 atm, calculated at   1 temperatures


  T =   298.15 K, P = 1.00E+00 atm
   
                  U         Cv          S          H          G        ln(Q)
              =========  =========  =========  =========  =========  =========
  trans.          0.889      2.981     38.823      1.481    -10.094   17.03670
  rot.            0.889      2.981     25.588      0.889     -6.740   11.37627
  vib.            2.253     18.241     11.443      2.253     -1.158    1.95532
  elec.           0.000      0.000      0.000      0.000      0.000    0.00000
  ----------------------------------------------------------------------------
  total           4.031     24.202     75.854      4.623    -17.993   30.36829
   
   Total internal energy, Utot(SCFE + ZPE + U):    -233.455358 hartrees
   Total enthalpy, Htot (Utot + nRT), with n=1:    -233.454413 hartrees
    Total Gibbs free energy, Gtot (Htot - T*S):    -233.490454 hartrees
   
  end of program freq
   
 Time(freq)  user:        2.1  user+sys:        2.1  wallclock:        2.3
  
  start of program post
  
  Writing input files for PBF
  end of program post
   
 Time(post)  user:        2.1  user+sys:        2.1  wallclock:        2.3

 Total cpu seconds     user:     101.329   user+sys:     101.329
  
 Total elapsed time:    123 seconds

Job HOtBu_freq completed on bp1-compute166.data.bp.acrc.priv at Thu Dec 15 17:44:52 2022
