Job NaOtBu_freq started on bp1-compute166.data.bp.acrc.priv at Thu Dec 15 17:47:19 2022
jobid: bp1-compute166-0-639b5da4

  +--------------------------------------------------------------------+
  |  Jaguar version 11.4, release 135                                  |
  |                                                                    |
  |  Copyright Schrodinger, Inc.                                       |
  |  All Rights Reserved.                                              |
  |                                                                    |
  |  The following have contributed to Jaguar (listed alphabetically): |
  |  Mike Beachy, Art Bochevarov, Dale Braden, Yixiang Cao,            |
  |  Alan Chien, Chris Cortis, Rich Friesner, Bill Goddard,            |
  |  Hod Greeley, Tom Hughes, Leif Jacobson, Jean-Marc Langlois,       |
  |  Daniel Levine, Daniel Mainz, Rob Murphy, Dean Philipp,            |
  |  Tom Pollard, Murco Ringnalda, Mark Watson, Haoyu Yu.              |
  |                                                                    |
  |  Use of this program should be acknowledged in publications as:    |
  |                                                                    |
  |  Jaguar, version 11.4, Schrodinger, Inc., New York, NY, 2021.      |
  |                                                                    |
  |  A. D. Bochevarov, E. Harder, T. F. Hughes, J. R. Greenwood,       |
  |  D. A. Braden, D. M. Philipp, D. Rinaldo, M. D. Halls,             |
  |  J. Zhang, R. A. Friesner, "Jaguar: A High-Performance Quantum     |
  |  Chemistry Software Program with Strengths in Life and Materials   |
  |  Sciences", Int. J. Quantum Chem., 2013, 113(18), 2110-2142.       |
  +--------------------------------------------------------------------+
  
  start of program pre
  
  Job name: NaOtBu_freq
  Executables used: /sw/apps/schrodinger2021-4/jaguar-v11.4/bin/Linux-x86_64
  Temporary files : /tmp/ar21627/NaOtBu_freq
  Maestro file (input):  NaOtBu_freq.mae
  Maestro file (output): NaOtBu_freq.01.mae
  
 Contents of input file: &gen section only
 ----------------Contents start----------------
&gen
dftname=b3pw91-d3
basis=6-31g*
numd=5
ip11=2
iaccg=3
isolv=2
ifreq=1
solvent=benzene
esolv0=    -395.25759555973
nogas=1
&
 -----------------Contents end-----------------
 
  basis set:             6-31g*                          
  net molecular charge:    0
  multiplicity:            1
  
  number of basis functions....          106
  
 Input geometry:
                                   angstroms
  atom               x                 y                 z
  O1           -0.6513031135     -0.1311769900      0.0000000000 
  Na2          -2.1347008703     -1.5535813263      0.0000000000 
  C3            0.5994064168      0.4305241131      0.0000000000 
  C4            0.5085354989      1.9761113863      0.0000000000 
  C5            1.4085366065      0.0035224280      1.2491709483 
  C6            1.4085366065      0.0035224280     -1.2491709483 
  H7            1.4958264821      2.4614964857      0.0000000000 
  H8           -0.0403150676      2.3154328945     -0.8876414420 
  H9           -0.0403150676      2.3154328945      0.8876414420 
  H10           2.4124989955      0.4511633617      1.2822439376 
  H11           0.8716144501      0.3003452322      2.1588157291 
  H12           1.5220459401     -1.0886806673      1.2621891251 
  H13           2.4124989955      0.4511633617     -1.2822439376 
  H14           1.5220459401     -1.0886806673     -1.2621891251 
  H15           0.8716144501      0.3003452322     -2.1588157291 
   
  principal moments of inertia:
        amu*angstrom^2:      110.01369      311.33628      311.43491
                g*cm^2: 1.82682005E-38 5.16985997E-38 5.17149767E-38
   
  rotational constants:
               cm^(-1):      0.15323211      0.05414605      0.05412890
                   GHz:      4.59378296      1.62325766      1.62274361
   
  Molecular weight:      96.06 amu
   
  Stoichiometry: NaC4H9O
  Molecular Point Group: Cs      
	Molecule translated to center of mass 
	Molecule reoriented along symmetry axes
  Point Group used: Cs
  
  
 Symmetrized geometry:
                                   angstroms
  atom               x                 y                 z
  O1           -0.1063762476      0.6379791819      0.0000000000 
  Na2          -1.5287805839      2.1213769387      0.0000000000 
  C3            0.4553248555     -0.6127303484      0.0000000000 
  C4            2.0009121287     -0.5218594305      0.0000000000 
  C5            0.0283231704     -1.4218605381      1.2491709483 
  C6            0.0283231704     -1.4218605381     -1.2491709483 
  H7            2.4862972281     -1.5091504137      0.0000000000 
  H8            2.3402336369      0.0269911360     -0.8876414420 
  H9            2.3402336369      0.0269911360      0.8876414420 
  H10           0.4759641041     -2.4258229271      1.2822439376 
  H11           0.3251459746     -0.8849383817      2.1588157291 
  H12          -1.0638799249     -1.5353698717      1.2621891251 
  H13           0.4759641041     -2.4258229271     -1.2822439376 
  H14          -1.0638799249     -1.5353698717     -1.2621891251 
  H15           0.3251459746     -0.8849383817     -2.1588157291 
   
 
  bond lengths (angstroms):
 
 O1      -Na2     :   2.055165      O1      -C3      :   1.371052
 C3      -C4      :   1.548256      C3      -C5      :   1.548370
 C3      -C6      :   1.548370      C4      -H7      :   1.100156
 C4      -H8      :   1.097398      C4      -H9      :   1.097398
 C5      -H10     :   1.099735      C5      -H11     :   1.097198
 C5      -H12     :   1.098163      C6      -H13     :   1.099735
 C6      -H14     :   1.098163      C6      -H15     :   1.097198
 
  bond angles:
 
 C3      -O1      -Na2     : 160.387607  C4      -C3      -O1      : 110.820370
 C5      -C3      -O1      : 111.328831  C5      -C3      -C4      : 107.816553
 C6      -C3      -O1      : 111.328831  C6      -C3      -C4      : 107.816553
 C6      -C3      -C5      : 107.562125  H7      -C4      -C3      : 112.815505
 H8      -C4      -C3      : 109.756693  H8      -C4      -H7      : 108.204439
 H9      -C4      -C3      : 109.756693  H9      -C4      -H7      : 108.204439
 H9      -C4      -H8      : 107.969351  H10     -C5      -C3      : 112.896629
 H11     -C5      -C3      : 109.787347  H11     -C5      -H10     : 108.161183
 H12     -C5      -C3      : 109.746327  H12     -C5      -H10     : 108.066313
 H12     -C5      -H11     : 108.047979  H13     -C6      -C3      : 112.896629
 H14     -C6      -C3      : 109.746327  H14     -C6      -H13     : 108.066313
 H15     -C6      -C3      : 109.787347  H15     -C6      -H13     : 108.161183
 H15     -C6      -H14     : 108.047979
 
  torsional angles:
 
 O1      -C3      -C4      -H7      : 180.000000
 O1      -C3      -C4      -H8      : -59.254880
 O1      -C3      -C4      -H9      :  59.254880
 O1      -C3      -C5      -H10     :-179.209909
 O1      -C3      -C5      -H11     : -58.444061
 O1      -C3      -C5      -H12     :  60.174089
 O1      -C3      -C6      -H13     : 179.209909
 O1      -C3      -C6      -H14     : -60.174089
 O1      -C3      -C6      -H15     :  58.444061
 Na2     -O1      -C3      -C4      : 180.000000
 Na2     -O1      -C3      -C5      : -60.006790
 Na2     -O1      -C3      -C6      :  60.006790
 C4      -C3      -C5      -H10     : -57.455170
 C4      -C3      -C5      -H11     :  63.310678
 C4      -C3      -C5      -H12     :-178.071172
 C4      -C3      -C6      -H13     :  57.455170
 C4      -C3      -C6      -H14     : 178.071172
 C4      -C3      -C6      -H15     : -63.310678
 C5      -C3      -C4      -H7      :  57.930617
 C5      -C3      -C4      -H8      : 178.675737
 C5      -C3      -C4      -H9      : -62.814503
 C5      -C3      -C6      -H13     : -58.572848
 C5      -C3      -C6      -H14     :  62.043154
 C5      -C3      -C6      -H15     :-179.338696
 C6      -C3      -C4      -H7      : -57.930617
 C6      -C3      -C4      -H8      :  62.814503
 C6      -C3      -C4      -H9      :-178.675737
 C6      -C3      -C5      -H10     :  58.572848
 C6      -C3      -C5      -H11     : 179.338696
 C6      -C3      -C5      -H12     : -62.043154
 
  nuclear repulsion energy.......     258.359690415 hartrees
 
 Non-default options chosen:
   HF Initial guess: read from Jaguar .in file
   SCF calculation type: DFT(b3pw91-d3)              
   DFT=Becke_3_Parameter/HF+Slater+Becke88+PW91+PW-GGAIIC (B3PW91-D3)
   Solvation energy will be computed using PBF
     -solute cavity energy will not be included
     -surface area terms will not be included
   Vibrational frequencies and related properties will be computed
      from analytic second derivatives
   IR intensities will be computed
   Thermochemical properties will be computed
   Solvent: benzene                                                         
   Internal dielectric constant:    1.000
   Continuum dielectric constant:   2.283
   Solvent probe molecule radius:   2.600
  
 Non-default print settings:
     11=  2
  
 Temporary integer options set:
     73=  2
  
  atom       vdw   vdw2    cov     mass  grid  daf  charge   basis
  O1        1.702  1.600  0.730   15.995    Y    Y      Y    6-31g*
  Na2       2.308  1.492  1.540   22.990    Y    Y      Y    6-31g*
  C3        1.949  1.900  0.770   12.000    Y    Y      Y    6-31g*
  C4        1.949  1.900  0.770   12.000    Y    Y      Y    6-31g*
  C5        1.949  1.900  0.770   12.000    Y    Y      Y    6-31g*
  C6        1.949  1.900  0.770   12.000    Y    Y      Y    6-31g*
  H7        1.597  1.150  0.320    1.008    Y    Y      Y    6-31g*
  H8        1.597  1.150  0.320    1.008    Y    Y      Y    6-31g*
  H9        1.597  1.150  0.320    1.008    Y    Y      Y    6-31g*
  H10       1.597  1.150  0.320    1.008    Y    Y      Y    6-31g*
  H11       1.597  1.150  0.320    1.008    Y    Y      Y    6-31g*
  H12       1.597  1.150  0.320    1.008    Y    Y      Y    6-31g*
  H13       1.597  1.150  0.320    1.008    Y    Y      Y    6-31g*
  H14       1.597  1.150  0.320    1.008    Y    Y      Y    6-31g*
  H15       1.597  1.150  0.320    1.008    Y    Y      Y    6-31g*
  
  end of program pre
   
 Time(pre)  user:        2.3  user+sys:        2.3  wallclock:        2.4
  
  start of program onee
  
  smallest eigenvalue of S:    4.120E-03
  number of canonical orbitals.....          106
  end of program onee
   
 Time(onee)  user:        0.2  user+sys:        0.2  wallclock:        0.1
  
  start of program hfig
  
  initial wavefunction read from .in file
  reading wavefunction from input file
          36  orbitals read from .in file
  virtual orbitals input are ignored
  Largest Normalization error   2.059312480678649E-011
  RMS Normalization error   4.313849375941456E-012
 
  Irreducible     Total no   No of occupied orbitals 
  representation  orbitals   Shell_1  Shell_2    ...
  Ap                67         18
  App               39          8
  ------------------------
  Orbital occupation/shell    1.000
 
  end of program hfig
   
 Time(hfig)  user:        0.2  user+sys:        0.2  wallclock:        0.1
  
  start of program probe
  
  end of program probe
   
 Time(probe)  user:        0.1  user+sys:        0.1  wallclock:        0.1
  
  start of program grid
  
   grid     grid set  grid #  grid sym
  ------    --------  ------  --------
  coarse        0        0        1
  medium        2        1        2
  fine          0        0        1
  ultrafine     4        2        2
  charge       -1        3        2
  gradient      4        2        2
  density       0        0        1
  DFT-fine    -11        4        2
  DFT-med.    -10        5        2
  DFT-grad    -12        6        2
  DFT-der2     -8        7        2
  DFT-cphf     -9        8        2
  LMP2-enrg     4        2        2
  LMP2-grad     2        1        2
  DFT-cphf2   -15        9        2
  PBF-dens      0        0        1
  plotting      0        0        1
  Rel-grad    -17        0        1
  
  number of gridpoints: 
     atom        O1      Na2       C3       C4       C5       C6       H7
  grid # 1       67      430       57       47       79        0       65
  grid # 2      251      430      193      159      268        0      256
  grid # 3       48      331        5        5        6        0      178
  grid # 4     2440     2440     2440     2440     4324        0     2440
  grid # 5      756      756      756      756     1192        0      756
  grid # 6     3036     4297     3036     3036     5288        0     3036
  grid # 7    12463    11281     7583     7583    14018        0     8191
  grid # 8      481      401      471      471      750        0      496
  grid # 9      260      217      257      257      406        0      266
   
  number of gridpoints: 
     atom        H8       H9      H10      H11      H12      H13      H14
  grid # 1        0      110      109      109      109        0        0
  grid # 2        0      436      433      434      432        0        0
  grid # 3        0      309      287      289      270        0        0
  grid # 4        0     4324     4324     4324     4324        0        0
  grid # 5        0     1192     1192     1192     1192        0        0
  grid # 6        0     5288     5288     5288     5288        0        0
  grid # 7        0    15170    15170    15170    15170        0        0
  grid # 8        0      792      792      792      792        0        0
  grid # 9        0      420      420      420      420        0        0
   
  number of gridpoints: 
     atom       H15    total
  grid # 1        0     1182
  grid # 2        0     3292
  grid # 3        0     1728
  grid # 4        0    33820
  grid # 5        0     9740
  grid # 6        0    42881
  grid # 7        0   121799
  grid # 8        0     6238
  grid # 9        0     3343
   
  end of program grid
   
 Time(grid)  user:        0.8  user+sys:        0.8  wallclock:        0.8
  
  start of program rwr
  
  end of program rwr
   
 Time(rwr)  user:        0.4  user+sys:        0.4  wallclock:        0.4
  
  start of program ch
  
  gridpoints discarded for being within atomic van der Waals radii          111
  gridpoints used for charge fit         1617
    out of a possible maximum of         1728
  
   Electrostatic potential fitting constrained to reproduce
     total charge:                yes
     dipole moment:               no 
     traceless quadrupole moment: no 
     traceless octupole moment:   no 
  
  Atomic charges from electrostatic potential: 
   
 Atom       O1           Na2          C3           C4           C5      
 Charge   -1.21645      0.92184      1.09006     -0.37291     -0.57517
   
 Atom       C6           H7           H8           H9           H10     
 Charge   -0.57517      0.02178      0.06551      0.06551      0.10110
   
 Atom       H11          H12          H13          H14          H15     
 Charge    0.09949      0.08691      0.10110      0.08691      0.09949
  
  sum of atomic charges:     0.000000
   
 RMS Error   7.04E-04 hartrees
 
  end of program ch
   
 Time(ch)  user:        2.2  user+sys:        2.2  wallclock:        2.4
  
  start of program post
  
  Writing input files for PBF
  end of program post
   
 Time(post)  user:        2.1  user+sys:        2.1  wallclock:        2.3

  start of program pbf

Pbf Version 4.10

Molecular surface area:      128.40775   [A2]
Reaction field energy:       -35.12937   [kT]
  Peak memory usage: 731 Mb

  end of program pbf

 Time(pbf)  user:        0.3  user+sys:        0.3  wallclock:        0.3
  
  start of program solv
  
   number of surface charges from PBF    1792
   sum of surface charges     -0.00054
   
  nuclear repulsion energy.......     258.359690415 hartrees
  end of program solv
   
 Time(solv)  user:        0.2  user+sys:        0.2  wallclock:        0.1
  
  start of program scf
  
 number of electrons..........         52
 number of alpha electrons....         26
 number of beta electrons.....         26
 number of orbitals, total....        106
 number of doubly-occ'd orbs..         26
 number of open shell orbs....          0
 number of occupied orbitals..         26
 number of virtual orbitals...         80
 number of hamiltonians.......          1
 number of shells.............          1
 SCF type: DFT=Becke_3_Parameter/HF+Slater+Becke88+PW91+PW-GGAIIC (B3PW91-D3)
 Energy computed with NOPS off.
 Convergence Criterion:
    Energy (econv):       1.00E-05
    RMS density (dconv):  5.00E-06
  
       i  u  d  i  g                   
       t  p  i  c  r                                 RMS    maximum
       e  d  i  u  i                       energy  density   DIIS  
       r  t  s  t  d       total energy    change  change    error 
  
etot    1  N  N  2  U    -395.30651322152           7.4E-06  3.9E-05
etot    2  N  Y  2  U    -395.30651329658  7.5E-08  2.9E-06  3.6E-05
etot    3  N  N  2  U    -395.30651330853  1.2E-08  0.0E+00  0.0E+00
 
  Computing the dispersion energy correction...
  
  
 Energy components, in hartrees:
   (A)  Total zero-electron terms....     258.49925835825
   (B)    Nuclear-nuclear............     258.35969041458
   (C)    Nuclear-solvent............       0.13956794366
   (E)  Total one-electron terms.....   -1059.09312686772
   (F)    Electron-nuclear...........   -1451.92081169298
   (G)    Electron-solvent...........      -0.20580651192
   (H)    Kinetic....................     393.03349133718
   (I)  Total two-electron terms.....     405.28735520095
   (J)    Coulomb....................     453.40504606925
   (K)    Exchange+Correlation.......     -48.11769086830
   (L)  Electronic energy............    -653.80577166677  (E+I)
   (N0) D3 correction................      -0.01338832044
   (N)  Total quantum mech. energy...    -395.31990162896  (A+L+N0)
   (O)  Gas phase energy.............    -395.25759555973
   (P)  Solution phase energy........    -395.28678234484  (Q+R+S)
   (Q)    Total solute energy........    -395.25366306071  (N-C-G)
   (R)    Total solvent energy.......      -0.03311928413  (C/2+G/2)
   (S)    Solute cavity energy.......       0.00000000000
   (U)  Reorganization energy........       0.00393249902  (Q-O)
   (V)  Solvation energy.............      -0.02918678511  (P-O)
  
 SCFE:  Solution phase energy: DFT(b3pw91-d3)       -395.28678234484 hartrees
        SCF iterations:   3
  
 
 HOMO energy:    -0.16717
 LUMO energy:    -0.01889
 
  Orbital energies (hartrees)/symmetry label: 
   -38.43091 Ap        -18.99928 Ap        -10.16911 Ap        -10.11530 App    
   -10.11526 Ap        -10.11311 Ap         -2.19361 Ap         -1.12233 Ap     
    -1.12219 App        -1.11987 Ap         -0.88689 Ap         -0.72009 Ap     
    -0.65043 App        -0.64936 Ap         -0.48786 Ap         -0.40436 Ap     
    -0.40343 App        -0.40337 Ap         -0.35776 App        -0.35719 Ap     
    -0.33064 App        -0.30547 Ap         -0.29868 Ap         -0.29822 App    
    -0.16734 Ap         -0.16717 App        -0.01889 Ap          0.02537 Ap     
     0.02548 App         0.04444 Ap          0.11826 Ap          0.14904 Ap     
     0.16966 Ap          0.17207 App         0.17564 Ap          0.18497 Ap     
 
  end of program scf
   
 Time(scf)  user:        4.0  user+sys:        4.0  wallclock:        4.3
  
  start of program sole
  
    SCRF                   solvation energy
  iteration          Hartrees            kcal/mol
     0               0.0000000            0.0000
     1              -0.0291868          -18.3150
  
  solvation energy not yet converged... 
  
  end of program sole
   
 Time(sole)  user:        0.1  user+sys:        0.1  wallclock:        0.1
  
  start of program ch
  
  gridpoints discarded for being too close to bond charge centers            8
  gridpoints discarded for being within atomic van der Waals radii     11633248
  gridpoints used for charge fit         3234
    out of a possible maximum of         3234
  
   Electrostatic potential fitting constrained to reproduce
     total charge:                yes
     dipole moment:               no 
     traceless quadrupole moment: no 
     traceless octupole moment:   no 
  
  Atomic charges from electrostatic potential: 
   
 Atom       O1           Na2          C3           C4           C5      
 Charge   -1.21568      0.92171      1.08886     -0.37196     -0.57553
   
 Atom       C6           H7           H8           H9           H10     
 Charge   -0.57553      0.02158      0.06537      0.06537      0.10140
   
 Atom       H11          H12          H13          H14          H15     
 Charge    0.09957      0.08693      0.10140      0.08693      0.09957
  
  sum of atomic charges:     0.000000
   
 RMS Error   7.06E-04 hartrees
 
  end of program ch
   
 Time(ch)  user:        2.2  user+sys:        2.2  wallclock:        2.4
  
  start of program post
  
  Writing input files for PBF
  end of program post
   
 Time(post)  user:        2.1  user+sys:        2.1  wallclock:        2.3

  start of program pbf

Pbf Version 4.10

Molecular surface area:      128.40775   [A2]
Reaction field energy:       -35.12232   [kT]
  Peak memory usage: 731 Mb

  end of program pbf

 Time(pbf)  user:        0.2  user+sys:        0.3  wallclock:        0.3
  
  start of program solv
  
   number of surface charges from PBF    1792
   sum of surface charges     -0.00054
   
  nuclear repulsion energy.......     258.359690415 hartrees
  end of program solv
   
 Time(solv)  user:        0.2  user+sys:        0.2  wallclock:        0.1
  
  start of program scf
  
 Energy computed with NOPS off.
 Convergence Criterion:
    Energy (econv):       1.00E-05
    RMS density (dconv):  5.00E-06
  
       i  u  d  i  g                   
       t  p  i  c  r                                 RMS    maximum
       e  d  i  u  i                       energy  density   DIIS  
       r  t  s  t  d       total energy    change  change    error 
  
etot    1  N  N  2  U    -395.30650622576           3.1E-06  2.6E-05
etot    2  N  N  2  U    -395.30650621099 -1.5E-08  0.0E+00  0.0E+00
 
  Computing the dispersion energy correction...
  
  
 Energy components, in hartrees:
   (A)  Total zero-electron terms....     258.49922040132
   (B)    Nuclear-nuclear............     258.35969041458
   (C)    Nuclear-solvent............       0.13952998674
   (E)  Total one-electron terms.....   -1059.09026972077
   (F)    Electron-nuclear...........   -1451.91630434232
   (G)    Electron-solvent...........      -0.20575804257
   (H)    Kinetic....................     393.03179266412
   (I)  Total two-electron terms.....     405.28454310845
   (J)    Coulomb....................     453.40194612782
   (K)    Exchange+Correlation.......     -48.11740301937
   (L)  Electronic energy............    -653.80572661231  (E+I)
   (N0) D3 correction................      -0.01338832044
   (N)  Total quantum mech. energy...    -395.31989453143  (A+L+N0)
   (O)  Gas phase energy.............    -395.25759555973
   (P)  Solution phase energy........    -395.28678050352  (Q+R+S)
   (Q)    Total solute energy........    -395.25366647560  (N-C-G)
   (R)    Total solvent energy.......      -0.03311402792  (C/2+G/2)
   (S)    Solute cavity energy.......       0.00000000000
   (U)  Reorganization energy........       0.00392908413  (Q-O)
   (V)  Solvation energy.............      -0.02918494379  (P-O)
  
 SCFE:  Solution phase energy: DFT(b3pw91-d3)       -395.28678050352 hartrees
        SCF iterations:   2
  
 
 HOMO energy:    -0.16734
 LUMO energy:    -0.01890
 
  Orbital energies (hartrees)/symmetry label: 
   -38.43093 Ap        -18.99978 Ap        -10.16915 Ap        -10.11528 App    
   -10.11524 Ap        -10.11313 Ap         -2.19362 Ap         -1.12234 Ap     
    -1.12221 App        -1.11988 Ap         -0.88706 Ap         -0.72014 Ap     
    -0.65043 App        -0.64936 Ap         -0.48790 Ap         -0.40437 Ap     
    -0.40345 App        -0.40340 Ap         -0.35776 App        -0.35720 Ap     
    -0.33064 App        -0.30559 Ap         -0.29871 Ap         -0.29825 App    
    -0.16751 Ap         -0.16734 App        -0.01890 Ap          0.02535 Ap     
     0.02546 App         0.04443 Ap          0.11825 Ap          0.14904 Ap     
     0.16964 Ap          0.17205 App         0.17563 Ap          0.18496 Ap     
 
  end of program scf
   
 Time(scf)  user:        2.8  user+sys:        2.8  wallclock:        3.1
  
  start of program sole
  
    SCRF                   solvation energy
  iteration          Hartrees            kcal/mol
     0               0.0000000            0.0000
     1              -0.0291868          -18.3150
     2              -0.0291849          -18.3138
  
  stopping: solvation energy converged
  
  WARNING: 
  The solvation energy is computed from 
  energies at the solution phase geometry and
  at the gas phase geometry.  Because the 
  nogas=1 flag was used, the gas phase geometry
  was not optimized in this calculation; 
  instead the input gas phase energy (esolv0)
  was assumed to be the correct energy of the
  optimized gas phase geometry. 
  
  iterations:   2    sfinal:    -18.3138 kcal/mol
  
  end of program sole
   
 Time(sole)  user:        0.1  user+sys:        0.1  wallclock:        0.1
  
  start of program cutabab2
  
  end of program cutabab2
   
 Time(cutabab2)  user:        0.2  user+sys:        0.2  wallclock:        0.1
  
  start of program der2a
  
  end of program der2a
   
 Time(der2a)  user:        1.6  user+sys:        1.6  wallclock:        1.6
  
  start of program grid
  
  
   Turning symmetry off because some of the
   following programs cannot use it.
   grid     grid set  grid #  grid sym
  ------    --------  ------  --------
  coarse        0        0        1
  medium        2        1        2
  fine          0        0        1
  ultrafine     4        2        2
  charge       -1        3        2
  gradient      4        2        2
  density       0        0        1
  DFT-fine    -11        4        2
  DFT-med.    -10        5        2
  DFT-grad    -12        6        2
  DFT-der2     -8        7        2
  DFT-cphf     -9        8        2
  LMP2-enrg     4        2        2
  LMP2-grad     2        1        2
  DFT-cphf2   -15        9        2
  PBF-dens      0        0        1
  plotting      0        0        1
  Rel-grad    -17        0        1
  
  number of gridpoints: 
     atom        O1      Na2       C3       C4       C5       C6       H7
  grid # 1      113      753       95       76       79       79      109
  grid # 2      438      753      331      267      268      268      433
  grid # 3       78      551        6        6        6        6      288
  grid # 4     4324     4324     4324     4324     4324     4324     4324
  grid # 5     1192     1192     1192     1192     1192     1192     1192
  grid # 6     5288     8150     5288     5288     5288     5288     5288
  grid # 7    23358    21102    14018    14018    14018    14018    15170
  grid # 8      774      642      750      750      750      750      792
  grid # 9      412      338      406      406      406      406      420
   
  number of gridpoints: 
     atom        H8       H9      H10      H11      H12      H13      H14
  grid # 1      110      110      109      109      109      109      109
  grid # 2      436      436      433      434      432      433      432
  grid # 3      309      309      287      289      270      287      270
  grid # 4     4324     4324     4324     4324     4324     4324     4324
  grid # 5     1192     1192     1192     1192     1192     1192     1192
  grid # 6     5288     5288     5288     5288     5288     5288     5288
  grid # 7    15170    15170    15170    15170    15170    15170    15170
  grid # 8      792      792      792      792      792      792      792
  grid # 9      420      420      420      420      420      420      420
   
  number of gridpoints: 
     atom       H15    total
  grid # 1      109     2178
  grid # 2      434     6228
  grid # 3      289     3251
  grid # 4     4324    64860
  grid # 5     1192    17880
  grid # 6     5288    82182
  grid # 7    15170   237062
  grid # 8      792    11544
  grid # 9      420     6154
   
  end of program grid
   
 Time(grid)  user:        1.4  user+sys:        1.4  wallclock:        1.4
  
  start of program der2b
  
  end of program der2b
   
 Time(der2b)  user:       21.1  user+sys:       21.1  wallclock:       21.1
  
  start of program der2nda
  
  Computing the dispersion energy correction, gradient, hessian...
 
  end of program der2nda
   
 Time(der2nda)  user:        2.7  user+sys:        2.7  wallclock:        2.7
  
  start of program der2ndb
  
  end of program der2ndb
   
 Time(der2ndb)  user:       53.5  user+sys:       53.5  wallclock:       53.6
  
  start of program rwr
  
  end of program rwr
   
 Time(rwr)  user:        0.6  user+sys:        0.6  wallclock:        0.6
  
  start of program cphfa
  
       1  vectors produced in CPHF
  
     v    i  j  k  i  g
     e    t  c  c  c  r
     c    e  o  o  u  i
     t    r  r  r  t  d       RMS  
  
     1    1  0  0  6  M     2.4E-02
     1    2  0  0  6  M     1.6E-03
     1    3  0  0  6  M     4.7E-04
     1    4  0  0  6  M     1.7E-04
     1    5  0  0  6  M     3.7E-05
  
  
  Atomic Polar Tensors (au): Total
  =========================
  
  APT for atom O1      
  --------------------------------------
       -0.8751       0.4450      -0.0001
        0.3889      -1.4677       0.0001
       -0.0000       0.0001      -0.6566
  --------------------------------------
  
  APT for atom Na2     
  --------------------------------------
        0.8235      -0.1888       0.0000
       -0.1168       0.9450      -0.0000
       -0.0001       0.0000       0.7252
  --------------------------------------
  
  APT for atom C3      
  --------------------------------------
        0.5332      -0.3058       0.0000
       -0.3862       1.0250       0.0000
        0.0000       0.0000       0.3718
  --------------------------------------
  
  APT for atom C4      
  --------------------------------------
       -0.1487       0.0236       0.0000
       -0.0033       0.0960      -0.0001
       -0.0000       0.0000       0.0755
  --------------------------------------
  
  APT for atom C5      
  --------------------------------------
        0.0786      -0.0384       0.0476
       -0.0112       0.0017       0.0975
        0.0380       0.1314      -0.0629
  --------------------------------------
  
  APT for atom C6      
  --------------------------------------
        0.0786      -0.0384      -0.0476
       -0.0112       0.0017      -0.0975
       -0.0380      -0.1314      -0.0628
  --------------------------------------
  
  APT for atom H7      
  --------------------------------------
       -0.0815       0.1019       0.0000
        0.1519      -0.1632      -0.0000
       -0.0000       0.0000       0.0457
  --------------------------------------
  
  APT for atom H8      
  --------------------------------------
        0.0011      -0.0354       0.0514
       -0.0628      -0.0116       0.1000
        0.1007       0.1041      -0.1152
  --------------------------------------
  
  APT for atom H9      
  --------------------------------------
        0.0011      -0.0354      -0.0515
       -0.0627      -0.0114      -0.0998
       -0.1007      -0.1041      -0.1152
  --------------------------------------
  
  APT for atom H10     
  --------------------------------------
        0.0105       0.0961      -0.0122
        0.0832      -0.2055       0.0623
       -0.0011       0.0274       0.0186
  --------------------------------------
  
  APT for atom H11     
  --------------------------------------
        0.0312      -0.0320      -0.0663
       -0.0351      -0.0065      -0.1199
       -0.0424      -0.0716      -0.1573
  --------------------------------------
  
  APT for atom H12     
  --------------------------------------
       -0.2227      -0.0571       0.0428
       -0.0190       0.0332       0.0084
       -0.0100       0.0073       0.0378
  --------------------------------------
  
  APT for atom H13     
  --------------------------------------
        0.0105       0.0961       0.0121
        0.0832      -0.2055      -0.0623
        0.0011      -0.0274       0.0186
  --------------------------------------
  
  APT for atom H14     
  --------------------------------------
       -0.2227      -0.0570      -0.0428
       -0.0189       0.0332      -0.0084
        0.0100      -0.0073       0.0378
  --------------------------------------
  
  APT for atom H15     
  --------------------------------------
        0.0312      -0.0320       0.0663
       -0.0352      -0.0066       0.1201
        0.0424       0.0716      -0.1574
  --------------------------------------
  
  end of program cphfa
   
 Time(cphfa)  user:       52.0  user+sys:       52.0  wallclock:       52.1
  
  start of program freq
  
   
  Number of frequencies:  39
  harmonic frequencies in cm**-1, reduced masses in amu,
  force constants in mDyne/A, and
  normal modes in cartesian coordinates:          39
  IR intensities in km/mol
  
  vibration #            1        2        3        4        5        6
                  -------- -------- -------- -------- -------- --------
  frequencies        86.00    88.57   245.33   289.39   306.36   306.77
  symmetries       App      Ap       App      Ap       App      Ap      
  intensities        25.12    25.23     0.00    29.17     0.05     0.25
  reduc. mass         3.56     3.57     0.11     9.24     0.16     0.16
  force const         0.02     0.02     0.00     0.46     0.01     0.01
    O1       X     0.00174 -0.12066  0.00017 -0.00358  0.00076 -0.00475
    O1       Y     0.00104 -0.07276  0.00009 -0.00098  0.00039 -0.00218
    O1       Z    -0.14250 -0.00205 -0.00111  0.00010 -0.01276 -0.00253
    Na2      X    -0.00095  0.06721  0.00006  0.10826 -0.00071  0.00613
    Na2      Y    -0.00124  0.08474 -0.00018 -0.12428  0.00142 -0.00988
    Na2      Z     0.10544  0.00152  0.00061 -0.00002 -0.00049 -0.00009
    C3       X     0.00036 -0.02542  0.00001 -0.01897 -0.00044  0.00169
    C3       Y     0.00041 -0.02873  0.00002  0.00678 -0.00030  0.00194
    C3       Z    -0.03816 -0.00055 -0.00002  0.00000  0.00046  0.00010
    C4       X     0.00047 -0.03356 -0.00000 -0.03477  0.00096 -0.00578
    C4       Y    -0.00136  0.09576  0.00008  0.09861 -0.00990  0.05279
    C4       Z     0.02585  0.00038  0.01169 -0.00002 -0.00249 -0.00046
    C5       X    -0.05924  0.03609 -0.00951 -0.05262 -0.02020 -0.00259
    C5       Y     0.08337 -0.06265 -0.00312  0.03716  0.03296 -0.01276
    C5       Z    -0.00554 -0.00098 -0.00565  0.00319  0.01092 -0.01026
    C6       X     0.05816  0.03778  0.00924 -0.05280  0.01940  0.00510
    C6       Y    -0.08152 -0.06499  0.00319  0.03740 -0.02543 -0.02410
    C6       Z    -0.00557  0.00081 -0.00557 -0.00325  0.00622  0.01361
    H7       X    -0.00067  0.04850  0.00017  0.05623 -0.00765  0.03935
    H7       Y    -0.00192  0.13602  0.00017  0.14312 -0.01397  0.07418
    H7       Z     0.10857  0.00191  0.34343  0.00136 -0.45637 -0.08866
    H8       X     0.03996 -0.07794  0.04839 -0.09039 -0.05403 -0.04465
    H8       Y    -0.05688  0.12205 -0.28058  0.13294  0.37549  0.14468
    H8       Z     0.00682 -0.00060 -0.14480  0.00052  0.21648  0.04221
    H9       X    -0.03775 -0.07915 -0.04863 -0.09072  0.06633 -0.02128
    H9       Y     0.05341  0.12426  0.28097  0.13537 -0.40166 -0.00632
    H9       Z     0.00680  0.00045 -0.14484 -0.00195  0.21658  0.04198
    H10      X    -0.06288  0.11138 -0.27359 -0.03640 -0.15123 -0.33593
    H10      Y     0.08465 -0.02914 -0.12656  0.04643 -0.02770 -0.16882
    H10      Z     0.08476 -0.00519 -0.17573  0.06351 -0.03275 -0.24022
    H11      X    -0.10104 -0.00300  0.26516 -0.10824  0.10295  0.34853
    H11      Y     0.14423 -0.04320 -0.18455  0.08155 -0.02518 -0.25483
    H11      Z    -0.02739  0.00040  0.01300 -0.00534  0.00525  0.01940
    H12      X    -0.06021  0.04496 -0.03763 -0.05137 -0.03436 -0.03840
    H12      Y     0.08521 -0.14272  0.29386  0.01980  0.18185  0.36273
    H12      Z    -0.05084 -0.00003  0.13478 -0.04714  0.06710  0.17027
    H13      X     0.05966  0.11340  0.27359 -0.03871  0.26598 -0.25466
    H13      Y    -0.08374 -0.03142  0.12675  0.04568  0.08938 -0.14596
    H13      Z     0.08452  0.00744 -0.17588 -0.06247 -0.12083  0.21016
    H14      X     0.05887  0.04670  0.03738 -0.05177  0.04597 -0.02277
    H14      Y    -0.08108 -0.14536 -0.29407  0.02244 -0.30435  0.26800
    H14      Z    -0.05081 -0.00131  0.13528  0.04603  0.12622 -0.13254
    H15      X     0.10102 -0.00034 -0.26589 -0.10629 -0.22666  0.28418
    H15      Y    -0.14284 -0.04711  0.18471  0.08052  0.11947 -0.22642
    H15      Z    -0.02735 -0.00116  0.01298  0.00523  0.01214 -0.01592
  
  vibration #            7        8        9       10       11       12
                  -------- -------- -------- -------- -------- --------
  frequencies       348.28   353.82   467.12   476.19   484.21   753.83
  symmetries       App      Ap       Ap       App      Ap       Ap      
  intensities         3.94     5.85    14.58     6.68    16.84     0.49
  reduc. mass         1.49     1.58     1.37     1.81     1.75     1.75
  force const         0.11     0.12     0.18     0.24     0.24     0.59
    O1       X    -0.00016  0.10019 -0.00794 -0.00014 -0.13172 -0.03487
    O1       Y    -0.00011  0.05911 -0.10632 -0.00013  0.00380  0.06421
    O1       Z     0.11213  0.00021  0.00018 -0.12674  0.00016 -0.00000
    Na2      X     0.00002 -0.01919 -0.03290 -0.00001  0.02778  0.00852
    Na2      Y    -0.00002  0.01914  0.03742  0.00001 -0.03041 -0.00946
    Na2      Z    -0.00160 -0.00000 -0.00000  0.00080  0.00000  0.00000
    C3       X    -0.00005  0.01981  0.09255  0.00017  0.03561 -0.02636
    C3       Y    -0.00004  0.01749 -0.06995  0.00000  0.09168  0.05960
    C3       Z     0.02343  0.00003 -0.00012  0.08968 -0.00009 -0.00000
    C4       X    -0.00004  0.01243  0.11738  0.00024  0.07435  0.12812
    C4       Y    -0.00012  0.06665  0.03742  0.00001 -0.03970  0.02716
    C4       Z    -0.12699 -0.00024  0.00006 -0.05153  0.00003 -0.00001
    C5       X    -0.09675 -0.04761 -0.05117 -0.03972  0.00156 -0.04637
    C5       Y     0.03311 -0.08020  0.02277 -0.08330  0.02036 -0.05331
    C5       Z     0.00346 -0.07905  0.00366  0.06947 -0.08725  0.11278
    C6       X     0.09695 -0.04724 -0.05125  0.03956  0.00150 -0.04637
    C6       Y    -0.03284 -0.08038  0.02252  0.08341  0.02019 -0.05331
    C6       Z     0.00315  0.07907 -0.00384  0.06966  0.08709 -0.11277
    H7       X    -0.00016  0.08934  0.21098  0.00015 -0.12272  0.05637
    H7       Y    -0.00018  0.10384  0.08294 -0.00003 -0.13449 -0.00922
    H7       Z    -0.13670 -0.00079  0.00001 -0.13280  0.00039  0.00003
    H8       X    -0.12719 -0.03632  0.06135 -0.16111  0.19619  0.19006
    H8       Y    -0.06197  0.09816  0.07340 -0.01108 -0.12244 -0.01101
    H8       Z    -0.21458  0.00144  0.00103 -0.11921 -0.00615 -0.00208
    H9       X     0.12727 -0.03573  0.06095  0.16170  0.19579  0.18999
    H9       Y     0.06164  0.09749  0.07310  0.01102 -0.12203 -0.01101
    H9       Z    -0.21459 -0.00172 -0.00058 -0.11920  0.00611  0.00207
    H10      X    -0.14998  0.00487 -0.17515 -0.02067 -0.01283 -0.01250
    H10      Y     0.01167 -0.05854 -0.02897 -0.07745  0.01180 -0.04144
    H10      Z     0.09256 -0.14308  0.16082 -0.04466 -0.16231  0.04862
    H11      X    -0.17168 -0.17569 -0.12628 -0.07816 -0.06651 -0.03839
    H11      Y     0.06615 -0.16592  0.08671 -0.20382 -0.08320 -0.11405
    H11      Z     0.00722  0.01352 -0.01026  0.15487 -0.00325  0.14812
    H12      X    -0.10381 -0.04219 -0.06676 -0.03677  0.00043 -0.04149
    H12      Y     0.09305 -0.15710  0.16904 -0.12242  0.02716 -0.11229
    H12      Z    -0.11058 -0.20420 -0.14472  0.01620 -0.18688  0.14414
    H13      X     0.14989  0.00525 -0.17510  0.02026 -0.01293 -0.01251
    H13      Y    -0.01152 -0.05873 -0.02916  0.07745  0.01160 -0.04144
    H13      Z     0.09211  0.14362 -0.16070 -0.04483  0.16246 -0.04858
    H14      X     0.10397 -0.04181 -0.06682  0.03658  0.00038 -0.04149
    H14      Y    -0.09238 -0.15731  0.16858  0.12282  0.02699 -0.11227
    H14      Z    -0.11150  0.20372  0.14472  0.01709  0.18677 -0.14416
    H15      X     0.17254 -0.17487 -0.12656  0.07754 -0.06655 -0.03837
    H15      Y    -0.06562 -0.16640  0.08614  0.20394 -0.08368 -0.11404
    H15      Z     0.00728 -0.01354  0.00983  0.15492  0.00291 -0.14811
  
  vibration #           13       14       15       16       17       18
                  -------- -------- -------- -------- -------- --------
  frequencies       880.13   882.41   945.61  1043.34  1043.80  1045.86
  symmetries       App      Ap       App      App      Ap       Ap      
  intensities         1.86     1.87     0.00     0.01    10.57    56.09
  reduc. mass         0.82     0.82     0.22     0.38     0.43     2.17
  force const         0.37     0.38     0.12     0.24     0.27     1.40
    O1       X    -0.00001  0.00596  0.00001  0.00025 -0.01048 -0.07331
    O1       Y    -0.00001  0.00248 -0.00001 -0.00113  0.06678  0.12776
    O1       Z     0.00620  0.00001  0.00025  0.02220  0.00032  0.00003
    Na2      X     0.00000 -0.00034 -0.00000 -0.00006  0.00341  0.00720
    Na2      Y     0.00000  0.00034  0.00000  0.00006 -0.00358 -0.00767
    Na2      Z     0.00003  0.00000  0.00009  0.00017  0.00000 -0.00000
    C3       X    -0.00007  0.10348  0.00003  0.00035 -0.02893  0.03790
    C3       Y    -0.00003  0.04640  0.00001  0.00057 -0.03680 -0.03782
    C3       Z     0.11281  0.00009 -0.00159 -0.04750 -0.00067 -0.00006
    C4       X     0.00009 -0.11162 -0.00003 -0.00033  0.02250 -0.00084
    C4       Y    -0.00004  0.04710  0.00003 -0.00075  0.06162 -0.09896
    C4       Z     0.05144  0.00005 -0.06973 -0.06952 -0.00099 -0.00010
    C5       X     0.02010  0.03632  0.05361 -0.07994 -0.00349  0.03841
    C5       Y     0.09506 -0.03282  0.02488  0.03940 -0.06830 -0.02730
    C5       Z    -0.04749  0.05653  0.03504  0.02759 -0.05765  0.00663
    C6       X    -0.02017  0.03633 -0.05361  0.07991 -0.00120  0.03862
    C6       Y    -0.09501 -0.03295 -0.02490 -0.03734 -0.06940 -0.02741
    C6       Z    -0.04742 -0.05662  0.03504  0.02594  0.05841 -0.00655
    H7       X     0.00033 -0.42683 -0.00015  0.00251 -0.21058  0.39065
    H7       Y     0.00008 -0.10606 -0.00003  0.00071 -0.05837  0.09814
    H7       Z    -0.07432 -0.00002  0.12872  0.08875  0.00131  0.00005
    H8       X    -0.23897  0.04799  0.34030  0.26645  0.18648 -0.23889
    H8       Y    -0.04290 -0.08719  0.06754  0.05084 -0.07080  0.10804
    H8       Z    -0.06522 -0.02096  0.10312  0.06653 -0.01982  0.03666
    H9       X     0.23890  0.04851 -0.34022 -0.27105  0.17882 -0.23967
    H9       Y     0.04305 -0.08698 -0.06764 -0.04911 -0.07219  0.10782
    H9       Z    -0.06527  0.02073  0.10317  0.06606  0.02168 -0.03641
    H10      X     0.11456 -0.13440 -0.09874  0.15336 -0.04661 -0.08954
    H10      Y     0.12901 -0.10657 -0.04633  0.12882 -0.07328 -0.07976
    H10      Z    -0.34443  0.15742 -0.06087 -0.24488  0.26432  0.13729
    H11      X    -0.02315 -0.14516 -0.20097  0.09441  0.09928 -0.06762
    H11      Y    -0.14224 -0.06612 -0.17818 -0.12354  0.26121  0.02271
    H11      Z     0.10669  0.13702  0.23732  0.06754 -0.28390  0.01088
    H12      X     0.03534  0.01746  0.04020 -0.04469 -0.01665  0.02170
    H12      Y    -0.04962  0.12416  0.10394 -0.25940  0.09218  0.11336
    H12      Z    -0.12230 -0.20928 -0.33947  0.26525  0.11538 -0.12955
    H13      X    -0.11433 -0.13464  0.09871 -0.15171 -0.05099 -0.08993
    H13      Y    -0.12883 -0.10681  0.04630 -0.12643 -0.07694 -0.08010
    H13      Z    -0.34422 -0.15792 -0.06100 -0.23685 -0.27131 -0.13796
    H14      X    -0.03537  0.01744 -0.04020  0.04511 -0.01535  0.02182
    H14      Y     0.04938  0.12429 -0.10388  0.25631  0.09956  0.11400
    H14      Z    -0.12260  0.20927 -0.33939  0.26812 -0.10766  0.13021
    H15      X     0.02333 -0.14523  0.20091 -0.09702  0.09649 -0.06783
    H15      Y     0.14232 -0.06598  0.17818  0.11594  0.26459  0.02306
    H15      Z     0.10687 -0.13698  0.23731  0.05940  0.28566 -0.01065
  
  vibration #           19       20       21       22       23       24
                  -------- -------- -------- -------- -------- --------
  frequencies      1240.74  1241.04  1279.77  1395.32  1396.55  1422.91
  symmetries       App      Ap       Ap       App      Ap       Ap      
  intensities        17.47    15.76   230.89    10.55    10.33     2.02
  reduc. mass         3.33     3.35     4.31     0.39     0.37     0.23
  force const         3.02     3.04     4.16     0.44     0.42     0.27
    O1       X     0.00056  0.02170  0.03887  0.00001  0.00169  0.00049
    O1       Y     0.00028  0.01122 -0.08286  0.00000  0.00080 -0.00118
    O1       Z    -0.02448  0.00062 -0.00000  0.00208 -0.00001  0.00000
    Na2      X     0.00001  0.00042 -0.00142  0.00000  0.00021 -0.00014
    Na2      Y    -0.00001 -0.00046  0.00140  0.00000 -0.00000  0.00025
    Na2      Z     0.00001  0.00000  0.00000  0.00010  0.00000  0.00000
    C3       X    -0.00482 -0.18939 -0.09067 -0.00014 -0.03239  0.00373
    C3       Y    -0.00218 -0.08605  0.19951 -0.00006 -0.01408 -0.00776
    C3       Z     0.20767 -0.00529 -0.00001 -0.03574  0.00019 -0.00002
    C4       X     0.00079  0.03152  0.00871  0.00050  0.10684 -0.07661
    C4       Y     0.00082  0.03221 -0.05104  0.00006  0.01460 -0.00322
    C4       Z    -0.07843  0.00200  0.00000  0.01125 -0.00003 -0.00002
    C5       X    -0.00686  0.06630  0.02655 -0.02580  0.02573  0.01894
    C5       Y    -0.01899  0.02097 -0.04299 -0.04133  0.02970  0.03888
    C5       Z    -0.04982  0.01710 -0.01092  0.08165 -0.04280 -0.05814
    C6       X     0.01024  0.06586  0.02655  0.02605  0.02551  0.01896
    C6       Y     0.02003  0.01998 -0.04299  0.04160  0.02932  0.03888
    C6       Z    -0.05063 -0.01454  0.01093  0.08203  0.04202  0.05815
    H7       X     0.00050  0.01650  0.17359 -0.00178 -0.37755  0.28502
    H7       Y     0.00033  0.01122  0.03864 -0.00098 -0.20729  0.16246
    H7       Z     0.16097 -0.00403 -0.00003 -0.04979 -0.00009  0.00032
    H8       X     0.23384  0.15802 -0.07102 -0.00832 -0.35553  0.27812
    H8       Y     0.08025 -0.06044  0.09647 -0.02517  0.04295 -0.05495
    H8       Z     0.07226 -0.01093  0.05108 -0.00907 -0.14165  0.09299
    H9       X    -0.22550  0.16979 -0.07103  0.00501 -0.35590  0.27843
    H9       Y    -0.08330 -0.05631  0.09646  0.02562  0.04301 -0.05524
    H9       Z     0.07277  0.00721 -0.05106 -0.00779  0.14170 -0.09297
    H10      X     0.06942 -0.10348 -0.06123  0.16652 -0.14565 -0.15407
    H10      Y     0.02893 -0.05142 -0.06857  0.04457 -0.04796 -0.03886
    H10      Z     0.01970 -0.07576  0.14584 -0.34423  0.18087  0.27248
    H11      X     0.07569 -0.14185 -0.07527  0.13740 -0.10867 -0.09480
    H11      Y     0.16343 -0.01849  0.09377  0.25681 -0.14268 -0.22113
    H11      Z    -0.18198  0.09578 -0.04879 -0.16375  0.11102  0.14228
    H12      X    -0.01036  0.04573  0.00018 -0.03744  0.03365  0.03428
    H12      Y     0.10157  0.10827  0.12855  0.14976 -0.11157 -0.15716
    H12      Z     0.02564 -0.26524  0.00438 -0.30294  0.16246  0.22729
    H13      X    -0.07462 -0.09981 -0.06121 -0.16797 -0.14425 -0.15422
    H13      Y    -0.03153 -0.04988 -0.06856 -0.04508 -0.04762 -0.03893
    H13      Z     0.02361  0.07464 -0.14587 -0.34569 -0.17753 -0.27233
    H14      X     0.01268  0.04514  0.00018  0.03777  0.03332  0.03431
    H14      Y    -0.09593  0.11325  0.12856 -0.15086 -0.11030 -0.15722
    H14      Z     0.03908  0.26355 -0.00437 -0.30452 -0.15968 -0.22750
    H15      X    -0.08284 -0.13778 -0.07526 -0.13850 -0.10747 -0.09502
    H15      Y    -0.16413 -0.01013  0.09378 -0.25798 -0.14019 -0.22100
    H15      Z    -0.18662 -0.08637  0.04881 -0.16475 -0.10949 -0.14229
  
  vibration #           25       26       27       28       29       30
                  -------- -------- -------- -------- -------- --------
  frequencies      1498.38  1506.79  1507.17  1522.55  1522.91  1543.31
  symmetries       App      App      Ap       App      Ap       Ap      
  intensities         0.00     0.02     0.10     1.87     2.59     0.04
  reduc. mass         0.13     0.16     0.16     0.16     0.15     0.13
  force const         0.18     0.22     0.21     0.21     0.21     0.18
    O1       X    -0.00000 -0.00001 -0.00025  0.00037  0.00420 -0.00314
    O1       Y    -0.00001 -0.00002 -0.00028  0.00022  0.00231  0.00674
    O1       Z     0.00002 -0.00035  0.00004 -0.00472  0.00042  0.00001
    Na2      X    -0.00000 -0.00001 -0.00019  0.00001  0.00009 -0.00006
    Na2      Y    -0.00000 -0.00001 -0.00014 -0.00001 -0.00007 -0.00000
    Na2      Z    -0.00002 -0.00027  0.00002 -0.00009  0.00001 -0.00000
    C3       X     0.00003  0.00022  0.00371 -0.00310 -0.03494  0.01916
    C3       Y     0.00003  0.00012  0.00164 -0.00161 -0.01688 -0.03877
    C3       Z    -0.00026  0.00416 -0.00038  0.03922 -0.00352 -0.00007
    C4       X     0.00003 -0.00018 -0.00322  0.00096  0.01148 -0.00332
    C4       Y     0.00028  0.00282  0.04251 -0.00136 -0.01562 -0.02615
    C4       Z    -0.03657 -0.01671  0.00124  0.03777 -0.00342 -0.00011
    C5       X     0.02761 -0.02852  0.00092  0.00803 -0.02932  0.01636
    C5       Y     0.01383  0.02346 -0.02404  0.02124 -0.00599 -0.01724
    C5       Z     0.01816  0.00551 -0.01551  0.00443 -0.01888 -0.01153
    C6       X    -0.02758  0.02837 -0.00246 -0.01306 -0.02747  0.01641
    C6       Y    -0.01406 -0.02642 -0.02046 -0.02212 -0.00207 -0.01719
    C6       Z     0.01833  0.00747  0.01442  0.00788  0.01781  0.01151
    H7       X     0.00123  0.01424  0.21628 -0.01070 -0.12249 -0.18132
    H7       Y     0.00076  0.00858  0.13034 -0.00656 -0.07506 -0.10208
    H7       Z     0.42553  0.21249 -0.01529 -0.52690  0.04758  0.00138
    H8       X    -0.17762 -0.09967 -0.09788  0.25086  0.01407  0.09929
    H8       Y     0.20037  0.07459 -0.38236 -0.23555  0.18971  0.27438
    H8       Z     0.03285 -0.00100 -0.28616 -0.02654  0.12231  0.21971
    H9       X     0.17588  0.08553 -0.11097 -0.24393  0.05871  0.10053
    H9       Y    -0.20512 -0.12433 -0.36793  0.26494  0.14447  0.27301
    H9       Z     0.03662  0.03688  0.28348 -0.04765 -0.11557 -0.21946
    H10      X    -0.32576  0.00127  0.22607 -0.23793  0.34766  0.09628
    H10      Y    -0.15150  0.02851  0.08711 -0.09394  0.17002  0.02396
    H10      Z    -0.20317  0.24958 -0.01933 -0.00969  0.28631 -0.18506
    H11      X    -0.08945  0.42297 -0.21527  0.11505  0.17702 -0.35945
    H11      Y     0.22545 -0.16987 -0.04901  0.08253 -0.30240  0.07062
    H11      Z    -0.08155 -0.03230  0.08402 -0.07556  0.10032  0.06420
    H12      X     0.04524  0.00243 -0.02983  0.03386 -0.04504 -0.00947
    H12      Y    -0.26039 -0.18376  0.30245 -0.26569  0.25279  0.22114
    H12      Z     0.04057 -0.32286  0.17888 -0.08525 -0.13483  0.29361
    H13      X     0.32775  0.02848  0.21916  0.29757  0.29980  0.09541
    H13      Y     0.15225 -0.01679  0.08781  0.12329  0.15066  0.02359
    H13      Z    -0.20297  0.24983 -0.01124 -0.05999 -0.28062  0.18536
    H14      X    -0.04551 -0.00635 -0.02854 -0.04152 -0.03830 -0.00936
    H14      Y     0.26323  0.22183  0.27120  0.30880  0.20122  0.22034
    H14      Z     0.03866 -0.34308 -0.13496 -0.06184  0.14829 -0.29351
    H15      X     0.08723 -0.44714 -0.15825 -0.08400  0.19537 -0.35937
    H15      Y    -0.22592  0.16199 -0.06785 -0.13533 -0.28340  0.07115
    H15      Z    -0.08242 -0.04291 -0.07770 -0.09299 -0.08534 -0.06390
  
  vibration #           31       32       33       34       35       36
                  -------- -------- -------- -------- -------- --------
  frequencies      3016.97  3017.26  3028.03  3089.29  3091.26  3102.07
  symmetries       App      Ap       Ap       App      Ap       Ap      
  intensities        48.00    55.29    33.30     2.40    19.35   135.23
  reduc. mass         0.18     0.18     0.12     0.24     0.19     0.16
  force const         0.95     0.96     0.63     1.34     1.06     0.90
    O1       X     0.00000  0.00014  0.00040 -0.00000  0.00073 -0.00063
    O1       Y     0.00000  0.00017 -0.00051 -0.00000  0.00026  0.00089
    O1       Z    -0.00019  0.00000  0.00000  0.00059  0.00000 -0.00000
    Na2      X     0.00000  0.00004 -0.00008  0.00000 -0.00002 -0.00004
    Na2      Y     0.00000  0.00002  0.00006  0.00000 -0.00004  0.00008
    Na2      Z    -0.00005  0.00000  0.00000 -0.00004 -0.00000 -0.00000
    C3       X    -0.00002 -0.00186 -0.00094  0.00001 -0.00169  0.00276
    C3       Y    -0.00002 -0.00114  0.00128 -0.00000 -0.00054 -0.00326
    C3       Z     0.00232 -0.00003  0.00000 -0.00097 -0.00000  0.00000
    C4       X     0.00048  0.03836  0.02933  0.00000 -0.00111 -0.00018
    C4       Y    -0.00013 -0.01015 -0.00654  0.00018 -0.06940 -0.05020
    C4       Z    -0.00048 -0.00001 -0.00001 -0.00075  0.00008  0.00014
    C5       X     0.00759  0.00434 -0.00703  0.04880 -0.02380  0.04273
    C5       Y     0.02429  0.01450 -0.01836 -0.03742  0.02661 -0.02654
    C5       Z    -0.02357 -0.01356  0.01947 -0.00951  0.01050 -0.00325
    C6       X    -0.00747  0.00454 -0.00704 -0.04861 -0.02407  0.04287
    C6       Y    -0.02389  0.01511 -0.01837  0.03723  0.02686 -0.02650
    C6       Z    -0.02320  0.01416 -0.01949 -0.00944 -0.01058  0.00317
    H7       X    -0.00298 -0.23886 -0.17412  0.00055 -0.22139 -0.17149
    H7       Y     0.00644  0.51658  0.37815 -0.00115  0.45895  0.34868
    H7       Z     0.00022 -0.00001 -0.00001  0.00111  0.00002  0.00003
    H8       X    -0.00002 -0.10414 -0.08334 -0.00109  0.11912  0.08330
    H8       Y    -0.00276 -0.19505 -0.15017 -0.00118  0.18691  0.12969
    H8       Z     0.00445  0.31119  0.23966  0.00381 -0.32942 -0.22803
    H9       X    -0.00257 -0.10406 -0.08331  0.00049  0.11875  0.08266
    H9       Y    -0.00209 -0.19492 -0.15007  0.00023  0.18625  0.12858
    H9       Z    -0.00329 -0.31102 -0.23952  0.00213  0.32842  0.22631
    H10      X     0.20068  0.11807 -0.15303 -0.18939  0.12018 -0.14919
    H10      Y    -0.43229 -0.25467  0.32915  0.43005 -0.26660  0.34422
    H10      Z     0.00407  0.00228 -0.00267 -0.00852  0.00682 -0.00822
    H11      X     0.09575  0.05522 -0.07740  0.05643 -0.05254  0.02477
    H11      Y     0.17574  0.10155 -0.14189  0.07041 -0.08008  0.02268
    H11      Z     0.27226  0.15981 -0.22577  0.12805 -0.13718  0.04701
    H12      X    -0.38378 -0.22040  0.31329 -0.45172  0.21862 -0.39160
    H12      Y    -0.03133 -0.01713  0.02706 -0.05229  0.02852 -0.04415
    H12      Z    -0.00531 -0.00393  0.00212 -0.00386  0.00282  0.00091
    H13      X    -0.19746  0.12314 -0.15318  0.18850  0.12135 -0.14929
    H13      Y     0.42534 -0.26560  0.32947 -0.42806 -0.26925  0.34450
    H13      Z     0.00401 -0.00238  0.00267 -0.00847 -0.00688  0.00821
    H14      X     0.37778 -0.23012  0.31362  0.44988  0.22112 -0.39291
    H14      Y     0.03087 -0.01793  0.02709  0.05206  0.02882 -0.04427
    H14      Z    -0.00521  0.00406 -0.00212 -0.00384 -0.00285 -0.00092
    H15      X    -0.09426  0.05766 -0.07748 -0.05609 -0.05296  0.02447
    H15      Y    -0.17301  0.10603 -0.14205 -0.06990 -0.08065  0.02209
    H15      Z     0.26794 -0.16674  0.22601  0.12717  0.13818 -0.04606
  
  vibration #           37       38       39
                  -------- -------- --------
  frequencies      3105.20  3111.51  3114.42
  symmetries       App      Ap       App     
  intensities         7.44    83.09    79.32
  reduc. mass         0.21     0.27     0.36
  force const         1.22     1.54     2.06
    O1       X     0.00000  0.00035  0.00000
    O1       Y    -0.00000  0.00059  0.00000
    O1       Z     0.00030 -0.00000  0.00066
    Na2      X     0.00000 -0.00005 -0.00000
    Na2      Y    -0.00000 -0.00002  0.00000
    Na2      Z    -0.00002 -0.00000 -0.00003
    C3       X    -0.00000 -0.00198 -0.00000
    C3       Y     0.00001 -0.00255 -0.00001
    C3       Z    -0.00089  0.00000 -0.00306
    C4       X     0.00001  0.00046 -0.00001
    C4       Y     0.00012 -0.01510 -0.00011
    C4       Z     0.03754  0.00007 -0.07996
    C5       X    -0.03195 -0.03376 -0.01481
    C5       Y    -0.03224 -0.03485 -0.01492
    C5       Z    -0.03436 -0.03702 -0.01536
    C6       X     0.03181 -0.03382  0.01479
    C6       Y     0.03228 -0.03490  0.01484
    C6       Z    -0.03433  0.03707 -0.01529
    H7       X     0.00039 -0.05049 -0.00032
    H7       Y    -0.00080  0.10445  0.00067
    H7       Z     0.00721  0.00001 -0.01637
    H8       X     0.08311  0.02691 -0.18484
    H8       Y     0.14465  0.04034 -0.31273
    H8       Z    -0.22563 -0.06755  0.48727
    H9       X    -0.08356  0.02658  0.18530
    H9       Y    -0.14535  0.03977  0.31341
    H9       Z    -0.22688  0.06667  0.48849
    H10      X    -0.05725 -0.06603 -0.02656
    H10      Y     0.10486  0.12211  0.04652
    H10      Z    -0.00817 -0.01090 -0.00339
    H11      X     0.13912  0.14933  0.06198
    H11      Y     0.25804  0.27705  0.11790
    H11      Z     0.42554  0.46040  0.19843
    H12      X     0.29769  0.32400  0.14044
    H12      Y     0.02147  0.02410  0.01101
    H12      Z    -0.00597 -0.00963 -0.00246
    H13      X     0.05758 -0.06613  0.02632
    H13      Y    -0.10565  0.12229 -0.04602
    H13      Z    -0.00818  0.01091 -0.00336
    H14      X    -0.29642  0.32454 -0.14019
    H14      Y    -0.02135  0.02414 -0.01100
    H14      Z    -0.00596  0.00964 -0.00244
    H15      X    -0.13903  0.14955 -0.06170
    H15      Y    -0.25783  0.27746 -0.11739
    H15      Z     0.42521 -0.46107  0.19756
  
  Number of imaginary frequencies:   0
   
  Writing vibrational animation data to NaOtBu_freq.vib
  Writing IR vibrational spectrum data to NaOtBu_freq_vib.spm
  rotational symmetry number:  1

  rotational temperatures (K):      0.220467      0.077904      0.077879
   
  The Quasi-Harmonic approximation will be applied to compute
  vibrational constributions to thermodynamic properties.
  Frequencies will be adjusted to a minimum value of  100.00 cm^-1.

  vibrational temperatures:
       mode:      1        2        3        4        5        6
  temp. (K):   143.88   143.88   352.97   416.37   440.79   441.37
   
       mode:      7        8        9       10       11       12
  temp. (K):   501.09   509.07   672.08   685.13   696.67  1084.59
   
       mode:     13       14       15       16       17       18
  temp. (K):  1266.31  1269.59  1360.52  1501.14  1501.80  1504.75
   
       mode:     19       20       21       22       23       24
  temp. (K):  1785.14  1785.58  1841.30  2007.55  2009.32  2047.25
   
       mode:     25       26       27       28       29       30
  temp. (K):  2155.83  2167.93  2168.48  2190.60  2191.13  2220.48
   
       mode:     31       32       33       34       35       36
  temp. (K):  4340.74  4341.16  4356.66  4444.79  4447.62  4463.18
   
       mode:     37       38       39
  temp. (K):  4467.69  4476.77  4480.96
   
   
  Thermodynamic properties calculated assuming an ideal gas

  In the table below, the units for temperature
  are kelvins, the units for U, H, and G are
  kcal/mol and the units for Cv and S are cal/(mol K)

  The zero point energy (ZPE):     78.378 kcal/mol
  is not included in U, H, or G in the table below
  
 
  =============================================================================
  Thermodynamic properties for P = 1.00E+00 atm, calculated at   1 temperatures


  T =   298.15 K, P = 1.00E+00 atm
   
                  U         Cv          S          H          G        ln(Q)
              =========  =========  =========  =========  =========  =========
  trans.          0.889      2.981     39.598      1.481    -10.325   17.42651
  rot.            0.889      2.981     27.676      0.889     -7.363   12.42720
  vib.            3.204     22.213     18.518      3.204     -2.318    3.91154
  elec.           0.000      0.000      0.000      0.000      0.000    0.00000
  ----------------------------------------------------------------------------
  total           4.981     28.175     85.792      5.574    -20.005   33.76525
   
   Total internal energy, Utot(SCFE + ZPE + U):    -395.153940 hartrees
   Total enthalpy, Htot (Utot + nRT), with n=1:    -395.152996 hartrees
    Total Gibbs free energy, Gtot (Htot - T*S):    -395.193759 hartrees
   
  end of program freq
   
 Time(freq)  user:        2.1  user+sys:        2.1  wallclock:        2.3
  
  start of program post
  
  Writing input files for PBF
  end of program post
   
 Time(post)  user:        2.1  user+sys:        2.1  wallclock:        2.3

 Total cpu seconds     user:     142.256   user+sys:     142.256
  
 Total elapsed time:    165 seconds

Job NaOtBu_freq completed on bp1-compute166.data.bp.acrc.priv at Thu Dec 15 17:50:04 2022
