Job O-tBu started on bp1-compute081 at Mon Jul 14 11:46:42 2025
jobid: bp1-compute081-0-6874e00b

  +--------------------------------------------------------------------+
  |  Jaguar version 12.5, release 138                                  |
  |                                                                    |
  |  Copyright Schrodinger, Inc.                                       |
  |  All Rights Reserved.                                              |
  |                                                                    |
  |  The following have contributed to Jaguar (listed alphabetically): |
  |  Ty Balduf, Mike Beachy, Chandler Bennett, Art Bochevarov,         |
  |  Dale Braden, Yixiang Cao, Alan Chien, Chris Cortis,               |
  |  Rich Friesner, Jim Furness, Bill Goddard, Hod Greeley,            |
  |  Tom Hughes, Leif Jacobson, Jean-Marc Langlois, Daniel Levine,     |
  |  Rob Murphy, Dean Philipp, Tom Pollard, Murco Ringnalda,           |
  |  Daniel Mainz, Pablo Videla, Mark Watson, Haoyu Yu.                |
  |                                                                    |
  |  Use of this program should be acknowledged in publications as:    |
  |                                                                    |
  |  Jaguar, version 12.5, Schrodinger, Inc., New York, NY, 2024.      |
  |                                                                    |
  |  A. D. Bochevarov, E. Harder, T. F. Hughes, J. R. Greenwood,       |
  |  D. A. Braden, D. M. Philipp, D. Rinaldo, M. D. Halls,             |
  |  J. Zhang, R. A. Friesner, "Jaguar: A High-Performance Quantum     |
  |  Chemistry Software Program with Strengths in Life and Materials   |
  |  Sciences", Int. J. Quantum Chem., 2013, 113(18), 2110-2142.       |
  +--------------------------------------------------------------------+
  
  start of program pre
  
  Job name: O-tBu
  Executables used: /software/local/apps/schrodinger2024-3/jaguar-v12.5/bin/Linux-x86_64
  Temporary files : /tmp/ar21627/O-tBu#bp1-compute081-0-6874e00b
  Basis file : using default basis file from /software/local/apps/schrodinger2024-3
  Maestro file (input):  O-tBu.mae
  Maestro file (output): O-tBu.01.mae
  
 Contents of input file: &gen and (if present) &atomic sections only
 ----------------Contents start----------------
&gen
dftname=b3pw91-d3
basis=6-31g*
numd=5
ip11=2
iaccg=3
isolv=2
igeopt=1
ifreq=1
molchg=-1
solvent=benzene
&
 -----------------Contents end-----------------
 
  PS calculation requested. Using PS version of 6-31g*
  basis set:               6-31g*                          
  net molecular charge:   -1
  multiplicity:            1
  
  Using up to   4 threads per process
  
  number of basis functions....           88
  
 Input geometry:
                                   angstroms
  atom               x                 y                 z
  O2           -0.9561497662      1.1519073799      2.8027698967 
  C104         -1.0950133290      2.0834000962      3.8365639143 
  C105         -1.0390706576      1.4473999322      5.2386597276 
  C106         -0.0563758428      3.2143353056      3.7531585395 
  C107         -2.4947886928      2.7090531958      3.6665638520 
  H108         -0.0211595999      1.1546406511      5.5028723049 
  H109         -1.4080743201      2.1445517920      6.0054644881 
  H110         -1.6631767033      0.5458453636      5.2539390014 
  H111         -2.5838972487      3.1463692295      2.6680343750 
  H112         -3.2756548007      1.9485526819      3.7732696207 
  H113         -2.6757386220      3.4989805094      4.4087006236 
  H114         -0.1942023285      3.9483718276      4.5600820773 
  H115          0.9505978157      2.7992541150      3.8323102018 
  H116         -0.1372600054      3.7397606458      2.7935300751 
   
  principal moments of inertia:
        amu*angstrom^2:               104.30183               104.37651               110.67080
                g*cm^2:          1.73197246E-38          1.73321246E-38          1.83773164E-38
   
  rotational constants:
               cm^(-1):      0.16162352      0.16150789      0.15232228
                   GHz:      4.84535119      4.84188465      4.56650721
   
  Molecular weight:      73.07 amu
   
  Stoichiometry: C4H9O
  Molecular Point Group: C1      
  Point Group used: C1
  
 
Number of optimization coordinates:    39
Number of independent coordinates:     39
Number of non-redundant coordinates:   36
Number of frozen coordinates:           0
Number of harmonic constraints:         0
 
Number of geometric degrees of freedom:    36
Maximum geometric degrees of freedom:      36
 " " " " " excluding dummy atoms:          36
 
 
  bond lengths (angstroms):
 
 O2      -C104    :   1.398461      C104    -C105    :   1.540616
 C104    -C106    :   1.537771      C104    -C107    :   1.542632
 C105    -H108    :   1.091631      C105    -H109    :   1.100079
 C105    -H110    :   1.096605      C106    -H114    :   1.099514
 C106    -H115    :   1.092041      C106    -H116    :   1.097042
 C107    -H111    :   1.093731      C107    -H112    :   1.095216
 C107    -H113    :   1.098861
 
  bond angles:
 
 C105    -C104    -O2      : 113.215510  C106    -C104    -O2      : 112.501150
 C106    -C104    -C105    : 109.174147  C107    -C104    -O2      : 106.187661
 C107    -C104    -C105    : 107.497991  C107    -C104    -C106    : 107.975944
 H108    -C105    -C104    : 111.398046  H109    -C105    -C104    : 111.135498
 H109    -C105    -H108    : 108.302190  H110    -C105    -C104    : 109.354304
 H110    -C105    -H108    : 107.868614  H110    -C105    -H109    : 108.686694
 H114    -C106    -C104    : 111.500500  H115    -C106    -C104    : 109.836394
 H115    -C106    -H114    : 108.430111  H116    -C106    -C104    : 110.480110
 H116    -C106    -H114    : 108.238755  H116    -C106    -H115    : 108.266306
 H111    -C107    -C104    : 109.676017  H112    -C107    -C104    : 110.768401
 H112    -C107    -H111    : 107.968989  H113    -C107    -C104    : 111.502776
 H113    -C107    -H111    : 108.405433  H113    -C107    -H112    : 108.418646
 
  torsional angles:
 
 O2      -C104    -C105    -H108    :  73.981458
 O2      -C104    -C105    -H109    :-165.148897
 O2      -C104    -C105    -H110    : -45.157838
 O2      -C104    -C106    -H114    : 178.756727
 O2      -C104    -C106    -H115    : -61.022828
 O2      -C104    -C106    -H116    :  58.345273
 O2      -C104    -C107    -H111    : -56.861157
 O2      -C104    -C107    -H112    :  62.217301
 O2      -C104    -C107    -H113    :-176.945620
 C105    -C104    -C106    -H114    : -54.675333
 C105    -C104    -C106    -H115    :  65.545113
 C105    -C104    -C106    -H116    :-175.086787
 C105    -C104    -C107    -H111    :-178.320723
 C105    -C104    -C107    -H112    : -59.242265
 C105    -C104    -C107    -H113    :  61.594814
 C106    -C104    -C105    -H108    : -52.177469
 C106    -C104    -C105    -H109    :  68.692177
 C106    -C104    -C105    -H110    :-171.316765
 C106    -C104    -C107    -H111    :  64.011984
 C106    -C104    -C107    -H112    :-176.909557
 C106    -C104    -C107    -H113    : -56.072478
 C107    -C104    -C105    -H108    :-169.063832
 C107    -C104    -C105    -H109    : -48.194187
 C107    -C104    -C105    -H110    :  71.796872
 C107    -C104    -C106    -H114    :  61.907530
 C107    -C104    -C106    -H115    :-177.872024
 C107    -C104    -C106    -H116    : -58.503924
 
  nuclear repulsion energy.......           188.530003961 hartrees
 
 Non-default options chosen:
   SCF calculation type: DFT(b3pw91-d3)              
   DFT=Becke_3_Parameter/HF+Slater+Becke88+PW91+PW-GGAIIC (B3PW91-D3)
   Geometry will be optimized in redundant internal coordinates
   Solvation energy will be computed using PBF
     -solute cavity energy will not be included
     -surface area terms will not be included
   Vibrational frequencies and related properties will be computed
      from analytic second derivatives
   IR intensities will be computed
   Thermochemical properties will be computed
   Maximum number of geometry steps: 100
   Scaling standard convergence criteria by a factor of   5.00
   Solvent: benzene                                                         
   Internal dielectric constant:    1.000
   Continuum dielectric constant:   2.283
   Solvent probe molecule radius:   2.600
  
 Non-default print settings:
     11=  2
  
 Temporary integer options set:
     73=  2
  
  atom       vdw   vdw2    cov     mass  grid  daf  charge   basis
  O2        1.702  1.600  0.730   15.995    Y    Y      Y    ps_6-31g*
  C104      1.949  1.900  0.770   12.000    Y    Y      Y    ps_6-31g*
  C105      1.949  1.900  0.770   12.000    Y    Y      Y    ps_6-31g*
  C106      1.949  1.900  0.770   12.000    Y    Y      Y    ps_6-31g*
  C107      1.949  1.900  0.770   12.000    Y    Y      Y    ps_6-31g*
  H108      1.597  1.150  0.320    1.008    Y    Y      Y    ps_6-31g*
  H109      1.597  1.150  0.320    1.008    Y    Y      Y    ps_6-31g*
  H110      1.597  1.150  0.320    1.008    Y    Y      Y    ps_6-31g*
  H111      1.597  1.150  0.320    1.008    Y    Y      Y    ps_6-31g*
  H112      1.597  1.150  0.320    1.008    Y    Y      Y    ps_6-31g*
  H113      1.597  1.150  0.320    1.008    Y    Y      Y    ps_6-31g*
  H114      1.597  1.150  0.320    1.008    Y    Y      Y    ps_6-31g*
  H115      1.597  1.150  0.320    1.008    Y    Y      Y    ps_6-31g*
  H116      1.597  1.150  0.320    1.008    Y    Y      Y    ps_6-31g*
  
  end of program pre
   
 Time(pre)  user:       2.686  user+sys:       2.686  wallclock:       0.856
  
  start of program onee
  
  smallest eigenvalue of S:    4.220E-03
  number of canonical orbitals.....           88
  end of program onee
   
 Time(onee)  user:       0.481  user+sys:       0.481  wallclock:       0.129
  
  start of program hfig
  
  initial wavefunction generated automatically from atomic wavefunctions
 
  Irreducible     Total no   No of occupied orbitals 
  representation  orbitals   Shell_1  Shell_2    ...
  No Symm           88         21
  ------------------------
  Orbital occupation/shell    1.000
 
  end of program hfig
   
 Time(hfig)  user:       1.002  user+sys:       1.002  wallclock:       0.335
  
  start of program probe
  
  end of program probe
   
 Time(probe)  user:       0.384  user+sys:       0.384  wallclock:       0.095
  
  start of program grid
  
   grid     grid set  grid #  grid sym
  ------    --------  ------  --------
  coarse        0        0        1
  medium        2        1        1
  fine          0        0        1
  ultrafine     4        2        1
  charge       -1        3        1
  gradient      4        2        1
  density       0        0        1
  DFT-fine    -11        4        1
  DFT-med.    -10        5        1
  DFT-grad    -12        6        1
  DFT-der2     -8        7        1
  DFT-cphf     -9        8        1
  LMP2-enrg     4        2        1
  LMP2-grad     2        1        1
  DFT-cphf2   -15        9        1
  PBF-dens      0        0        1
  plotting      0        0        1
  Rel-grad    -17        0        1
  
  number of gridpoints: 
     atom           O2        C104        C105        C106        C107        H108        H109
  grid # 1         121          97          77          77          77         110         108
  grid # 2         516         333         269         273         272         438         433
  grid # 3         294           6           6           6           6         324         281
  grid # 4        4304        4304        4304        4304        4304        4304        4304
  grid # 5        1192        1192        1192        1192        1192        1192        1192
  grid # 6        5226        5226        5226        5226        5226        5226        5226
  grid # 7       23504       12650       12650       12650       12650       13718       13718
  grid # 8         714         688         688         688         688         744         744
  grid # 9         360         358         358         358         358         382         382
   
  number of gridpoints: 
     atom         H110        H111        H112        H113        H114        H115        H116
  grid # 1         108         109         109         109         109         110         110
  grid # 2         436         438         439         431         434         438         437
  grid # 3         324         311         319         278         285         320         315
  grid # 4        4304        4304        4304        4304        4304        4304        4304
  grid # 5        1192        1192        1192        1192        1192        1192        1192
  grid # 6        5226        5226        5226        5226        5226        5226        5226
  grid # 7       13718       13718       13718       13718       13718       13718       13718
  grid # 8         744         744         744         744         744         744         744
  grid # 9         382         382         382         382         382         382         382
   
  number of gridpoints: 
     atom        total
  grid # 1        1431
  grid # 2        5587
  grid # 3        3075
  grid # 4       60256
  grid # 5       16688
  grid # 6       73164
  grid # 7      197566
  grid # 8       10162
  grid # 9        5230
   
  end of program grid
   
 Time(grid)  user:       2.800  user+sys:       2.800  wallclock:       0.749
  
  start of program rwr
  
  end of program rwr
   
 Time(rwr)  user:       2.788  user+sys:       2.788  wallclock:       0.749
  
  start of program scf
  
 number of electrons..........         42
 number of alpha electrons....         21
 number of beta electrons.....         21
 number of orbitals, total....         88
 number of doubly-occ'd orbs..         21
 number of open shell orbs....          0
 number of occupied orbitals..         21
 number of virtual orbitals...         67
 number of hamiltonians.......          1
 number of shells.............          1
 SCF type: DFT=Becke_3_Parameter/HF+Slater+Becke88+PW91+PW-GGAIIC (B3PW91-D3)
 Energy computed using pseudospectral method.
 Convergence Criterion:
    Energy (econv):       1.00E-05
    RMS density (dconv):  5.00E-06
  
       i  u  d  i  g                   
       t  p  i  c  r                                 RMS    maximum
       e  d  i  u  i                       energy  density   DIIS  
       r  t  s  t  d       total energy    change  change    error 
  
etot    1  N  N  5  M    -232.06401890158           7.5E-02  1.9E-01
etot    2  Y  Y  6  M    -230.16676843676 -1.9E+00  7.3E-02  3.6E-01
etot    3  Y  Y  6  M    -232.71854412966  2.6E+00  9.3E-03  8.6E-02
etot    4  N  Y  2  U    -232.90680595496  1.9E-01  2.9E-03  4.3E-02
etot    5  Y  Y  6  M    -232.93885480396  3.2E-02  1.2E-03  9.8E-03
etot    6  N  Y  2  U    -232.94197938190  3.1E-03  1.9E-04  2.2E-03
etot    7  Y  Y  6  M    -232.94211419882  1.3E-04  5.6E-05  9.3E-04
etot    8  Y  Y  6  M    -232.94213180608  1.8E-05  1.3E-05  2.0E-04
etot    9  N  Y  2  U    -232.94213899900  7.2E-06  4.8E-06  2.8E-05
etot   10  N  N  2  U    -232.94213902820  2.9E-08  0.0E+00  0.0E+00
 
  Computing the dispersion energy correction and its gradients...
  
  
 Energy components, in hartrees:
   (A)  Nuclear repulsion............     188.53000396066
   (E)  Total one-electron terms.....    -698.19943244852
   (F)    Electron-nuclear...........    -929.82435551076
   (H)    Kinetic....................     231.62492306224
   (I)  Total two-electron terms.....     276.72728945966
   (J)    Coulomb....................     310.61140514467
   (K)    Exchange+Correlation.......     -33.88411568501
   (L)  Electronic energy............    -421.47214298886  (E+I)
   (M)  -V/T.........................       2.00568684902  (-(A+F+I)/H)
   (N0) D3 correction................      -0.01087323292
   (N)  Total energy.................    -232.95301226111  (A+L+N0)
   (O)  Gas phase energy.............    -232.95301226111
  
 SCFE: SCF energy: DFT(b3pw91-d3)      -232.95301226111 hartrees   iterations:  10
  
 
 HOMO energy:     0.07171
 LUMO energy:     0.26594
 
  Orbital energies (hartrees): 
   -18.75793    -9.98249    -9.95634    -9.95628    -9.94971    -0.66164
    -0.53815    -0.49300    -0.48753    -0.31706    -0.24154    -0.23994
    -0.23381    -0.20060    -0.19444    -0.17376    -0.13163    -0.13034
    -0.06984     0.06774     0.07171     0.26594     0.31276     0.33474
     0.33636     0.34178     0.34459     0.37270     0.38366     0.40037
     0.40655
 
  end of program scf
   
 Time(scf)  user:       8.875  user+sys:       8.875  wallclock:       2.524
  
  start of program der1a
  
  end of program der1a
   
 Time(der1a)  user:       0.566  user+sys:       0.566  wallclock:       0.153
  
  start of program rwr
  
  end of program rwr
   
 Time(rwr)  user:       3.009  user+sys:       3.009  wallclock:       0.822
  
  start of program der1b
  
   
  forces (hartrees/bohr) : total     
   
 atom  label           x              y              z
 ---- --------   -------------  -------------  -------------
    1 O2          7.958665E-03   2.210071E-02   3.217531E-02
    2 C104       -9.637246E-03  -4.135493E-02  -5.610772E-02
    3 C105       -2.544563E-03   2.688540E-03   3.395540E-03
    4 C106       -1.386098E-03   3.907438E-03   4.453403E-03
    5 C107       -4.155500E-04   8.989959E-03   9.001337E-03
    6 H108        5.220831E-03  -2.211404E-03   3.653598E-04
    7 H109        7.335248E-04  -1.141472E-04   6.763150E-03
    8 H110       -7.142320E-04   5.286156E-04  -1.972125E-03
    9 H111        1.523173E-03  -5.188835E-04  -2.435053E-03
   10 H112        8.882601E-04  -2.820518E-03  -5.613541E-05
   11 H113       -7.723344E-03   7.049924E-03   3.589695E-03
   12 H114        3.054064E-03   5.926054E-03   2.653193E-03
   13 H115        3.699870E-03  -2.356382E-03  -6.002261E-04
   14 H116       -5.650119E-04  -1.649458E-03  -1.153421E-03
 -------------   -------------  -------------  -------------
     total        9.234322E-05   1.655154E-04   7.231164E-05
   
  end of program der1b
   
 Time(der1b)  user:       3.377  user+sys:       3.377  wallclock:       0.910
  
  start of program geopt
  
 ----------------------------------------------------------------------------
  Geometry optimization step  1
  Total energy:      -232.95301226111 hartrees
 ----------------------------------------------------------------------------
  
  gradient maximum:        3.7705E-02 .  (  2.2500E-03 )
  gradient rms:            1.0112E-02 .  (  1.5000E-03 )
  displacement maximum:    1.7908E-01 .  (  9.0000E-03 )
  displacement rms:        4.5313E-02 .  (  6.0000E-03 )
  
  predicted energy change:  -6.3050E-03
  step size:     0.28298
  trust radius:  0.30000
  
  molecular structure not yet converged...
  
  center of mass moved by:
     x:     1.8058E-02     y:     1.0230E-02     z:     2.0505E-02
  
  new geometry: 
                                   angstroms
  atom               x                 y                 z
  O2           -0.8853830248      1.1603409201      2.8503905591 
  C104         -1.1216884524      2.0750983879      3.8088275052 
  C105         -1.0421068414      1.4437403953      5.2294821227 
  C106         -0.0678993350      3.2145710089      3.7540312731 
  C107         -2.5377734555      2.7162291458      3.6516060310 
  H108         -0.0252633786      1.0766405732      5.4326097151 
  H109         -1.3129033952      2.1374156556      6.0484055471 
  H110         -1.7230388368      0.5846518874      5.2560846356 
  H111         -2.6066051478      3.1422943805      2.6435213852 
  H112         -3.2925322079      1.9232516574      3.7254058630 
  H113         -2.7964864268      3.5113076038      4.3852758505 
  H114         -0.1697240786      3.9766388050      4.5518917098 
  H115          0.9362759652      2.7747893964      3.8241721036 
  H116         -0.1386199488      3.7196616643      2.7822990510 
   
 
  bond lengths (angstroms):
 
 O2      -C104    :   1.345817      C104    -C105    :   1.556665
 C104    -C106    :   1.553020      C104    -C107    :   1.562390
 C105    -H108    :   1.099997      C105    -H109    :   1.106866
 C105    -H110    :   1.096544      C106    -H114    :   1.108015
 C106    -H115    :   1.098497      C106    -H116    :   1.097443
 C107    -H111    :   1.096587      C107    -H112    :   1.097233
 C107    -H113    :   1.112364
 
  bond angles:
 
 C105    -C104    -O2      : 111.425005  C106    -C104    -O2      : 110.759070
 C106    -C104    -C105    : 107.163179  C107    -C104    -O2      : 111.493613
 C107    -C104    -C105    : 107.734385  C107    -C104    -C106    : 108.081521
 H108    -C105    -C104    : 110.557098  H109    -C105    -C104    : 114.112326
 H109    -C105    -H108    : 107.378449  H110    -C105    -C104    : 107.947723
 H110    -C105    -H108    : 107.944639  H110    -C105    -H109    : 108.730518
 H114    -C106    -C104    : 114.637012  H115    -C106    -C104    : 108.922266
 H115    -C106    -H114    : 108.263040  H116    -C106    -C104    : 108.977853
 H116    -C106    -H114    : 108.368634  H116    -C106    -H115    : 107.439777
 H111    -C107    -C104    : 107.989081  H112    -C107    -C104    : 108.670661
 H112    -C107    -H111    : 107.424744  H113    -C107    -C104    : 115.959454
 H113    -C107    -H111    : 108.301433  H113    -C107    -H112    : 108.192930
 
  torsional angles:
 
 O2      -C104    -C105    -H108    :  63.720852
 O2      -C104    -C105    -H109    :-175.125119
 O2      -C104    -C105    -H110    : -54.141940
 O2      -C104    -C106    -H114    :-176.859968
 O2      -C104    -C106    -H115    : -55.414988
 O2      -C104    -C106    -H116    :  61.516623
 O2      -C104    -C107    -H111    : -56.167160
 O2      -C104    -C107    -H112    :  60.067962
 O2      -C104    -C107    -H113    :-177.855070
 C105    -C104    -C106    -H114    : -55.129858
 C105    -C104    -C106    -H115    :  66.315123
 C105    -C104    -C106    -H116    :-176.753266
 C105    -C104    -C107    -H111    :-178.721757
 C105    -C104    -C107    -H112    : -62.486635
 C105    -C104    -C107    -H113    :  59.590333
 C106    -C104    -C105    -H108    : -57.590444
 C106    -C104    -C105    -H109    :  63.563585
 C106    -C104    -C105    -H110    :-175.453236
 C106    -C104    -C107    -H111    :  65.790051
 C106    -C104    -C107    -H112    :-177.974827
 C106    -C104    -C107    -H113    : -55.897859
 C107    -C104    -C105    -H108    :-173.682341
 C107    -C104    -C105    -H109    : -52.528313
 C107    -C104    -C105    -H110    :  68.454867
 C107    -C104    -C106    -H114    :  60.731810
 C107    -C104    -C106    -H115    :-177.823210
 C107    -C104    -C106    -H116    : -60.891598
 
  nuclear repulsion energy.......           188.458029942 hartrees
 -------------------------------------------------
   end of geometry optimization iteration  1
 -------------------------------------------------
   
  end of program geopt
   
 Time(geopt)  user:       1.013  user+sys:       1.013  wallclock:       0.273
  
  start of program onee
  
  smallest eigenvalue of S:    4.261E-03
  number of canonical orbitals.....           88
  end of program onee
   
 Time(onee)  user:       0.353  user+sys:       0.353  wallclock:       0.084
  
  start of program probe
  
  end of program probe
   
 Time(probe)  user:       0.304  user+sys:       0.304  wallclock:       0.073
  
  start of program grid
  
  end of program grid
   
 Time(grid)  user:       2.751  user+sys:       2.751  wallclock:       0.743
  
  start of program rwr
  
  end of program rwr
   
 Time(rwr)  user:       2.824  user+sys:       2.824  wallclock:       0.764
  
  start of program scf
  
 Energy computed using pseudospectral method.
 Convergence Criterion:
    Energy (econv):       1.00E-05
    RMS density (dconv):  5.00E-06
  
       i  u  d  i  g                   
       t  p  i  c  r                                 RMS    maximum
       e  d  i  u  i                       energy  density   DIIS  
       r  t  s  t  d       total energy    change  change    error 
  
etot    1  N  N  2  U    -232.94144489159           1.7E-03  1.0E-02
etot    2  Y  Y  6  M    -232.94835418396  6.9E-03  1.0E-03  5.0E-03
etot    3  N  Y  2  U    -232.94800099667 -3.5E-04  6.6E-04  7.3E-03
etot    4  Y  Y  6  M    -232.94901321996  1.0E-03  5.9E-05  9.9E-04
etot    5  Y  Y  6  M    -232.94901940715  6.2E-06  1.5E-05  1.8E-04
etot    6  N  Y  2  U    -232.94894948609 -7.0E-05  8.2E-06  8.2E-05
etot    7  N  Y  2  U    -232.94894956929  8.3E-08  4.6E-06  3.0E-05
etot    8  N  N  2  U    -232.94894959551  2.6E-08  0.0E+00  0.0E+00
 
  Computing the dispersion energy correction and its gradients...
  
  
 Energy components, in hartrees:
   (A)  Nuclear repulsion............     188.45802994230
   (E)  Total one-electron terms.....    -698.01261742789
   (F)    Electron-nuclear...........    -929.60853466423
   (H)    Kinetic....................     231.59591723634
   (I)  Total two-electron terms.....     276.60563789008
   (J)    Coulomb....................     310.47757709402
   (K)    Exchange+Correlation.......     -33.87193920394
   (L)  Electronic energy............    -421.40697953782  (E+I)
   (M)  -V/T.........................       2.00584221162  (-(A+F+I)/H)
   (N0) D3 correction................      -0.01091285892
   (N)  Total energy.................    -232.95986245443  (A+L+N0)
   (O)  Gas phase energy.............    -232.95986245443
  
 SCFE: SCF energy: DFT(b3pw91-d3)      -232.95986245443 hartrees   iterations:   8
  
 
 HOMO energy:     0.05960
 LUMO energy:     0.26744
 
  Orbital energies (hartrees): 
   -18.76621    -9.98661    -9.95429    -9.95309    -9.95271    -0.68147
    -0.53713    -0.48717    -0.48643    -0.31253    -0.23831    -0.23774
    -0.22844    -0.19747    -0.19587    -0.17091    -0.12774    -0.12642
    -0.08594     0.05870     0.05960     0.26744     0.31478     0.33642
     0.33659     0.34029     0.34222     0.37524     0.37591     0.40174
     0.40469
 
  end of program scf
   
 Time(scf)  user:       8.472  user+sys:       8.472  wallclock:       2.385
  
  start of program der1a
  
  end of program der1a
   
 Time(der1a)  user:       0.437  user+sys:       0.437  wallclock:       0.115
  
  start of program rwr
  
  end of program rwr
   
 Time(rwr)  user:       2.982  user+sys:       2.982  wallclock:       0.820
  
  start of program der1b
  
   
  forces (hartrees/bohr) : total     
   
 atom  label           x              y              z
 ---- --------   -------------  -------------  -------------
    1 O2         -4.221462E-03   8.413017E-03   8.581267E-03
    2 C104        7.849674E-03  -1.840625E-02  -1.725757E-02
    3 C105       -2.058266E-03   3.646881E-03   6.159456E-03
    4 C106        2.071912E-04   7.047102E-03   3.935896E-03
    5 C107       -1.083804E-03   4.432049E-03   4.245971E-03
    6 H108       -3.056358E-04  -7.287471E-04  -2.696190E-03
    7 H109       -5.075891E-04  -7.818141E-04   1.579329E-03
    8 H110       -4.494624E-04  -1.130312E-03   4.414923E-04
    9 H111       -2.949063E-05   2.690565E-04  -1.257613E-03
   10 H112       -5.191499E-04  -1.107926E-03  -1.242825E-04
   11 H113        8.242795E-04  -2.094448E-03  -1.587131E-03
   12 H114        8.383713E-04   1.217529E-03  -6.855470E-04
   13 H115       -6.844361E-04  -1.146266E-03  -8.290932E-05
   14 H116        6.521749E-05   2.960161E-04  -1.131162E-03
 -------------   -------------  -------------  -------------
     total       -7.456224E-05  -7.411289E-05   1.210004E-04
   
  end of program der1b
   
 Time(der1b)  user:       3.427  user+sys:       3.427  wallclock:       0.928
  
  start of program geopt
  
 ----------------------------------------------------------------------------
  Geometry optimization step  2
  Total energy:      -232.95986245443 hartrees
 ----------------------------------------------------------------------------
  
  energy change:          -6.8502E-03 .  (  2.5000E-04 )
  gradient maximum:        1.2567E-02 .  (  2.2500E-03 )
  gradient rms:            3.0168E-03 .  (  1.5000E-03 )
  displacement maximum:    1.0901E-01 .  (  9.0000E-03 )
  displacement rms:        2.9566E-02 .  (  6.0000E-03 )
  
  predicted energy change:  -1.0516E-03
  step size:     0.18464
  trust radius:  0.30000
  
  molecular structure not yet converged...
  
  center of mass moved by:
     x:     1.0024E-03     y:     2.3917E-03     z:     4.5992E-04
  
  new geometry: 
                                   angstroms
  atom               x                 y                 z
  O2           -0.8846635721      1.1647079556      2.8548198922 
  C104         -1.1144482300      2.0619719237      3.7950871543 
  C105         -1.0467724460      1.4370698356      5.2343680640 
  C106         -0.0730164205      3.2363392285      3.7523375570 
  C107         -2.5355309510      2.7099285286      3.6564275167 
  H108         -0.0469758101      1.0038766303      5.3852271796 
  H109         -1.2485244322      2.1306670218      6.0761643295 
  H110         -1.7724526561      0.6133336139      5.2788457510 
  H111         -2.6048695428      3.1552576870      2.6537509083 
  H112         -3.2854266035      1.9074299976      3.7094008421 
  H113         -2.8000641365      3.4844091735      4.4042241161 
  H114         -0.2077112324      4.0418364562      4.5034330649 
  H115          0.9273212826      2.8011189134      3.8850962950 
  H116         -0.0980409501      3.6909637882      2.7514127646 
   
 
  bond lengths (angstroms):
 
 O2      -C104    :   1.319843      C104    -C105    :   1.570545
 C104    -C106    :   1.570206      C104    -C107    :   1.567977
 C105    -H108    :   1.100004      C105    -H109    :   1.109235
 C105    -H110    :   1.098695      C106    -H114    :   1.109555
 C106    -H115    :   1.098962      C106    -H116    :   1.099618
 C107    -H111    :   1.099312      C107    -H112    :   1.099615
 C107    -H113    :   1.108602
 
  bond angles:
 
 C105    -C104    -O2      : 112.016209  C106    -C104    -O2      : 111.936565
 C106    -C104    -C105    : 107.094818  C107    -C104    -O2      : 112.069053
 C107    -C104    -C105    : 106.530154  C107    -C104    -C106    : 106.836091
 H108    -C105    -C104    : 108.756074  H109    -C105    -C104    : 116.029621
 H109    -C105    -H108    : 107.907645  H110    -C105    -C104    : 107.875576
 H110    -C105    -H108    : 107.428541  H110    -C105    -H109    : 108.539161
 H114    -C106    -C104    : 116.359924  H115    -C106    -C104    : 107.712593
 H115    -C106    -H114    : 108.434920  H116    -C106    -C104    : 108.596509
 H116    -C106    -H114    : 108.256600  H116    -C106    -H115    : 107.122161
 H111    -C107    -C104    : 107.771904  H112    -C107    -C104    : 108.193547
 H112    -C107    -H111    : 107.251442  H113    -C107    -C104    : 116.443136
 H113    -C107    -H111    : 108.492968  H113    -C107    -H112    : 108.337931
 
  torsional angles:
 
 O2      -C104    -C105    -H108    :  59.253141
 O2      -C104    -C105    -H109    :-178.928910
 O2      -C104    -C105    -H110    : -56.970571
 O2      -C104    -C106    -H114    : 179.094252
 O2      -C104    -C106    -H115    : -58.984637
 O2      -C104    -C106    -H116    :  56.708388
 O2      -C104    -C107    -H111    : -57.197957
 O2      -C104    -C107    -H112    :  58.470219
 O2      -C104    -C107    -H113    :-179.298992
 C105    -C104    -C106    -H114    : -57.767079
 C105    -C104    -C106    -H115    :  64.154033
 C105    -C104    -C106    -H116    : 179.847058
 C105    -C104    -C107    -H111    : 179.963677
 C105    -C104    -C107    -H112    : -64.368147
 C105    -C104    -C107    -H113    :  57.862642
 C106    -C104    -C105    -H108    : -63.836252
 C106    -C104    -C105    -H109    :  57.981697
 C106    -C104    -C105    -H110    : 179.940035
 C106    -C104    -C107    -H111    :  65.748340
 C106    -C104    -C107    -H112    :-178.583484
 C106    -C104    -C107    -H113    : -56.352695
 C107    -C104    -C105    -H108    :-177.875363
 C107    -C104    -C105    -H109    : -56.057414
 C107    -C104    -C105    -H110    :  65.900925
 C107    -C104    -C106    -H114    :  56.065477
 C107    -C104    -C106    -H115    : 177.986588
 C107    -C104    -C106    -H116    : -66.320387
 
  nuclear repulsion energy.......           188.322819598 hartrees
 -------------------------------------------------
   end of geometry optimization iteration  2
 -------------------------------------------------
   
  end of program geopt
   
 Time(geopt)  user:       1.007  user+sys:       1.007  wallclock:       0.272
  
  start of program onee
  
  smallest eigenvalue of S:    4.327E-03
  number of canonical orbitals.....           88
  end of program onee
   
 Time(onee)  user:       0.352  user+sys:       0.352  wallclock:       0.086
  
  start of program probe
  
  end of program probe
   
 Time(probe)  user:       0.315  user+sys:       0.315  wallclock:       0.074
  
  start of program grid
  
  end of program grid
   
 Time(grid)  user:       2.760  user+sys:       2.760  wallclock:       0.755
  
  start of program rwr
  
  end of program rwr
   
 Time(rwr)  user:       2.766  user+sys:       2.766  wallclock:       0.749
  
  start of program scf
  
 Energy computed using pseudospectral method.
 Convergence Criterion:
    Energy (econv):       1.00E-05
    RMS density (dconv):  5.00E-06
  
       i  u  d  i  g                   
       t  p  i  c  r                                 RMS    maximum
       e  d  i  u  i                       energy  density   DIIS  
       r  t  s  t  d       total energy    change  change    error 
  
etot    1  N  N  2  U    -232.94708423909           8.9E-04  7.5E-03
etot    2  Y  Y  6  M    -232.94972681942  2.6E-03  6.4E-04  3.9E-03
etot    3  Y  Y  6  M    -232.94955068810 -1.8E-04  4.0E-04  5.0E-03
etot    4  N  Y  2  U    -232.94994980013  4.0E-04  2.0E-05  3.9E-04
etot    5  N  Y  2  U    -232.94995085533  1.1E-06  6.0E-06  4.6E-05
etot    6  N  Y  2  U    -232.94995089444  3.9E-08  1.8E-06  2.2E-05
etot    7  N  N  2  U    -232.94995090657  1.2E-08  0.0E+00  0.0E+00
 
  Computing the dispersion energy correction and its gradients...
  
  
 Energy components, in hartrees:
   (A)  Nuclear repulsion............     188.32281959797
   (E)  Total one-electron terms.....    -697.70876125487
   (F)    Electron-nuclear...........    -929.30457137114
   (H)    Kinetic....................     231.59581011627
   (I)  Total two-electron terms.....     276.43599075033
   (J)    Coulomb....................     310.30470095741
   (K)    Exchange+Correlation.......     -33.86871020708
   (L)  Electronic energy............    -421.27277050454  (E+I)
   (M)  -V/T.........................       2.00584700038  (-(A+F+I)/H)
   (N0) D3 correction................      -0.01093085137
   (N)  Total energy.................    -232.96088175794  (A+L+N0)
   (O)  Gas phase energy.............    -232.96088175794
  
 SCFE: SCF energy: DFT(b3pw91-d3)      -232.96088175794 hartrees   iterations:   7
  
 
 HOMO energy:     0.05359
 LUMO energy:     0.26801
 
  Orbital energies (hartrees): 
   -18.77140    -9.98920    -9.95256    -9.95247    -9.95204    -0.69284
    -0.53694    -0.48503    -0.48458    -0.30997    -0.23687    -0.23602
    -0.22718    -0.19678    -0.19646    -0.16913    -0.12507    -0.12436
    -0.09495     0.05348     0.05359     0.26801     0.31540     0.33666
     0.33726     0.34070     0.34125     0.37562     0.37652     0.39980
     0.40570
 
  end of program scf
   
 Time(scf)  user:       7.892  user+sys:       7.892  wallclock:       2.204
  
  start of program der1a
  
  end of program der1a
   
 Time(der1a)  user:       0.452  user+sys:       0.452  wallclock:       0.116
  
  start of program rwr
  
  end of program rwr
   
 Time(rwr)  user:       3.016  user+sys:       3.016  wallclock:       0.836
  
  start of program der1b
  
   
  forces (hartrees/bohr) : total     
   
 atom  label           x              y              z
 ---- --------   -------------  -------------  -------------
    1 O2          3.495272E-04  -1.545997E-03  -1.418807E-03
    2 C104        2.431980E-04  -2.958231E-04  -1.655251E-04
    3 C105        8.540561E-04   1.686027E-03   3.149616E-03
    4 C106        1.255570E-03   2.048591E-03   1.959169E-03
    5 C107       -2.452658E-03   1.685613E-03  -1.606470E-04
    6 H108       -2.572521E-04  -3.399639E-04  -7.404951E-04
    7 H109       -2.144606E-04  -5.789014E-04  -1.461773E-03
    8 H110       -4.536515E-05  -2.902962E-04   2.984486E-04
    9 H111       -5.049267E-04   2.109971E-04   6.014154E-05
   10 H112       -1.260134E-04   1.339372E-04  -1.765360E-04
   11 H113        1.007644E-03  -9.212172E-04  -5.157176E-04
   12 H114       -1.697450E-04  -1.705633E-03  -6.703646E-04
   13 H115        6.722673E-04   4.582142E-04  -1.580149E-07
   14 H116       -6.643613E-04  -5.006040E-04   6.159220E-05
 -------------   -------------  -------------  -------------
     total       -5.251914E-05   4.494426E-05   2.189441E-04
   
  end of program der1b
   
 Time(der1b)  user:       3.299  user+sys:       3.299  wallclock:       0.887
  
  start of program geopt
  
 ----------------------------------------------------------------------------
  Geometry optimization step  3
  Total energy:      -232.96088175794 hartrees
 ----------------------------------------------------------------------------
  
  energy change:          -1.0193E-03 .  (  2.5000E-04 )
  gradient maximum:        2.3880E-03 .  (  2.2500E-03 )
  gradient rms:            1.0191E-03 *  (  1.5000E-03 )
  displacement maximum:    3.7500E-02 .  (  9.0000E-03 )
  displacement rms:        1.1591E-02 .  (  6.0000E-03 )
  
  predicted energy change:  -1.1543E-04
  step size:     0.07238
  trust radius:  0.30000
  
  molecular structure not yet converged...
  
  center of mass moved by:
     x:     4.1824E-03     y:    -7.2134E-03     z:    -5.3484E-04
  
  new geometry: 
                                   angstroms
  atom               x                 y                 z
  O2           -0.8790573149      1.1554806741      2.8559254005 
  C104         -1.1135676009      2.0573975920      3.7915652445 
  C105         -1.0479501768      1.4467443182      5.2406186110 
  C106         -0.0744926440      3.2389317692      3.7572990763 
  C107         -2.5385604411      2.7099170734      3.6468668411 
  H108         -0.0557602225      0.9942323172      5.3819809954 
  H109         -1.2308708210      2.1530950007      6.0732233923 
  H110         -1.7877862530      0.6360105191      5.3020045130 
  H111         -2.6051710639      3.1684008961      2.6495859208 
  H112         -3.2913309864      1.9091745101      3.6876011618 
  H113         -2.7997077950      3.4740842046      4.4028218286 
  H114         -0.2034372449      4.0227425191      4.5282217512 
  H115          0.9337654782      2.8121967020      3.8596149948 
  H116         -0.1282342434      3.7139411012      2.7672274265 
   
 
  bond lengths (angstroms):
 
 O2      -C104    :   1.320557      C104    -C105    :   1.573836
 C104    -C106    :   1.573809      C104    -C107    :   1.573952
 C105    -H108    :   1.099632      C105    -H109    :   1.107078
 C105    -H110    :   1.099279      C106    -H114    :   1.106936
 C106    -H115    :   1.099616      C106    -H116    :   1.099438
 C107    -H111    :   1.099642      C107    -H112    :   1.099778
 C107    -H113    :   1.106172
 
  bond angles:
 
 C105    -C104    -O2      : 112.330000  C106    -C104    -O2      : 112.338316
 C106    -C104    -C105    : 106.487879  C107    -C104    -O2      : 112.258629
 C107    -C104    -C105    : 106.454101  C107    -C104    -C106    : 106.529142
 H108    -C105    -C104    : 108.399982  H109    -C105    -C104    : 115.976246
 H109    -C105    -H108    : 108.358375  H110    -C105    -C104    : 108.029841
 H110    -C105    -H108    : 107.252637  H110    -C105    -H109    : 108.503223
 H114    -C106    -C104    : 116.073594  H115    -C106    -C104    : 108.179976
 H115    -C106    -H114    : 108.469551  H116    -C106    -C104    : 108.161294
 H116    -C106    -H114    : 108.393761  H116    -C106    -H115    : 107.234209
 H111    -C107    -C104    : 108.123698  H112    -C107    -C104    : 108.327134
 H112    -C107    -H111    : 107.199520  H113    -C107    -C104    : 115.932294
 H113    -C107    -H111    : 108.508867  H113    -C107    -H112    : 108.425955
 
  torsional angles:
 
 O2      -C104    -C105    -H108    :  57.613394
 O2      -C104    -C105    -H109    : 179.707167
 O2      -C104    -C105    -H110    : -58.298206
 O2      -C104    -C106    -H114    :-178.985786
 O2      -C104    -C106    -H115    : -56.850694
 O2      -C104    -C106    -H116    :  58.993182
 O2      -C104    -C107    -H111    : -58.093952
 O2      -C104    -C107    -H112    :  57.766477
 O2      -C104    -C107    -H113    : 179.861295
 C105    -C104    -C106    -H114    : -55.618483
 C105    -C104    -C106    -H115    :  66.516609
 C105    -C104    -C106    -H116    :-177.639515
 C105    -C104    -C107    -H111    : 178.611583
 C105    -C104    -C107    -H112    : -65.527988
 C105    -C104    -C107    -H113    :  56.566830
 C106    -C104    -C105    -H108    : -65.759097
 C106    -C104    -C105    -H109    :  56.334677
 C106    -C104    -C105    -H110    : 178.329304
 C106    -C104    -C107    -H111    :  65.262253
 C106    -C104    -C107    -H112    :-178.877318
 C106    -C104    -C107    -H113    : -56.782500
 C107    -C104    -C105    -H108    :-179.136737
 C107    -C104    -C105    -H109    : -57.042963
 C107    -C104    -C105    -H110    :  64.951664
 C107    -C104    -C106    -H114    :  57.707699
 C107    -C104    -C106    -H115    : 179.842792
 C107    -C104    -C106    -H116    : -64.313332
 
  nuclear repulsion energy.......           188.057098286 hartrees
 -------------------------------------------------
   end of geometry optimization iteration  3
 -------------------------------------------------
   
  end of program geopt
   
 Time(geopt)  user:       1.024  user+sys:       1.024  wallclock:       0.273
  
  start of program onee
  
  smallest eigenvalue of S:    4.393E-03
  number of canonical orbitals.....           88
  end of program onee
   
 Time(onee)  user:       0.359  user+sys:       0.359  wallclock:       0.089
  
  start of program probe
  
  end of program probe
   
 Time(probe)  user:       0.374  user+sys:       0.374  wallclock:       0.089
  
  start of program grid
  
  end of program grid
   
 Time(grid)  user:       2.766  user+sys:       2.766  wallclock:       0.748
  
  start of program rwr
  
  end of program rwr
   
 Time(rwr)  user:       2.773  user+sys:       2.773  wallclock:       0.746
  
  start of program scf
  
 Energy computed using pseudospectral method.
 Convergence Criterion:
    Energy (econv):       1.00E-05
    RMS density (dconv):  5.00E-06
  
       i  u  d  i  g                   
       t  p  i  c  r                                 RMS    maximum
       e  d  i  u  i                       energy  density   DIIS  
       r  t  s  t  d       total energy    change  change    error 
  
etot    1  N  N  2  U    -232.94956302276           3.1E-04  2.6E-03
etot    2  Y  Y  6  M    -232.94998249725  4.2E-04  1.2E-04  6.1E-04
etot    3  Y  Y  6  M    -232.94996256362 -2.0E-05  8.1E-05  1.1E-03
etot    4  Y  Y  6  M    -232.94999159191  2.9E-05  1.1E-05  8.3E-05
etot    5  N  Y  2  U    -232.94999392669  2.3E-06  3.1E-06  2.5E-05
etot    6  N  N  2  U    -232.94999394699  2.0E-08  0.0E+00  0.0E+00
 
  Computing the dispersion energy correction and its gradients...
  
  
 Energy components, in hartrees:
   (A)  Nuclear repulsion............     188.05709828648
   (E)  Total one-electron terms.....    -697.17701053144
   (F)    Electron-nuclear...........    -928.75989206732
   (H)    Kinetic....................     231.58288153588
   (I)  Total two-electron terms.....     276.16991829797
   (J)    Coulomb....................     310.03553159686
   (K)    Exchange+Correlation.......     -33.86561329889
   (L)  Electronic energy............    -421.00709223348  (E+I)
   (M)  -V/T.........................       2.00590333967  (-(A+F+I)/H)
   (N0) D3 correction................      -0.01093524947
   (N)  Total energy.................    -232.96092919647  (A+L+N0)
   (O)  Gas phase energy.............    -232.96092919647
  
 SCFE: SCF energy: DFT(b3pw91-d3)      -232.96092919647 hartrees   iterations:   6
  
 
 HOMO energy:     0.05330
 LUMO energy:     0.26774
 
  Orbital energies (hartrees): 
   -18.77201    -9.99018    -9.95241    -9.95237    -9.95229    -0.69195
    -0.53723    -0.48466    -0.48458    -0.30968    -0.23594    -0.23555
    -0.22806    -0.19722    -0.19676    -0.16924    -0.12452    -0.12425
    -0.09541     0.05322     0.05330     0.26774     0.31514     0.33658
     0.33713     0.34100     0.34118     0.37658     0.37684     0.39875
     0.40499
 
  end of program scf
   
 Time(scf)  user:       6.111  user+sys:       6.111  wallclock:       1.741
  
  start of program der1a
  
  end of program der1a
   
 Time(der1a)  user:       0.462  user+sys:       0.462  wallclock:       0.118
  
  start of program rwr
  
  end of program rwr
   
 Time(rwr)  user:       2.983  user+sys:       2.983  wallclock:       0.813
  
  start of program der1b
  
   
  forces (hartrees/bohr) : total     
   
 atom  label           x              y              z
 ---- --------   -------------  -------------  -------------
    1 O2         -7.296786E-05   5.080224E-04   3.058928E-04
    2 C104        7.452934E-05  -2.511597E-04   2.257314E-04
    3 C105       -6.634792E-05  -1.353239E-04   4.750285E-04
    4 C106        2.820514E-04   3.626222E-04  -2.644675E-04
    5 C107       -1.416931E-04   5.380259E-05  -3.234586E-04
    6 H108       -6.047162E-05   8.455272E-05  -2.496285E-04
    7 H109       -1.476893E-04  -6.372636E-05  -6.999361E-04
    8 H110        9.850018E-06  -2.212998E-04   3.469494E-04
    9 H111       -1.332045E-04   6.992834E-05   1.257161E-04
   10 H112        2.759477E-04   5.483086E-05   5.407815E-05
   11 H113        3.216016E-04   7.673516E-05   1.095622E-04
   12 H114       -4.085158E-04  -5.211873E-04  -1.411735E-04
   13 H115       -1.698110E-04   1.823768E-05   1.096546E-04
   14 H116        2.672791E-04   1.243348E-04  -8.782425E-05
 -------------   -------------  -------------  -------------
     total        3.055798E-05   1.603698E-04  -1.387524E-05
   
  end of program der1b
   
 Time(der1b)  user:       3.298  user+sys:       3.298  wallclock:       0.895
  
  start of program geopt
  
 ----------------------------------------------------------------------------
  Geometry optimization step  4
  Total energy:      -232.96092919647 hartrees
 ----------------------------------------------------------------------------
  
  energy change:          -4.7439E-05 *  (  2.5000E-04 )
  gradient maximum:        1.1106E-03 *  (  2.2500E-03 )
  gradient rms:            4.1199E-04 *  (  1.5000E-03 )
  displacement maximum:    1.8986E-02 .  (  9.0000E-03 )
  displacement rms:        4.4998E-03 *  (  6.0000E-03 )
  
  predicted energy change:  -2.3331E-05
  step size:     0.02810
  trust radius:  0.30000
  
  molecular structure not yet converged...
  
  center of mass moved by:
     x:    -1.3644E-03     y:    -7.5531E-04     z:    -3.4853E-03
  
  new geometry: 
                                   angstroms
  atom               x                 y                 z
  O2           -0.8807274639      1.1559857728      2.8526747507 
  C104         -1.1141729199      2.0559086880      3.7899399822 
  C105         -1.0463662706      1.4447577157      5.2394477570 
  C106         -0.0744049247      3.2375286559      3.7588857334 
  C107         -2.5382764418      2.7135939931      3.6501409954 
  H108         -0.0497322042      1.0023211277      5.3802448483 
  H109         -1.2371401082      2.1520611970      6.0678330284 
  H110         -1.7780613643      0.6264464029      5.3039546804 
  H111         -2.6118618154      3.1701052725      2.6525319796 
  H112         -3.2928918312      1.9155143690      3.6998479728 
  H113         -2.7883864848      3.4805825772      4.4066658060 
  H114         -0.2202998302      4.0249431833      4.5214585168 
  H115          0.9327387500      2.8139702612      3.8827317717 
  H116         -0.1124696470      3.7042255339      2.7640195801 
   
 
  bond lengths (angstroms):
 
 O2      -C104    :   1.320161      C104    -C105    :   1.574540
 C104    -C106    :   1.574264      C104    -C107    :   1.574854
 C105    -H108    :   1.099479      C105    -H109    :   1.105846
 C105    -H110    :   1.099624      C106    -H114    :   1.105814
 C106    -H115    :   1.099581      C106    -H116    :   1.099552
 C107    -H111    :   1.099564      C107    -H112    :   1.099475
 C107    -H113    :   1.105964
 
  bond angles:
 
 C105    -C104    -O2      : 112.419232  C106    -C104    -O2      : 112.386885
 C106    -C104    -C105    : 106.323075  C107    -C104    -O2      : 112.430397
 C107    -C104    -C105    : 106.424924  C107    -C104    -C106    : 106.382433
 H108    -C105    -C104    : 108.247201  H109    -C105    -C104    : 115.716778
 H109    -C105    -H108    : 108.531721  H110    -C105    -C104    : 108.312348
 H110    -C105    -H108    : 107.228983  H110    -C105    -H109    : 108.496153
 H114    -C106    -C104    : 115.704177  H115    -C106    -C104    : 108.276790
 H115    -C106    -H114    : 108.509479  H116    -C106    -C104    : 108.274154
 H116    -C106    -H114    : 108.490559  H116    -C106    -H115    : 107.284139
 H111    -C107    -C104    : 108.326934  H112    -C107    -C104    : 108.269826
 H112    -C107    -H111    : 107.244529  H113    -C107    -C104    : 115.683229
 H113    -C107    -H111    : 108.515169  H113    -C107    -H112    : 108.497035
 
  torsional angles:
 
 O2      -C104    -C105    -H108    :  58.163934
 O2      -C104    -C105    -H109    :-179.814304
 O2      -C104    -C105    -H110    : -57.788574
 O2      -C104    -C106    -H114    : 179.897864
 O2      -C104    -C106    -H115    : -58.095233
 O2      -C104    -C106    -H116    :  57.917728
 O2      -C104    -C107    -H111    : -57.669923
 O2      -C104    -C107    -H112    :  58.320579
 O2      -C104    -C107    -H113    :-179.708617
 C105    -C104    -C106    -H114    : -56.706322
 C105    -C104    -C106    -H115    :  65.300580
 C105    -C104    -C106    -H116    :-178.686458
 C105    -C104    -C107    -H111    : 178.836995
 C105    -C104    -C107    -H112    : -65.172503
 C105    -C104    -C107    -H113    :  56.798301
 C106    -C104    -C105    -H108    : -65.211646
 C106    -C104    -C105    -H109    :  56.810116
 C106    -C104    -C105    -H110    : 178.835846
 C106    -C104    -C107    -H111    :  65.753444
 C106    -C104    -C107    -H112    :-178.256054
 C106    -C104    -C107    -H113    : -56.285250
 C107    -C104    -C105    -H108    :-178.336022
 C107    -C104    -C105    -H109    : -56.314260
 C107    -C104    -C105    -H110    :  65.711470
 C107    -C104    -C106    -H114    :  56.447325
 C107    -C104    -C106    -H115    : 178.454228
 C107    -C104    -C106    -H116    : -65.532811
 
  nuclear repulsion energy.......           188.046801046 hartrees
 -------------------------------------------------
   end of geometry optimization iteration  4
 -------------------------------------------------
   
  end of program geopt
   
 Time(geopt)  user:       1.022  user+sys:       1.022  wallclock:       0.270
  
  start of program onee
  
  smallest eigenvalue of S:    4.405E-03
  number of canonical orbitals.....           88
  end of program onee
   
 Time(onee)  user:       0.406  user+sys:       0.406  wallclock:       0.100
  
  start of program probe
  
  end of program probe
   
 Time(probe)  user:       0.336  user+sys:       0.336  wallclock:       0.077
  
  start of program grid
  
  end of program grid
   
 Time(grid)  user:       2.721  user+sys:       2.721  wallclock:       0.739
  
  start of program rwr
  
  end of program rwr
   
 Time(rwr)  user:       2.762  user+sys:       2.762  wallclock:       0.750
  
  start of program scf
  
 Energy computed using pseudospectral method.
 Convergence Criterion:
    Energy (econv):       1.00E-05
    RMS density (dconv):  5.00E-06
  
       i  u  d  i  g                   
       t  p  i  c  r                                 RMS    maximum
       e  d  i  u  i                       energy  density   DIIS  
       r  t  s  t  d       total energy    change  change    error 
  
etot    1  N  N  2  U    -232.94991498523           1.6E-04  1.4E-03
etot    2  Y  Y  6  M    -232.95003006062  1.2E-04  2.8E-05  2.0E-04
etot    3  N  Y  2  U    -232.95003619148  6.1E-06  1.3E-05  1.9E-04
etot    4  N  Y  2  U    -232.95003689471  7.0E-07  5.2E-06  4.6E-05
etot    5  N  Y  2  U    -232.95003694106  4.6E-08  1.4E-06  1.2E-05
etot    6  N  N  2  U    -232.95003694303  2.0E-09  0.0E+00  0.0E+00
 
  Computing the dispersion energy correction and its gradients...
  
  
 Energy components, in hartrees:
   (A)  Nuclear repulsion............     188.04680104603
   (E)  Total one-electron terms.....    -697.15651082000
   (F)    Electron-nuclear...........    -928.74102251679
   (H)    Kinetic....................     231.58451169679
   (I)  Total two-electron terms.....     276.15967283094
   (J)    Coulomb....................     310.02589210668
   (K)    Exchange+Correlation.......     -33.86621927574
   (L)  Electronic energy............    -420.99683798906  (E+I)
   (M)  -V/T.........................       2.00589644461  (-(A+F+I)/H)
   (N0) D3 correction................      -0.01094147401
   (N)  Total energy.................    -232.96097841705  (A+L+N0)
   (O)  Gas phase energy.............    -232.96097841705
  
 SCFE: SCF energy: DFT(b3pw91-d3)      -232.96097841705 hartrees   iterations:   6
  
 
 HOMO energy:     0.05342
 LUMO energy:     0.26752
 
  Orbital energies (hartrees): 
   -18.77189    -9.99017    -9.95234    -9.95231    -9.95223    -0.69183
    -0.53752    -0.48462    -0.48452    -0.30954    -0.23564    -0.23547
    -0.22853    -0.19712    -0.19699    -0.16933    -0.12455    -0.12443
    -0.09538     0.05337     0.05342     0.26752     0.31494     0.33674
     0.33689     0.34113     0.34128     0.37712     0.37728     0.39862
     0.40482
 
  end of program scf
   
 Time(scf)  user:       7.607  user+sys:       7.607  wallclock:       2.120
  
  start of program der1a
  
  end of program der1a
   
 Time(der1a)  user:       0.467  user+sys:       0.467  wallclock:       0.121
  
  start of program rwr
  
  end of program rwr
   
 Time(rwr)  user:       3.013  user+sys:       3.013  wallclock:       0.823
  
  start of program der1b
  
   
  forces (hartrees/bohr) : total     
   
 atom  label           x              y              z
 ---- --------   -------------  -------------  -------------
    1 O2         -1.875996E-04   3.269796E-04   3.851718E-04
    2 C104        5.312232E-05  -2.492036E-05  -1.987128E-04
    3 C105       -1.033197E-04  -3.076822E-04  -3.091107E-04
    4 C106        9.902145E-05  -1.250942E-04  -2.889370E-04
    5 C107        1.081451E-04  -3.430874E-04  -7.444148E-05
    6 H108        1.035159E-05   3.476909E-05   8.342056E-05
    7 H109        1.764534E-05   1.782136E-04   9.487882E-05
    8 H110       -4.555113E-06   1.216097E-04  -3.270553E-05
    9 H111        1.159296E-04   5.903505E-06   8.830492E-05
   10 H112       -6.068302E-05   1.465885E-05   6.381361E-06
   11 H113        1.062181E-05   5.198290E-05   1.105274E-04
   12 H114       -5.701601E-05   1.107796E-04   2.005173E-04
   13 H115       -4.579062E-05   6.828386E-05  -2.810647E-05
   14 H116        2.352581E-05  -3.602652E-06   5.584065E-05
 -------------   -------------  -------------  -------------
     total       -2.060105E-05   1.087939E-04   9.302875E-05
   
  end of program der1b
   
 Time(der1b)  user:       3.272  user+sys:       3.272  wallclock:       0.888
  
  start of program geopt
  
 ----------------------------------------------------------------------------
  Geometry optimization step  5
  Total energy:      -232.96097841705 hartrees
 ----------------------------------------------------------------------------
  
  energy change:          -4.9221E-05 *  (  2.5000E-04 )
  gradient maximum:        5.1925E-04 *  (  2.2500E-03 )
  gradient rms:            1.5894E-04 #  (  1.5000E-03 )
  displacement maximum:    6.2719E-03 *  (  9.0000E-03 )
  displacement rms:        1.4065E-03 *  (  6.0000E-03 )
  
  predicted energy change:  -2.2701E-06
  step size:     0.00878
  trust radius:  0.30000
  
  ********************************************************
  **           Geometry optimization complete           **
  ********************************************************
  
  Checking the geometry optimization convergence pattern ...
  
  best                    worst
  ==0=====1=====2=====3=====4==
    ^                          
  
  Convergence category 0: monotonic convergence.
  
  center of mass moved by:
     x:     0.0000E+00     y:     0.0000E+00     z:     0.0000E+00
  
  final geometry: 
                                   angstroms
  atom               x                 y                 z
  O2           -0.8807274639      1.1559857728      2.8526747507 
  C104         -1.1141729199      2.0559086880      3.7899399822 
  C105         -1.0463662706      1.4447577157      5.2394477570 
  C106         -0.0744049247      3.2375286559      3.7588857334 
  C107         -2.5382764418      2.7135939931      3.6501409954 
  H108         -0.0497322042      1.0023211277      5.3802448483 
  H109         -1.2371401082      2.1520611970      6.0678330284 
  H110         -1.7780613643      0.6264464029      5.3039546804 
  H111         -2.6118618154      3.1701052725      2.6525319796 
  H112         -3.2928918312      1.9155143690      3.6998479728 
  H113         -2.7883864848      3.4805825772      4.4066658060 
  H114         -0.2202998302      4.0249431833      4.5214585168 
  H115          0.9327387500      2.8139702612      3.8827317717 
  H116         -0.1124696470      3.7042255339      2.7640195801 
   
  bond lengths (angstroms):
 O2      -C104    :   1.320161
 C104    -C105    :   1.574540
 C104    -C106    :   1.574264
 C104    -C107    :   1.574854
 C105    -H108    :   1.099479
 C105    -H109    :   1.105846
 C105    -H110    :   1.099624
 C106    -H114    :   1.105814
 C106    -H115    :   1.099581
 C106    -H116    :   1.099552
 C107    -H111    :   1.099564
 C107    -H112    :   1.099475
 C107    -H113    :   1.105964
  
  bond angles:
 C105    -C104    -O2      : 112.419232
 C106    -C104    -O2      : 112.386885
 C106    -C104    -C105    : 106.323075
 C107    -C104    -O2      : 112.430397
 C107    -C104    -C105    : 106.424924
 C107    -C104    -C106    : 106.382433
 H108    -C105    -C104    : 108.247201
 H109    -C105    -C104    : 115.716778
 H109    -C105    -H108    : 108.531721
 H110    -C105    -C104    : 108.312348
 H110    -C105    -H108    : 107.228983
 H110    -C105    -H109    : 108.496153
 H114    -C106    -C104    : 115.704177
 H115    -C106    -C104    : 108.276790
 H115    -C106    -H114    : 108.509479
 H116    -C106    -C104    : 108.274154
 H116    -C106    -H114    : 108.490559
 H116    -C106    -H115    : 107.284139
 H111    -C107    -C104    : 108.326934
 H112    -C107    -C104    : 108.269826
 H112    -C107    -H111    : 107.244529
 H113    -C107    -C104    : 115.683229
 H113    -C107    -H111    : 108.515169
 H113    -C107    -H112    : 108.497035
  
  torsional angles:
 O2      -C104    -C105    -H108    :  58.163934
 O2      -C104    -C105    -H109    :-179.814304
 O2      -C104    -C105    -H110    : -57.788574
 O2      -C104    -C106    -H114    : 179.897864
 O2      -C104    -C106    -H115    : -58.095233
 O2      -C104    -C106    -H116    :  57.917728
 O2      -C104    -C107    -H111    : -57.669923
 O2      -C104    -C107    -H112    :  58.320579
 O2      -C104    -C107    -H113    :-179.708617
 C105    -C104    -C106    -H114    : -56.706322
 C105    -C104    -C106    -H115    :  65.300580
 C105    -C104    -C106    -H116    :-178.686458
 C105    -C104    -C107    -H111    : 178.836995
 C105    -C104    -C107    -H112    : -65.172503
 C105    -C104    -C107    -H113    :  56.798301
 C106    -C104    -C105    -H108    : -65.211646
 C106    -C104    -C105    -H109    :  56.810116
 C106    -C104    -C105    -H110    : 178.835846
 C106    -C104    -C107    -H111    :  65.753444
 C106    -C104    -C107    -H112    :-178.256054
 C106    -C104    -C107    -H113    : -56.285250
 C107    -C104    -C105    -H108    :-178.336022
 C107    -C104    -C105    -H109    : -56.314260
 C107    -C104    -C105    -H110    :  65.711470
 C107    -C104    -C106    -H114    :  56.447325
 C107    -C104    -C106    -H115    : 178.454228
 C107    -C104    -C106    -H116    : -65.532811
  
  
  principal moments of inertia:
        amu*angstrom^2:               105.12516               105.22688               111.83271
                g*cm^2:          1.74564420E-38          1.74733326E-38          1.85702556E-38
   
  rotational constants:
               cm^(-1):      0.16035770      0.16020269      0.15073970
                   GHz:      4.80740281      4.80275572      4.51906262
   
 
  bond lengths (angstroms):
 
 O2      -C104    :   1.320161      C104    -C105    :   1.574540
 C104    -C106    :   1.574264      C104    -C107    :   1.574854
 C105    -H108    :   1.099479      C105    -H109    :   1.105846
 C105    -H110    :   1.099624      C106    -H114    :   1.105814
 C106    -H115    :   1.099581      C106    -H116    :   1.099552
 C107    -H111    :   1.099564      C107    -H112    :   1.099475
 C107    -H113    :   1.105964
 
  bond angles:
 
 C105    -C104    -O2      : 112.419232  C106    -C104    -O2      : 112.386885
 C106    -C104    -C105    : 106.323075  C107    -C104    -O2      : 112.430397
 C107    -C104    -C105    : 106.424924  C107    -C104    -C106    : 106.382433
 H108    -C105    -C104    : 108.247201  H109    -C105    -C104    : 115.716778
 H109    -C105    -H108    : 108.531721  H110    -C105    -C104    : 108.312348
 H110    -C105    -H108    : 107.228983  H110    -C105    -H109    : 108.496153
 H114    -C106    -C104    : 115.704177  H115    -C106    -C104    : 108.276790
 H115    -C106    -H114    : 108.509479  H116    -C106    -C104    : 108.274154
 H116    -C106    -H114    : 108.490559  H116    -C106    -H115    : 107.284139
 H111    -C107    -C104    : 108.326934  H112    -C107    -C104    : 108.269826
 H112    -C107    -H111    : 107.244529  H113    -C107    -C104    : 115.683229
 H113    -C107    -H111    : 108.515169  H113    -C107    -H112    : 108.497035
 
  torsional angles:
 
 O2      -C104    -C105    -H108    :  58.163934
 O2      -C104    -C105    -H109    :-179.814304
 O2      -C104    -C105    -H110    : -57.788574
 O2      -C104    -C106    -H114    : 179.897864
 O2      -C104    -C106    -H115    : -58.095233
 O2      -C104    -C106    -H116    :  57.917728
 O2      -C104    -C107    -H111    : -57.669923
 O2      -C104    -C107    -H112    :  58.320579
 O2      -C104    -C107    -H113    :-179.708617
 C105    -C104    -C106    -H114    : -56.706322
 C105    -C104    -C106    -H115    :  65.300580
 C105    -C104    -C106    -H116    :-178.686458
 C105    -C104    -C107    -H111    : 178.836995
 C105    -C104    -C107    -H112    : -65.172503
 C105    -C104    -C107    -H113    :  56.798301
 C106    -C104    -C105    -H108    : -65.211646
 C106    -C104    -C105    -H109    :  56.810116
 C106    -C104    -C105    -H110    : 178.835846
 C106    -C104    -C107    -H111    :  65.753444
 C106    -C104    -C107    -H112    :-178.256054
 C106    -C104    -C107    -H113    : -56.285250
 C107    -C104    -C105    -H108    :-178.336022
 C107    -C104    -C105    -H109    : -56.314260
 C107    -C104    -C105    -H110    :  65.711470
 C107    -C104    -C106    -H114    :  56.447325
 C107    -C104    -C106    -H115    : 178.454228
 C107    -C104    -C106    -H116    : -65.532811
 
  nuclear repulsion energy.......           188.046801046 hartrees
 -------------------------------------------------
   end of geometry optimization iteration  5
 -------------------------------------------------
   
  end of program geopt
   
 Time(geopt)  user:       1.722  user+sys:       1.722  wallclock:       0.466
  
  start of program onee
  
  smallest eigenvalue of S:    4.405E-03
  number of canonical orbitals.....           88
  end of program onee
   
 Time(onee)  user:       0.367  user+sys:       0.367  wallclock:       0.087
  
  start of program probe
  
  end of program probe
   
 Time(probe)  user:       0.335  user+sys:       0.335  wallclock:       0.080
  
  start of program grid
  
   grid     grid set  grid #  grid sym
  ------    --------  ------  --------
  coarse        0        0        1
  medium        2        1        1
  fine          0        0        1
  ultrafine     4        2        1
  charge       -1        3        1
  gradient      4        2        1
  density       0        0        1
  DFT-fine    -11        4        1
  DFT-med.    -10        5        1
  DFT-grad    -12        6        1
  DFT-der2     -8        7        1
  DFT-cphf     -9        8        1
  LMP2-enrg     4        2        1
  LMP2-grad     2        1        1
  DFT-cphf2   -15        9        1
  PBF-dens      0        0        1
  plotting      0        0        1
  Rel-grad    -17        0        1
  
  number of gridpoints: 
     atom           O2        C104        C105        C106        C107        H108        H109
  grid # 1         121          96          78          76          76         108         109
  grid # 2         506         335         271         269         270         435         439
  grid # 3         286           6           6           6           6         318         299
  grid # 4        4304        4304        4304        4304        4304        4304        4304
  grid # 5        1192        1192        1192        1192        1192        1192        1192
  grid # 6        5226        5226        5226        5226        5226        5226        5226
  grid # 7       23504       12650       12650       12650       12650       13718       13718
  grid # 8         714         688         688         688         688         744         744
  grid # 9         360         358         358         358         358         382         382
   
  number of gridpoints: 
     atom         H110        H111        H112        H113        H114        H115        H116
  grid # 1         108         108         108         109         109         108         108
  grid # 2         435         435         435         439         439         435         435
  grid # 3         319         319         318         297         297         318         318
  grid # 4        4304        4304        4304        4304        4304        4304        4304
  grid # 5        1192        1192        1192        1192        1192        1192        1192
  grid # 6        5226        5226        5226        5226        5226        5226        5226
  grid # 7       13718       13718       13718       13718       13718       13718       13718
  grid # 8         744         744         744         744         744         744         744
  grid # 9         382         382         382         382         382         382         382
   
  number of gridpoints: 
     atom        total
  grid # 1        1422
  grid # 2        5578
  grid # 3        3113
  grid # 4       60256
  grid # 5       16688
  grid # 6       73164
  grid # 7      197566
  grid # 8       10162
  grid # 9        5230
   
  end of program grid
   
 Time(grid)  user:       2.731  user+sys:       2.731  wallclock:       0.750
  
  start of program rwr
  
  end of program rwr
   
 Time(rwr)  user:       2.790  user+sys:       2.790  wallclock:       0.751
  
  start of program ch
  
  gridpoints discarded for being within atomic van der Waals radii          195
  gridpoints used for charge fit         2918
    out of a possible maximum of         3113
  
   Electrostatic potential fitting constrained to reproduce
     total charge:                yes
     dipole moment:               no 
     traceless quadrupole moment: no 
     traceless octupole moment:   no 
  
  Atomic charges from electrostatic potential: 
   
 Atom       O2           C104         C105         C106         C107    
 Charge   -0.92141      0.94500     -0.51375     -0.51369     -0.51180
   
 Atom       H108         H109         H110         H111         H112    
 Charge    0.06689      0.03901      0.06656      0.06637      0.06606
   
 Atom       H113         H114         H115         H116    
 Charge    0.03846      0.03882      0.06679      0.06669
  
  sum of atomic charges:    -1.000000
   
 RMS Error   6.36E-04 hartrees
 
  end of program ch
   
 Time(ch)  user:       0.917  user+sys:       0.917  wallclock:       0.385
  
  start of program post
  
  Writing input files for PBF
  end of program post
   
 Time(post)  user:       0.307  user+sys:       0.307  wallclock:       0.073

  start of program pbf

Pbf Version 4.10

Molecular surface area:      112.75405   [A2]
Reaction field energy:       -64.07146   [kT]
  Peak memory usage: 186 MiB

  end of program pbf

 Time(pbf)  user:        0.2  user+sys:        0.2  wallclock:        0.3
  
  start of program solv
  
   number of surface charges from PBF    1494
   sum of surface charges      0.56140
   
  nuclear repulsion energy.......           188.046801046 hartrees
  end of program solv
   
 Time(solv)  user:       0.412  user+sys:       0.412  wallclock:       0.110
  
  start of program scf
  
 Energy computed using pseudospectral method.
 Convergence Criterion:
    Energy (econv):       1.00E-05
    RMS density (dconv):  5.00E-06
  
       i  u  d  i  g                   
       t  p  i  c  r                                 RMS    maximum
       e  d  i  u  i                       energy  density   DIIS  
       r  t  s  t  d       total energy    change  change    error 
  
etot    1  N  N  2  U    -233.06767142767           1.8E-03  6.2E-03
etot    2  Y  Y  6  M    -233.06845141236  7.8E-04  4.9E-04  6.1E-03
etot    3  Y  Y  6  M    -233.06888034169  4.3E-04  7.2E-05  1.3E-03
etot    4  Y  Y  6  M    -233.06890910588  2.9E-05  2.9E-05  4.0E-04
etot    5  N  Y  2  U    -233.06870432764 -2.0E-04  1.1E-05  1.4E-04
etot    6  N  Y  2  U    -233.06870497976  6.5E-07  4.8E-06  3.9E-05
etot    7  N  N  2  U    -233.06870502667  4.7E-08  0.0E+00  0.0E+00
 
  Computing the dispersion energy correction and its gradients...
  
  
 Energy components, in hartrees:
   (A)  Total zero-electron terms....     192.43102912236
   (B)    Nuclear-nuclear............     188.04680104603
   (C)    Nuclear-solvent............       4.38422807634
   (E)  Total one-electron terms.....    -701.86777443496
   (F)    Electron-nuclear...........    -928.95534772495
   (G)    Electron-solvent...........      -4.50392254420
   (H)    Kinetic....................     231.59149583419
   (I)  Total two-electron terms.....     276.36804028593
   (J)    Coulomb....................     310.24788571394
   (K)    Exchange+Correlation.......     -33.87984542801
   (L)  Electronic energy............    -425.49973414903  (E+I)
   (N0) D3 correction................      -0.01094147401
   (N)  Total quantum mech. energy...    -233.07964650069  (A+L+N0)
   (O)  Gas phase energy.............    -232.96097841705
   (P)  Solution phase energy........    -233.01979926675  (Q+R+S)
   (Q)    Total solute energy........    -232.95995203282  (N-C-G)
   (R)    Total solvent energy.......      -0.05984723393  (C/2+G/2)
   (S)    Solute cavity energy.......       0.00000000000
   (U)  Reorganization energy........       0.00102638423  (Q-O)
   (V)  Solvation energy.............      -0.05882084970  (P-O)
  
 SCFE:  Solution phase energy: DFT(b3pw91-d3)       -233.01979926675 hartrees
        SCF iterations:   7
  
 
 HOMO energy:    -0.05781
 LUMO energy:     0.17320
 
  Orbital energies (hartrees): 
   -18.88275   -10.09288   -10.05055   -10.05035   -10.05025    -0.80042
    -0.63907    -0.58332    -0.58309    -0.41005    -0.33495    -0.33483
    -0.32838    -0.29572    -0.29562    -0.26725    -0.22464    -0.22449
    -0.20703    -0.05789    -0.05781     0.17320     0.22055     0.24236
     0.24249     0.24749     0.24771     0.28318     0.28337     0.30174
     0.31122
 
  end of program scf
   
 Time(scf)  user:       6.994  user+sys:       6.994  wallclock:       1.949
  
  start of program sole
  
    SCRF                   solvation energy
  iteration          Hartrees            kcal/mol
     0               0.0000000            0.0000
     1              -0.0588208          -36.9106
  
  solvation energy not yet converged... 
  
  end of program sole
   
 Time(sole)  user:       0.302  user+sys:       0.302  wallclock:       0.065
  
  start of program ch
  
  gridpoints used for charge fit         2918
    out of a possible maximum of         2918
  
   Electrostatic potential fitting constrained to reproduce
     total charge:                yes
     dipole moment:               no 
     traceless quadrupole moment: no 
     traceless octupole moment:   no 
  
  Atomic charges from electrostatic potential: 
   
 Atom       O2           C104         C105         C106         C107    
 Charge   -0.97636      0.95400     -0.53561     -0.53553     -0.53469
   
 Atom       H108         H109         H110         H111         H112    
 Charge    0.07730      0.05624      0.07637      0.07637      0.07648
   
 Atom       H113         H114         H115         H116    
 Charge    0.05558      0.05563      0.07705      0.07715
  
  sum of atomic charges:    -1.000000
   
 RMS Error   5.69E-04 hartrees
 
  end of program ch
   
 Time(ch)  user:       0.845  user+sys:       0.845  wallclock:       0.226
  
  start of program post
  
  Writing input files for PBF
  end of program post
   
 Time(post)  user:       0.407  user+sys:       0.407  wallclock:       0.106

  start of program pbf

Pbf Version 4.10

Molecular surface area:      112.75405   [A2]
Reaction field energy:       -66.33879   [kT]
  Peak memory usage: 185 MiB

  end of program pbf

 Time(pbf)  user:        0.2  user+sys:        0.2  wallclock:        0.2
  
  start of program solv
  
   number of surface charges from PBF    1494
   sum of surface charges      0.56136
   
  nuclear repulsion energy.......           188.046801046 hartrees
  end of program solv
   
 Time(solv)  user:       0.420  user+sys:       0.420  wallclock:       0.108
  
  start of program scf
  
 Energy computed using pseudospectral method.
 Convergence Criterion:
    Energy (econv):       1.00E-05
    RMS density (dconv):  5.00E-06
  
       i  u  d  i  g                   
       t  p  i  c  r                                 RMS    maximum
       e  d  i  u  i                       energy  density   DIIS  
       r  t  s  t  d       total energy    change  change    error 
  
etot    1  N  N  2  U    -233.07114077581           2.2E-04  7.4E-04
etot    2  Y  Y  6  M    -233.07076228973 -3.8E-04  8.2E-05  7.4E-04
etot    3  Y  Y  6  M    -233.07076296402  6.7E-07  9.9E-06  2.0E-04
etot    4  N  Y  2  U    -233.07115593631  3.9E-04  2.8E-06  5.1E-05
etot    5  N  N  2  U    -233.07115597760  4.1E-08  0.0E+00  0.0E+00
 
  Computing the dispersion energy correction and its gradients...
  
  
 Energy components, in hartrees:
   (A)  Total zero-electron terms....     192.44790679317
   (B)    Nuclear-nuclear............     188.04680104603
   (C)    Nuclear-solvent............       4.40110574715
   (E)  Total one-electron terms.....    -701.90363293960
   (F)    Electron-nuclear...........    -928.97082388763
   (G)    Electron-solvent...........      -4.52350055529
   (H)    Kinetic....................     231.59069150332
   (I)  Total two-electron terms.....     276.38457016882
   (J)    Coulomb....................     310.26533044710
   (K)    Exchange+Correlation.......     -33.88076027828
   (L)  Electronic energy............    -425.51906277078  (E+I)
   (N0) D3 correction................      -0.01094147401
   (N)  Total quantum mech. energy...    -233.08209745162  (A+L+N0)
   (O)  Gas phase energy.............    -232.96097841705
   (P)  Solution phase energy........    -233.02090004755  (Q+R+S)
   (Q)    Total solute energy........    -232.95970264347  (N-C-G)
   (R)    Total solvent energy.......      -0.06119740407  (C/2+G/2)
   (S)    Solute cavity energy.......       0.00000000000
   (U)  Reorganization energy........       0.00127577358  (Q-O)
   (V)  Solvation energy.............      -0.05992163050  (P-O)
  
 SCFE:  Solution phase energy: DFT(b3pw91-d3)       -233.02090004755 hartrees
        SCF iterations:   5
  
 
 HOMO energy:    -0.05892
 LUMO energy:     0.17381
 
  Orbital energies (hartrees): 
   -18.88387   -10.09301   -10.05021   -10.04998   -10.04989    -0.80125
    -0.63902    -0.58296    -0.58272    -0.40994    -0.33470    -0.33458
    -0.32809    -0.29528    -0.29517    -0.26689    -0.22452    -0.22436
    -0.20814    -0.05900    -0.05892     0.17381     0.22118     0.24272
     0.24285     0.24801     0.24825     0.28386     0.28407     0.30219
     0.31155
 
  end of program scf
   
 Time(scf)  user:       4.343  user+sys:       4.343  wallclock:       1.218
  
  start of program sole
  
    SCRF                   solvation energy
  iteration          Hartrees            kcal/mol
     0               0.0000000            0.0000
     1              -0.0588208          -36.9106
     2              -0.0599216          -37.6014
  
  solvation energy not yet converged... 
  
  end of program sole
   
 Time(sole)  user:       0.296  user+sys:       0.296  wallclock:       0.068
  
  start of program ch
  
  gridpoints used for charge fit         2918
    out of a possible maximum of         2918
  
   Electrostatic potential fitting constrained to reproduce
     total charge:                yes
     dipole moment:               no 
     traceless quadrupole moment: no 
     traceless octupole moment:   no 
  
  Atomic charges from electrostatic potential: 
   
 Atom       O2           C104         C105         C106         C107    
 Charge   -0.98256      0.95385     -0.53554     -0.53541     -0.53467
   
 Atom       H108         H109         H110         H111         H112    
 Charge    0.07723      0.05848      0.07625      0.07625      0.07640
   
 Atom       H113         H114         H115         H116    
 Charge    0.05783      0.05785      0.07698      0.07706
  
  sum of atomic charges:    -1.000000
   
 RMS Error   5.62E-04 hartrees
 
  end of program ch
   
 Time(ch)  user:       0.896  user+sys:       0.896  wallclock:       0.249
  
  start of program post
  
  Writing input files for PBF
  end of program post
   
 Time(post)  user:       0.449  user+sys:       0.449  wallclock:       0.125

  start of program pbf

Pbf Version 4.10

Molecular surface area:      112.75405   [A2]
Reaction field energy:       -66.62297   [kT]
  Peak memory usage: 185 MiB

  end of program pbf

 Time(pbf)  user:        0.2  user+sys:        0.2  wallclock:        0.2
  
  start of program solv
  
   number of surface charges from PBF    1494
   sum of surface charges      0.56136
   
  nuclear repulsion energy.......           188.046801046 hartrees
  end of program solv
   
 Time(solv)  user:       0.413  user+sys:       0.413  wallclock:       0.110
  
  start of program scf
  
[...]
    H108     X     0.09388   0.05678  -0.00725   0.02005   0.03819  -0.07337
    H108     Y     0.07051   0.05780   0.06102   0.01038   0.13869  -0.20004
    H108     Z    -0.02280  -0.26111  -0.17124  -0.15926  -0.13135   0.29172
    H109     X     0.11329   0.07905  -0.00317   0.06235   0.03433  -0.11773
    H109     Y     0.05439  -0.03536   0.02676  -0.21184   0.13284  -0.02501
    H109     Z     0.02330  -0.02892  -0.07252   0.32116  -0.17578  -0.00551
    H110     X     0.10207   0.07236  -0.00331   0.06406   0.05086  -0.12552
    H110     Y    -0.04181  -0.00742   0.06131  -0.09405  -0.06287   0.15757
    H110     Z     0.24671  -0.10848  -0.17251   0.03103   0.20871  -0.30021
    H111     X     0.08550  -0.24542   0.16129  -0.13624   0.18634   0.35746
    H111     Y     0.07485   0.10295  -0.08099   0.08428   0.01093  -0.04152
    H111     Z    -0.03043   0.05946   0.00956   0.04076   0.03402   0.01245
    H112     X    -0.17826  -0.09772   0.16357   0.06419  -0.17415  -0.27966
    H112     Y     0.19606   0.02875  -0.07985  -0.01505   0.12976   0.18696
    H112     Z    -0.04947   0.08021   0.00618   0.10130  -0.03072  -0.13075
    H113     X     0.04869  -0.02459   0.07147   0.33964   0.23042   0.04750
    H113     Y     0.11071  -0.01167  -0.03500  -0.13505  -0.02882   0.08625
    H113     Z    -0.04592   0.08761   0.00519   0.11517   0.02629  -0.07065
    H114     X     0.02378   0.08309  -0.05158   0.03142   0.32960   0.07300
    H114     Y    -0.03750  -0.07083  -0.06015  -0.03598   0.28758  -0.05953
    H114     Z    -0.05298   0.08908  -0.00087   0.04062  -0.07907   0.07601
    H115     X    -0.10410  -0.03977  -0.11640  -0.12485  -0.00468  -0.19019
    H115     Y    -0.18151  -0.18609  -0.13899  -0.18420  -0.06449  -0.28718
    H115     Z    -0.05311   0.07921  -0.00518   0.06658  -0.07207   0.10984
    H116     X    -0.09801   0.18200  -0.11523   0.19641   0.01942   0.30921
    H116     Y    -0.18641   0.06616  -0.14175   0.12562  -0.07737   0.18295
    H116     Z    -0.04853   0.07246  -0.00278   0.01165  -0.05229   0.01716
  
  vibration #           13        14        15        16        17        18
                 --------- --------- --------- --------- --------- ---------
  frequencies      1021.93   1022.36   1034.68   1206.15   1206.83   1306.23
  intensities         0.15      0.18     32.23     46.97     47.39    154.45
  reduc. mass         0.38      0.38      2.08      3.08      3.09      4.76
  force const         0.23      0.24      1.31      2.64      2.65      4.78
    O2       X     0.00876   0.02182  -0.02637  -0.02468  -0.01940   0.01884
    O2       Y    -0.01500   0.01182   0.10008  -0.01708   0.01577  -0.07342
    O2       Z     0.01737  -0.00089   0.10435   0.01054  -0.01969  -0.07630
    C104     X    -0.01535  -0.03944   0.00772   0.15754   0.12378  -0.03845
    C104     Y     0.02725  -0.01742  -0.02531   0.10966  -0.10020   0.15147
    C104     Z    -0.02982   0.00564  -0.02721  -0.06693   0.12664   0.15748
    C105     X     0.00195  -0.07379   0.01600  -0.06178  -0.04780   0.00934
    C105     Y    -0.09548   0.00824  -0.05982  -0.03614   0.02845  -0.04134
    C105     Z    -0.01450  -0.00049  -0.03617   0.00049  -0.00746  -0.01762
    C106     X    -0.05772   0.04703   0.02557  -0.03190  -0.04756   0.02149
    C106     Y     0.04100  -0.01226  -0.03753  -0.00191   0.03976  -0.01954
    C106     Z    -0.02541  -0.08494  -0.05277   0.03101  -0.04916  -0.03582
    C107     X     0.04794   0.00833  -0.00460  -0.04019  -0.00985  -0.00919
    C107     Y     0.06706  -0.00717  -0.04425  -0.05520   0.01697  -0.02590
    C107     Z     0.02449   0.08471  -0.05823   0.02536  -0.05122  -0.03705
    H108     X     0.02994   0.03971   0.01533   0.04347   0.01820   0.02958
    H108     Y     0.04870   0.15153   0.01643   0.14909   0.08206   0.06769
    H108     Z     0.20460  -0.30061   0.17053  -0.07854  -0.25024   0.09775
    H109     X    -0.00878   0.08927  -0.02756   0.12407   0.07777  -0.01069
    H109     Y     0.20402  -0.03107   0.16997   0.03441   0.00201   0.07542
    H109     Z    -0.28260   0.07252  -0.25359  -0.00921   0.03000  -0.11335
    H110     X    -0.01974   0.09482  -0.03892   0.07151   0.07094  -0.06198
    H110     Y    -0.03809  -0.12422   0.01157  -0.11973  -0.07299   0.04653
    H110     Z     0.32790   0.17249   0.15791   0.26202  -0.04317   0.09527
    H111     X    -0.06948   0.34073  -0.11310   0.17139  -0.23434  -0.02322
    H111     Y    -0.09885  -0.16553   0.12832   0.04527   0.10901   0.11281
    H111     Z    -0.04571  -0.02134   0.03552   0.04576   0.01477   0.04082
    H112     X     0.32303  -0.01324  -0.12932  -0.24500  -0.02030  -0.06201
    H112     Y    -0.20431   0.00189   0.08623   0.14829   0.02690   0.04547
    H112     Z     0.00970  -0.12792   0.06938  -0.07991   0.10511   0.09547
    H113     X    -0.25501  -0.20555   0.28898   0.06465   0.00130   0.12775
    H113     Y     0.02633   0.11488  -0.09383   0.08864  -0.06316  -0.04096
    H113     Z    -0.02916  -0.10169   0.07780  -0.07461   0.04780   0.03323
    H114     X     0.11878  -0.24892  -0.22150   0.02262   0.08909  -0.10042
    H114     Y     0.01630  -0.23792  -0.19476   0.02646  -0.07466  -0.09039
    H114     Z     0.03613   0.08140   0.05100  -0.00529   0.09428   0.02355
    H115     X    -0.19462   0.08660   0.07390  -0.07669  -0.15031   0.02887
    H115     Y    -0.28053   0.15339   0.12580  -0.13716  -0.19416   0.06564
    H115     Z     0.05122   0.11968   0.07213  -0.06499   0.10188   0.10025
    H116     X     0.21282   0.15947   0.03848  -0.06606   0.23446  -0.02677
    H116     Y     0.09022   0.29007   0.14925  -0.15956   0.11346   0.11272
    H116     Z    -0.00910   0.06105   0.03958  -0.04267  -0.01180   0.04026
  
  vibration #           19        20        21        22        23        24
                 --------- --------- --------- --------- --------- ---------
  frequencies      1363.58   1363.96   1392.18   1492.05   1502.22   1502.29
  intensities         6.24      6.19      1.56      0.00      0.15      0.15
  reduc. mass         0.37      0.37      0.22      0.14      0.14      0.14
  force const         0.41      0.40      0.25      0.18      0.19      0.19
    O2       X    -0.00014  -0.00235   0.00053   0.00001   0.00019  -0.00003
    O2       Y    -0.00179  -0.00004  -0.00207  -0.00003   0.00002   0.00010
    O2       Z     0.00153  -0.00018  -0.00222  -0.00006  -0.00012  -0.00009
    C104     X     0.00168   0.02906   0.00117  -0.00008  -0.00119   0.00022
    C104     Y     0.02165   0.00223  -0.00402   0.00001  -0.00031  -0.00061
    C104     Z    -0.02024   0.00442  -0.00397   0.00023   0.00041   0.00082
    C105     X     0.00485  -0.01030   0.00301  -0.03666   0.02505   0.00477
    C105     Y    -0.04950   0.00684  -0.02778  -0.00810  -0.00053  -0.03710
    C105     Z     0.09436  -0.01720   0.06676  -0.00160  -0.00171  -0.01658
    C106     X    -0.04364  -0.06136   0.04836   0.02215  -0.01176  -0.02084
    C106     Y    -0.05253  -0.05594   0.05517  -0.01884   0.01217   0.01854
    C106     Z     0.01041   0.00330  -0.00135   0.02324   0.03621  -0.00313
    C107     X     0.02990  -0.09369  -0.06690   0.01437   0.00088   0.01188
    C107     Y    -0.01978   0.03481   0.03081   0.02660  -0.00710   0.02864
    C107     Z     0.01088  -0.01369  -0.00644  -0.02116  -0.03512   0.00954
    H108     X     0.13100  -0.02105   0.08690  -0.00038   0.02856   0.18048
    H108     Y     0.11705   0.00177   0.06704   0.13203  -0.02487   0.41857
    H108     Z    -0.35245   0.06143  -0.26541   0.22987  -0.16368   0.06784
    H109     X    -0.05178   0.04694  -0.04150   0.41525  -0.29097   0.07666
    H109     Y     0.32823  -0.05049   0.23300   0.08918  -0.09033  -0.15597
    H109     Z    -0.29217   0.05386  -0.20129   0.01807   0.00870   0.13601
    H110     X    -0.13404   0.03510  -0.08425   0.07026  -0.10253  -0.32556
    H110     Y     0.05189  -0.02886   0.02944  -0.11414   0.12383   0.28090
    H110     Z    -0.36205   0.06637  -0.27202  -0.22698   0.17184  -0.00732
    H111     X    -0.11181   0.35519   0.26981   0.08975   0.25641  -0.10754
    H111     Y     0.04086  -0.07965  -0.08392  -0.20876   0.16583  -0.33371
    H111     Z     0.04461  -0.08782  -0.07796  -0.13008   0.04480  -0.15717
    H112     X    -0.09889   0.24581   0.19942  -0.12101  -0.01451  -0.11423
    H112     Y     0.09519  -0.26877  -0.21195   0.15490   0.04075   0.11956
    H112     Z    -0.03966   0.05115   0.02636   0.16448   0.42516  -0.18216
    H113     X    -0.12073   0.37779   0.28134  -0.15873  -0.22605   0.02697
    H113     Y     0.04502  -0.04506  -0.03775  -0.29810  -0.12343  -0.18700
    H113     Z    -0.08566   0.17247   0.14031   0.24460   0.03460   0.20611
    H114     X     0.20971   0.28773  -0.25097  -0.24790  -0.23681   0.10929
    H114     Y     0.15350   0.15595  -0.15046   0.21224  -0.03283  -0.18473
    H114     Z    -0.11901  -0.10685   0.11586  -0.26593   0.00451   0.21722
    H115     X     0.09179   0.09358  -0.09659  -0.03229   0.06053   0.05609
    H115     Y     0.23847   0.28383  -0.27322  -0.18964   0.01010   0.16371
    H115     Z    -0.04364  -0.02368   0.01337  -0.17500  -0.46308  -0.03845
    H116     X     0.17290   0.23891  -0.20149  -0.01251   0.36789   0.14544
    H116     Y     0.15068   0.17553  -0.18449   0.22653  -0.11973  -0.23560
    H116     Z     0.08965   0.09180  -0.09876   0.13331  -0.05846  -0.12920
  
  vibration #           25        26        27        28        29        30
                 --------- --------- --------- --------- --------- ---------
  frequencies      1516.47   1516.63   1539.92   2975.76   2977.67   2994.61
  intensities         0.05      0.06      1.45     55.07     55.31    111.04
  reduc. mass         0.14      0.14      0.13      0.31      0.26      0.17
  force const         0.19      0.19      0.18      1.60      1.38      0.89
    O2       X     0.00510  -0.00300   0.00186   0.00089   0.00021   0.00003
    O2       Y     0.00286   0.00330  -0.00707  -0.00004   0.00067  -0.00001
    O2       Z    -0.00145  -0.00406  -0.00731   0.00026  -0.00059   0.00007
    C104     X    -0.03100   0.01833  -0.00790  -0.00279  -0.00067  -0.00027
    C104     Y    -0.01728  -0.02035   0.02991   0.00008  -0.00209   0.00067
    C104     Z     0.00874   0.02439   0.03112  -0.00087   0.00190   0.00043
    C105     X    -0.03127   0.01844  -0.00584  -0.00059   0.00381  -0.00232
    C105     Y    -0.01398  -0.01259   0.02498   0.00341  -0.00935   0.00501
    C105     Z    -0.00786  -0.01423   0.00892   0.01317  -0.03935   0.03277
    C106     X    -0.00731   0.02095  -0.01354   0.00689   0.00870   0.00962
    C106     Y     0.01771  -0.01656   0.01021   0.02291   0.03100   0.02648
    C106     Z     0.01430   0.02475   0.02073   0.01249   0.01569   0.01193
    C107     X    -0.00945  -0.01124   0.00631   0.02812  -0.00528  -0.01860
    C107     Y    -0.03089  -0.00259   0.01422  -0.03104   0.00658   0.01816
    C107     Z     0.00722   0.02716   0.02183  -0.01937   0.00338   0.00982
    H108     X     0.03736   0.10072  -0.15448  -0.08158   0.24137  -0.22504
    H108     Y     0.22851   0.17107  -0.33618   0.03570  -0.10657   0.09906
    H108     Z     0.27980  -0.08714  -0.01596  -0.00617   0.02326  -0.02482
    H109     X     0.45074  -0.17166  -0.02691   0.03688  -0.11002   0.08975
    H109     Y     0.04460  -0.15756   0.15823  -0.14141   0.42261  -0.34449
    H109     Z     0.05960   0.08482  -0.13394  -0.14666   0.43846  -0.35841
    H110     X    -0.01027  -0.21581   0.27999   0.05662  -0.17665   0.16404
    H110     Y    -0.04319   0.21657  -0.24276   0.06329  -0.19615   0.18177
    H110     Z    -0.25649   0.13264   0.00051  -0.00267   0.00407  -0.00793
    H111     X    -0.01922  -0.20859  -0.23154  -0.00882   0.00057   0.00849
    H111     Y     0.32466  -0.02009  -0.26512   0.11873  -0.02361  -0.08443
    H111     Z     0.17499   0.02258  -0.10098  -0.27166   0.05573   0.18749
    H112     X     0.15156   0.07098  -0.05974  -0.19331   0.03822   0.13648
    H112     Y    -0.17175  -0.10262   0.04752  -0.22343   0.04177   0.15259
    H112     Z    -0.00055  -0.33813  -0.35918   0.00807  -0.00160  -0.00656
    H113     X     0.06882   0.23197   0.18424  -0.12533   0.02467   0.07589
    H113     Y     0.29492   0.19764  -0.02219   0.47653  -0.09358  -0.28649
    H113     Z    -0.27912  -0.10899   0.09209   0.50022  -0.09831  -0.30036
    H114     X    -0.09620  -0.30163  -0.16515   0.07276   0.09646   0.08174
    H114     Y    -0.10126   0.23660  -0.09809  -0.28005  -0.37186  -0.31733
    H114     Z     0.09903  -0.29973   0.07805  -0.29147  -0.38711  -0.32973
    H115     X     0.05040  -0.04526   0.06695  -0.15710  -0.20976  -0.20557
    H115     Y     0.06178  -0.23813   0.07443   0.07521   0.09736   0.09302
    H115     Z    -0.23737  -0.23096  -0.35245  -0.01764  -0.02378  -0.02423
    H116     X     0.22692   0.03337   0.32687   0.00915   0.01378   0.01145
    H116     Y    -0.15449   0.26442  -0.14807  -0.06858  -0.09196  -0.09271
    H116     Z    -0.08352   0.15028  -0.07559   0.15932   0.21763   0.20924
  
  vibration #           31        32        33        34        35        36
                 --------- --------- --------- --------- --------- ---------
  frequencies      3060.48   3062.04   3074.97   3089.50   3097.55   3098.68
  intensities        34.07     34.34    169.62      0.78    111.30    112.67
  reduc. mass         0.20      0.17      0.13      0.18      0.25      0.30
  force const         1.12      0.96      0.70      1.00      1.44      1.67
    O2       X    -0.00090  -0.00016  -0.00031   0.00006  -0.00002   0.00070
    O2       Y    -0.00007  -0.00063   0.00109   0.00002   0.00053   0.00009
    O2       Z    -0.00027   0.00070   0.00104  -0.00001  -0.00048   0.00007
    C104     X     0.00121   0.00023   0.00101  -0.00025   0.00009  -0.00330
    C104     Y     0.00020   0.00074  -0.00374  -0.00009  -0.00246  -0.00044
    C104     Z     0.00050  -0.00112  -0.00380   0.00008   0.00229  -0.00038
    C105     X     0.00152  -0.01424   0.01174   0.04450  -0.00799  -0.07309
    C105     Y    -0.01523   0.05879  -0.05011   0.01007  -0.00450  -0.01581
    C105     Z    -0.00341   0.01341  -0.01281   0.00194  -0.00168  -0.00298
    C106     X     0.02432   0.03004   0.02577  -0.03166   0.03505  -0.02353
    C106     Y    -0.01174  -0.01541  -0.01408   0.02672  -0.02936   0.02021
    C106     Z    -0.03573  -0.03863  -0.03740  -0.03239   0.03825  -0.02204
    C107     X     0.02275  -0.00748  -0.01369  -0.02158  -0.02464  -0.01001
    C107     Y     0.03167  -0.01092  -0.02120  -0.03975  -0.04488  -0.01940
    C107     Z     0.05533  -0.01454  -0.03541   0.03215   0.03775   0.01285
    H108     X    -0.08739   0.41186  -0.33147  -0.30647   0.04409   0.51475
    H108     Y     0.03260  -0.16290   0.13290   0.13822  -0.01894  -0.23477
    H108     Z    -0.01357   0.06252  -0.05279  -0.04341   0.00536   0.07752
    H109     X    -0.01684   0.06115  -0.05768   0.00841  -0.00505  -0.01452
    H109     Y     0.05811  -0.23519   0.21921   0.00062   0.01260  -0.00433
    H109     Z     0.06300  -0.25440   0.24213  -0.00101   0.01208  -0.00161
    H110     X     0.08807  -0.30157   0.24687  -0.23004   0.05621   0.37860
    H110     Y     0.09211  -0.30685   0.25460  -0.25831   0.06508   0.42852
    H110     Z    -0.00855   0.03055  -0.02745   0.02107  -0.00700  -0.03900
    H111     X    -0.02166   0.00458   0.01586  -0.02778  -0.03722  -0.01205
    H111     Y     0.22448  -0.05633  -0.13566   0.17465   0.20690   0.07555
    H111     Z    -0.43478   0.10529   0.26252  -0.37616  -0.44400  -0.16169
    H112     X    -0.32572   0.10846   0.20195   0.28907   0.33410   0.14520
    H112     Y    -0.34433   0.11452   0.20990   0.30474   0.34806   0.14889
    H112     Z     0.03831  -0.01068  -0.02196  -0.01287  -0.01425  -0.00516
    H113     X     0.07548  -0.02279  -0.05678  -0.00406  -0.00444  -0.00362
    H113     Y    -0.26070   0.07477   0.18672  -0.00684  -0.01297   0.00544
    H113     Z    -0.26821   0.07918   0.19068   0.00656   0.00341   0.01319
    H114     X    -0.04156  -0.04624  -0.04559  -0.00491   0.00888  -0.00152
    H114     Y     0.17647   0.20317   0.20917   0.00145  -0.00998  -0.00535
    H114     Z     0.17761   0.20711   0.20901  -0.00964   0.00300  -0.01526
    H115     X    -0.27134  -0.33972  -0.28373   0.37009  -0.41589   0.28328
    H115     Y     0.11437   0.14275   0.11655  -0.15418   0.17073  -0.11415
    H115     Z    -0.04790  -0.05662  -0.04739   0.04312  -0.04803   0.03163
    H116     X     0.02229   0.02509   0.01971   0.01184  -0.01023   0.00762
    H116     Y    -0.15048  -0.15913  -0.14938  -0.16431   0.19697  -0.11745
    H116     Z     0.29972   0.31267   0.29356   0.35130  -0.41526   0.24863
  
  Number of imaginary frequencies:   0
   
  Writing vibrational animation data to O-tBu.vib
  Writing IR vibrational spectrum data to O-tBu_vib.spm
  rotational symmetry number:  1

  rotational temperatures (K):      0.229680      0.229560      0.219393
   
  The Quasi-Harmonic approximation will be applied to compute
  vibrational constributions to thermodynamic properties.
  Frequencies will be adjusted to a minimum value of  100.00 cm^-1.

  vibrational temperatures:
       mode:      1        2        3        4        5        6
  temp. (K):   352.06   437.23   438.26   489.22   490.06   592.06
   
       mode:      7        8        9       10       11       12
  temp. (K):   674.41   675.32  1007.80  1161.80  1162.38  1312.96
   
       mode:     13       14       15       16       17       18
  temp. (K):  1470.33  1470.94  1488.68  1735.38  1736.35  1879.38
   
       mode:     19       20       21       22       23       24
  temp. (K):  1961.89  1962.43  2003.04  2146.73  2161.35  2161.46
   
       mode:     25       26       27       28       29       30
  temp. (K):  2181.85  2182.08  2215.60  4281.44  4284.20  4308.57
   
       mode:     31       32       33       34       35       36
  temp. (K):  4403.34  4405.59  4424.19  4445.10  4456.68  4458.30
   
   
  Thermodynamic properties calculated assuming an ideal gas

  In the table below, the units for temperature
  are kelvins, the units for U, H, and G are
  kcal/mol and the units for Cv and S are cal/(mol K)

  The zero point energy (ZPE):     76.526 kcal/mol
  is not included in U, H, or G in the table below
  
 
  =============================================================================
  Thermodynamic properties for P = 1.00E+00 atm, calculated at   1 temperatures


  T =   298.15 K, P = 1.00E+00 atm
   
                  U         Cv          S          H          G        ln(Q)
              =========  =========  =========  =========  =========  =========
  trans.          0.889      2.981     38.783      1.481    -10.082   17.01616
  rot.            0.889      2.981     25.533      0.889     -6.724   11.34853
  vib.            2.118     17.339     10.706      2.118     -1.074    1.81288
  elec.           0.000      0.000      0.000      0.000      0.000    0.00000
  ----------------------------------------------------------------------------
  total           3.895     23.301     75.022      4.488    -17.880   30.17757
   
   Total internal energy, Utot(SCFE + ZPE + U):    -232.893034 hartrees
   Total enthalpy, Htot (Utot + nRT), with n=1:    -232.892090 hartrees
    Total Gibbs free energy, Gtot (Htot - T*S):    -232.927735 hartrees
   
  end of program freq
   
 Time(freq)  user:       0.527  user+sys:       0.527  wallclock:       0.145
  
  start of program post
  
  Writing input files for PBF
  end of program post
   
 Time(post)  user:       0.518  user+sys:       0.518  wallclock:       0.147

 Total cpu seconds     user:     342.957   user+sys:     342.957
  
 Total elapsed time:    194 seconds

Job O-tBu completed on bp1-compute081 at Mon Jul 14 11:49:56 2025
