Job enc_comp_L1_PL145 started on bp1-compute031.data.bp.acrc.priv at Fri Mar 15 00:28:48 2024
jobid: bp1-compute031-0-65f3963e

  +--------------------------------------------------------------------+
  |  Jaguar version 11.4, release 135                                  |
  |                                                                    |
  |  Copyright Schrodinger, Inc.                                       |
  |  All Rights Reserved.                                              |
  |                                                                    |
  |  The following have contributed to Jaguar (listed alphabetically): |
  |  Mike Beachy, Art Bochevarov, Dale Braden, Yixiang Cao,            |
  |  Alan Chien, Chris Cortis, Rich Friesner, Bill Goddard,            |
  |  Hod Greeley, Tom Hughes, Leif Jacobson, Jean-Marc Langlois,       |
  |  Daniel Levine, Daniel Mainz, Rob Murphy, Dean Philipp,            |
  |  Tom Pollard, Murco Ringnalda, Mark Watson, Haoyu Yu.              |
  |                                                                    |
  |  Use of this program should be acknowledged in publications as:    |
  |                                                                    |
  |  Jaguar, version 11.4, Schrodinger, Inc., New York, NY, 2021.      |
  |                                                                    |
  |  A. D. Bochevarov, E. Harder, T. F. Hughes, J. R. Greenwood,       |
  |  D. A. Braden, D. M. Philipp, D. Rinaldo, M. D. Halls,             |
  |  J. Zhang, R. A. Friesner, "Jaguar: A High-Performance Quantum     |
  |  Chemistry Software Program with Strengths in Life and Materials   |
  |  Sciences", Int. J. Quantum Chem., 2013, 113(18), 2110-2142.       |
  +--------------------------------------------------------------------+
  
  start of program pre
  
  Job name: enc_comp_L1_PL145
  Executables used: /sw/apps/schrodinger2021-4/jaguar-v11.4/bin/Linux-x86_64
  Temporary files : /tmp/ar21627/enc_comp_L1_PL145
  Maestro file (input):  enc_comp_L1_PL145.mae
  Maestro file (output): enc_comp_L1_PL145.01.mae
  
 Contents of input file: &gen section only
 ----------------Contents start----------------
&gen
dftname=b3pw91-d3
basis=6-31G*
numd=5
ip11=2
iaccg=3
isolv=2
igeopt=1
solvent=benzene
ifreq=1
&
 -----------------Contents end-----------------
 
  basis set:             non_standard                    
  net molecular charge:    0
  multiplicity:            1
  
  This run will use ECP on            2  atoms
  number of basis functions....          626
  
  input atom labels were not unique
  original atom labels:
 P1       Pd2      Br3      C4       C5       C6       C7       C8      
 C9       F10      H11      H12      H13      H14      C3       C4      
 C5       C6       C7       C8       C9       C10      C11      C12     
 C13      C14      C15      C16      C17      C18      C19      C20     
 C21      C22      C23      C24      C25      C26      O27      C28     
 O29      C30      H31      H32      H33      H34      H35      H36     
 H37      H38      H39      H40      H41      H42      H43      H44     
 H45      H46      H47      H48      H49      H50      H51      H52     
 H53      H54      H55      H56      H57      H58      H59      H60     
 H61      H62      H63      H64      H65     
  new atom labels:
 P1       Pd2      Br3      C4       C5       C6       C7       C8      
 C9       F10      H11      H12      H13      H14      C15      C16     
 C17      C18      C19      C20      C21      C22      C23      C24     
 C25      C26      C27      C28      C29      C30      C31      C32     
 C33      C34      C35      C36      C37      C38      O39      C40     
 O41      C42      H43      H44      H45      H46      H47      H48     
 H49      H50      H51      H52      H53      H54      H55      H56     
 H57      H58      H59      H60      H61      H62      H63      H64     
 H65      H66      H67      H68      H69      H70      H71      H72     
 H73      H74      H75      H76      H77     
 
  
 Input geometry:
                                   angstroms
  atom               x                 y                 z
  P1            0.0000000000      0.0000000000      0.0000000000 
  Pd2           0.0000000000      0.0000000000      2.3304135331 
  Br3           3.8542814242      0.0000000000      5.4292064860 
  C4           -0.4549197086      1.3497693940      4.0153359349 
  C5           -0.2669344836      0.0058806450      4.4490366009 
  C6            1.0407983309     -0.3826452052      4.8592552538 
  C7            2.0537516852      0.5613053264      4.8924840041 
  C8            1.8506734706      1.9005134066      4.5247241645 
  C9            0.5965376026      2.2939392222      4.0848657340 
  F10          -1.7240847964      1.8372913075      3.9128173605 
  H11          -1.1259178029     -0.6226753472      4.6805948296 
  H12           1.2142790067     -1.4018616494      5.1904970608 
  H13           2.6689545036      2.6135377646      4.5613194024 
  H14           0.3946228406      3.3233536154      3.8042291155 
  C15           1.7608762509      0.0000000000     -0.7421894815 
  C16          -0.8162921494     -1.5574842211     -0.7603611454 
  C17          -0.8021165931      1.4244115892     -0.9186980760 
  C18           1.9146491168      0.4060714136     -2.2245412319 
  C19           3.4081965324      0.5198683567     -2.6093393883 
  C20           4.1820583051     -0.7780787713     -2.3129690622 
  C21           3.9979547511     -1.2054981706     -0.8448675086 
  C22           2.5055327183     -1.3294493602     -0.4715173370 
  C23          -0.5455197860     -2.7866526259      0.1492917778 
  C24          -1.0570625867     -4.0881462915     -0.5066923764 
  C25          -2.5580681787     -4.0023100653     -0.8432255988 
  C26          -2.8559368860     -2.7577946663     -1.7013731388 
  C27          -2.3403995338     -1.4656803072     -1.0307062917 
  C28          -1.1242155392      1.2375240466     -2.2863189806 
  C29          -1.7234752811      2.2408517206     -3.0584062873 
  C30          -2.0198144825      3.4790428304     -2.4699975819 
  C31          -1.6929591617      3.6880696740     -1.1262848168 
  C32          -1.0799874677      2.6893800314     -0.3327116885 
  C33          -0.7623996973      3.0697307434      1.0795928611 
  C34          -1.8060053725      3.1900988101      2.0297503096 
  C35          -1.5366533592      3.5935126391      3.3513772174 
  C36          -0.2199254133      3.9021562911      3.7132034198 
  C37           0.8270891990      3.8420096765      2.7852567189 
  C38           0.5507539822      3.4236713384      1.4698104190 
  O39           1.4992583859      3.3522325147      0.4724543367 
  C40           2.8533384922      3.6072424938      0.8518659008 
  O41          -3.0643071908      2.9146500914      1.5548327362 
  C42          -4.0888055149      2.6783631170      2.5217698272 
  H43           2.2421854995      0.7738520556     -0.1134750923 
  H44           1.4329316660     -0.3500122301     -2.8812996894 
  H45           1.4134840190      1.3688954111     -2.4213778571 
  H46           3.8611219606      1.3524423143     -2.0321848305 
  H47           3.4995188980      0.7926625559     -3.6800344396 
  H48           3.8049954211     -1.5842430828     -2.9778874372 
  H49           5.2567009737     -0.6499016741     -2.5530046021 
  H50           4.4652851582     -0.4577396365     -0.1733620357 
  H51           4.5137412005     -2.1674241652     -0.6550191122 
  H52           2.4147364956     -1.5947898063      0.5957456873 
  H53           2.0516827871     -2.1429027840     -1.0752732074 
  H54          -0.2939447898     -1.7206024809     -1.7305084219 
  H55           0.5275806741     -2.8830777721      0.3851115867 
  H56          -1.0621044762     -2.6151042963      1.1126715030 
  H57          -0.8617024330     -4.9444561324      0.1681405100 
  H58          -0.4837773400     -4.2841225735     -1.4388434078 
  H59          -2.8956718967     -4.9231158530     -1.3605702372 
  H60          -3.1348928874     -3.9335170211      0.1008106230 
  H61          -3.9447637314     -2.6695714756     -1.8882345494 
  H62          -2.3755687108     -2.8775276004     -2.6973450990 
  H63          -2.8490477114     -1.3055056459     -0.0626442926 
  H64          -2.5893557442     -0.5973558068     -1.6636846196 
  H65          -0.8901137861      0.2818308150     -2.7668899433 
  H66          -1.9558460338      2.0507490735     -4.1138163845 
  H67          -2.4952346582      4.2768691893     -3.0539088487 
  H68          -1.9091748432      4.6533610507     -0.6543707284 
  H69          -2.3328536194      3.6277470654      4.0987289039 
  H70          -0.0003689518      4.1833500545      4.7492839160 
  H71           1.8495431705      4.0572237386      3.1025078095 
  H72           3.4462810625      3.4763850746     -0.0681000210 
  H73           3.1853497061      2.8828948570      1.6187207393 
  H74           2.9812619939      4.6462511135      1.2201099843 
  H75          -3.7922665394      1.8658495689      3.2092963185 
  H76          -4.9714892885      2.3641859827      1.9421291735 
  H77          -4.3384177598      3.5994186982      3.0895580454 
   
  principal moments of inertia:
        amu*angstrom^2:     5379.74740     7324.09307     8474.01679
                g*cm^2: 8.93327961E-37 1.21619412E-36 1.40714342E-36
   
  rotational constants:
               cm^(-1):      0.00313354      0.00230167      0.00198933
                   GHz:      0.09394103      0.06900226      0.05963866
   
  Molecular weight:     690.09 amu
   
  Stoichiometry: PdC32PH39BrO2F
  Molecular Point Group: C1      
  Point Group used: C1
  
 
Number of optimization coordinates:   280
Number of independent coordinates:    280
Number of non-redundant coordinates:  225
Number of frozen coordinates:           0
Number of harmonic constraints:         0
 
Number of geometric degrees of freedom:   225
Maximum geometric degrees of freedom:     225
 " " " " " excluding dummy atoms:         225
 
 
  bond lengths (angstroms):
 
 P1      -Pd2     :   2.330414      P1      -C15     :   1.910898
 P1      -C16     :   1.915787      P1      -C17     :   1.875192
 Pd2     -C4      :   2.206308      Pd2     -C5      :   2.135381
 Br3     -C7      :   1.960878      C4      -C5      :   1.424595
 C4      -C9      :   1.414869      C4      -F10     :   1.363440
 C5      -C6      :   1.424569      C5      -H11     :   1.089291
 C6      -C7      :   1.384999      C6      -H12     :   1.085642
 C7      -C8      :   1.403555      C8      -C9      :   1.386043
 C8      -H13     :   1.085968      C9      -H14     :   1.085919
 H14     -C36     :   0.849098      C15     -C18     :   1.544638
 C15     -C22     :   1.547647      C15     -H43     :   1.107153
 C16     -C23     :   1.552946      C16     -C27     :   1.550619
 C16     -H54     :   1.113840      C17     -C28     :   1.417414
 C17     -C32     :   1.421526      C18     -C19     :   1.546513
 C18     -H44     :   1.111326      C18     -H45     :   1.103151
 C19     -C20     :   1.539923      C19     -H46     :   1.109697
 C19     -H47     :   1.108668      C20     -C21     :   1.540099
 C20     -H48     :   1.110943      C20     -H49     :   1.108559
 C21     -C22     :   1.543398      C21     -H50     :   1.108359
 C21     -H51     :   1.107872      C22     -H52     :   1.103494
 C22     -H53     :   1.110048      C23     -C24     :   1.544628
 C23     -H55     :   1.102929      C23     -H56     :   1.106521
 C24     -C25     :   1.540662      C24     -H57     :   1.107624
 C24     -H58     :   1.111741      C25     -C26     :   1.540767
 C25     -H59     :   1.108830      C25     -H60     :   1.108451
 C26     -C27     :   1.544387      C26     -H61     :   1.108262
 C26     -H62     :   1.112227      C27     -H63     :   1.105225
 C27     -H64     :   1.103009      C28     -C29     :   1.400678
 C28     -H65     :   1.095035      C29     -C30     :   1.402554
 C29     -H66     :   1.097281      C30     -C31     :   1.398603
 C30     -H67     :   1.097043      C31     -C32     :   1.415229
 C31     -H68     :   1.096011      C32     -C33     :   1.496707
 C33     -C34     :   1.416475      C33     -C38     :   1.414891
 C34     -C35     :   1.407832      C34     -O41     :   1.372859
 C35     -C36     :   1.399983      C35     -H69     :   1.092539
 C36     -C37     :   1.400336      C36     -H70     :   1.095782
 C37     -C38     :   1.407752      C37     -H71     :   1.091960
 C38     -O39     :   1.378217      O39     -C40     :   1.429166
 C40     -H72     :   1.102289      C40     -H73     :   1.105883
 C40     -H74     :   1.109733      O41     -C42     :   1.428424
 C42     -H75     :   1.104901      C42     -H76     :   1.101736
 C42     -H77     :   1.110420
 
  bond angles:
 
 C15     -P1      -Pd2     : 112.854874  C16     -P1      -Pd2     : 113.384048
 C16     -P1      -C15     : 103.797047  C17     -P1      -Pd2     : 119.335462
 C17     -P1      -C15     : 101.764216  C17     -P1      -C16     : 103.935872
 C4      -Pd2     -P1      : 139.790083  C5      -Pd2     -P1      : 172.817172
 C5      -Pd2     -C4      :  38.265372  C5      -C4      -Pd2     :  68.171301
 C9      -C4      -Pd2     : 107.010697  C9      -C4      -C5      : 121.097117
 F10     -C4      -Pd2     : 110.687033  F10     -C4      -C5      : 118.883777
 F10     -C4      -C9      : 117.183816  C4      -C5      -Pd2     :  73.563328
 C6      -C5      -Pd2     :  99.799198  C6      -C5      -C4      : 117.780247
 H11     -C5      -Pd2     : 107.932450  H11     -C5      -C4      : 120.331435
 H11     -C5      -C6      : 120.351769  C7      -C6      -C5      : 119.499655
 H12     -C6      -C5      : 119.379668  H12     -C6      -C7      : 121.041683
 C6      -C7      -Br3     : 118.884051  C8      -C7      -Br3     : 118.535581
 C8      -C7      -C6      : 122.561140  C9      -C8      -C7      : 119.006271
 H13     -C8      -C7      : 120.572301  H13     -C8      -C9      : 120.405679
 C8      -C9      -C4      : 119.907542  H14     -C9      -C4      : 118.797547
 H14     -C9      -C8      : 121.287651  C36     -H14     -C9      : 143.947549
 C18     -C15     -P1      : 117.676148  C22     -C15     -P1      : 112.052203
 C22     -C15     -C18     : 110.228616  H43     -C15     -P1      : 100.372038
 H43     -C15     -C18     : 108.538360  H43     -C15     -C22     : 106.973355
 C23     -C16     -P1      : 109.675858  C27     -C16     -P1      : 116.095413
 C27     -C16     -C23     : 108.685035  H54     -C16     -P1      : 105.362777
 H54     -C16     -C23     : 108.210602  H54     -C16     -C27     : 108.527420
 C28     -C17     -P1      : 118.018741  C32     -C17     -P1      : 123.890444
 C32     -C17     -C28     : 118.076616  C19     -C18     -C15     : 110.748753
 H44     -C18     -C15     : 110.189696  H44     -C18     -C19     : 108.761852
 H45     -C18     -C15     : 110.821576  H45     -C18     -C19     : 109.276348
 H45     -C18     -H44     : 106.943579  C20     -C19     -C18     : 112.049932
 H46     -C19     -C18     : 108.661171  H46     -C19     -C20     : 109.097085
 H47     -C19     -C18     : 109.752032  H47     -C19     -C20     : 110.601340
 H47     -C19     -H46     : 106.502571  C21     -C20     -C19     : 110.934835
 H48     -C20     -C19     : 109.018804  H48     -C20     -C21     : 109.182296
 H49     -C20     -C19     : 110.366786  H49     -C20     -C21     : 110.755376
 H49     -C20     -H48     : 106.459137  C22     -C21     -C20     : 111.621485
 H50     -C21     -C20     : 109.870468  H50     -C21     -C22     : 108.381341
 H51     -C21     -C20     : 110.405725  H51     -C21     -C22     : 109.816229
 H51     -C21     -H50     : 106.598006  C21     -C22     -C15     : 110.730175
 H52     -C22     -C15     : 109.640323  H52     -C22     -C21     : 109.440822
 H53     -C22     -C15     : 109.733502  H53     -C22     -C21     : 108.822300
 H53     -C22     -H52     : 108.432918  C24     -C23     -C16     : 111.125405
 H55     -C23     -C16     : 111.351347  H55     -C23     -C24     : 109.837706
 H56     -C23     -C16     : 107.810704  H56     -C23     -C24     : 110.228737
 H56     -C23     -H55     : 106.357483  C25     -C24     -C23     : 111.621470
 H57     -C24     -C23     : 109.527273  H57     -C24     -C25     : 110.364658
 H58     -C24     -C23     : 109.501987  H58     -C24     -C25     : 109.211968
 H58     -C24     -H57     : 106.475670  C26     -C25     -C24     : 110.794037
 H59     -C25     -C24     : 110.626783  H59     -C25     -C26     : 110.611963
 H60     -C25     -C24     : 108.930251  H60     -C25     -C26     : 108.881681
 H60     -C25     -H59     : 106.885455  C27     -C26     -C25     : 111.677594
 H61     -C26     -C25     : 110.373692  H61     -C26     -C27     : 109.546854
 H62     -C26     -C25     : 109.165367  H62     -C26     -C27     : 109.558147
 H62     -C26     -H61     : 106.374181  C26     -C27     -C16     : 110.749596
 H63     -C27     -C16     : 107.952207  H63     -C27     -C26     : 110.364467
 H64     -C27     -C16     : 111.623564  H64     -C27     -C26     : 109.517124
 H64     -C27     -H63     : 106.539811  C29     -C28     -C17     : 122.319238
 H65     -C28     -C17     : 119.336537  H65     -C28     -C29     : 118.341005
 C30     -C29     -C28     : 119.440155  H66     -C29     -C28     : 119.781371
 H66     -C29     -C30     : 120.778471  C31     -C30     -C29     : 119.053335
 H67     -C30     -C29     : 120.683342  H67     -C30     -C31     : 120.262150
 C32     -C31     -C30     : 122.309158  H68     -C31     -C30     : 119.947166
 H68     -C31     -C32     : 117.743514  C31     -C32     -C17     : 118.781466
 C33     -C32     -C17     : 125.004211  C33     -C32     -C31     : 116.211950
 C34     -C33     -C32     : 119.882526  C38     -C33     -C32     : 121.382210
 C38     -C33     -C34     : 118.524149  C35     -C34     -C33     : 120.870938
 O41     -C34     -C33     : 115.225735  O41     -C34     -C35     : 123.890184
 C36     -C35     -C34     : 119.061268  H69     -C35     -C34     : 120.778045
 H69     -C35     -C36     : 120.113983  C35     -C36     -H14     : 123.927892
 C37     -C36     -H14     :  60.040309  C37     -C36     -C35     : 121.499432
 H70     -C36     -H14     :  85.902520  H70     -C36     -C35     : 119.300694
 H70     -C36     -C37     : 119.193960  C38     -C37     -C36     : 119.025933
 H71     -C37     -C36     : 119.940819  H71     -C37     -C38     : 120.920782
 C37     -C38     -C33     : 120.945871  O39     -C38     -C33     : 115.225326
 O39     -C38     -C37     : 123.815288  C40     -O39     -C38     : 116.787962
 H72     -C40     -O39     : 105.480406  H73     -C40     -O39     : 110.589352
 H73     -C40     -H72     : 109.845361  H74     -C40     -O39     : 111.368976
 H74     -C40     -H72     : 109.031337  H74     -C40     -H73     : 110.398103
 C42     -O41     -C34     : 117.154581  H75     -C42     -O41     : 110.509948
 H76     -C42     -O41     : 105.405671  H76     -C42     -H75     : 109.432569
 H77     -C42     -O41     : 111.724695  H77     -C42     -H75     : 110.617181
 H77     -C42     -H76     : 108.993185
 
  torsional angles:
 
 P1      -Pd2     -C4      -C5      : 169.055599
 P1      -Pd2     -C4      -C9      : -73.602749
 P1      -Pd2     -C4      -F10     :  55.167448
 P1      -Pd2     -C5      -C4      : -78.600628
 P1      -Pd2     -C5      -C6      : 165.156178
 P1      -Pd2     -C5      -H11     :  38.653112
 P1      -C15     -C18     -C19     : 173.025537
 P1      -C15     -C18     -H44     : -66.592077
 P1      -C15     -C18     -H45     :  51.575275
 P1      -C15     -C22     -C21     :-169.424702
 P1      -C15     -C22     -H52     : -48.565920
 P1      -C15     -C22     -H53     :  70.426147
 P1      -C16     -C23     -C24     :-173.877998
 P1      -C16     -C23     -H55     : -51.081401
 P1      -C16     -C23     -H56     :  65.226560
 P1      -C16     -C27     -C26     : 177.367530
 P1      -C16     -C27     -H63     : -61.707073
 P1      -C16     -C27     -H64     :  55.058353
 P1      -C17     -C28     -C29     :-179.929022
 P1      -C17     -C28     -H65     :  -0.592880
 P1      -C17     -C32     -C31     :-179.821997
 P1      -C17     -C32     -C33     :   0.761002
 Pd2     -P1      -C15     -C18     :-162.731193
 Pd2     -P1      -C15     -C22     :  67.943966
 Pd2     -P1      -C15     -H43     : -45.281142
 Pd2     -P1      -C16     -C23     : -33.657334
 Pd2     -P1      -C16     -C27     :  89.983783
 Pd2     -P1      -C16     -H54     :-149.916398
 Pd2     -P1      -C17     -C28     :-162.687575
 Pd2     -P1      -C17     -C32     :  18.712067
 Pd2     -C4      -C5      -C6      :  92.587904
 Pd2     -C4      -C5      -H11     :-101.496949
 Pd2     -C4      -C9      -C8      : -71.447828
 Pd2     -C4      -C9      -H14     : 109.519591
 Pd2     -C5      -C4      -C9      : -97.263592
 Pd2     -C5      -C4      -F10     : 102.336045
 Pd2     -C5      -C6      -C7      :  79.957824
 Pd2     -C5      -C6      -H12     :-103.239758
 Br3     -C7      -C6      -C5      :-178.920910
 Br3     -C7      -C6      -H12     :   4.331201
 Br3     -C7      -C8      -C9      : 177.060737
 Br3     -C7      -C8      -H13     :  -1.501514
 C4      -Pd2     -P1      -C15     : 108.625624
 C4      -Pd2     -P1      -C16     :-133.714919
 C4      -Pd2     -P1      -C17     : -10.759167
 C4      -Pd2     -C5      -C6      :-116.243194
 C4      -Pd2     -C5      -H11     : 117.253740
 C4      -C5      -C6      -C7      :   3.464907
 C4      -C5      -C6      -H12     :-179.732674
 C4      -C9      -C8      -C7      :   0.134173
 C4      -C9      -C8      -H13     : 178.698884
 C4      -C9      -H14     -C36     :  22.143762
 C5      -Pd2     -P1      -C15     : 178.737961
 C5      -Pd2     -P1      -C16     : -63.602582
 C5      -Pd2     -P1      -C17     :  59.353171
 C5      -Pd2     -C4      -C9      : 117.341652
 C5      -Pd2     -C4      -F10     :-113.888151
 C5      -C4      -C9      -C8      :   2.913388
 C5      -C4      -C9      -H14     :-176.119193
 C5      -C6      -C7      -C8      :  -0.540470
 C6      -C5      -C4      -C9      :  -4.675688
 C6      -C5      -C4      -F10     :-165.076052
 C6      -C7      -C8      -C9      :  -1.325091
 C6      -C7      -C8      -H13     :-179.887342
 C7      -C6      -C5      -H11     :-162.447253
 C7      -C8      -C9      -H14     : 179.142122
 C8      -C7      -C6      -H12     :-177.288359
 C8      -C9      -C4      -F10     : 163.633244
 C8      -C9      -H14     -C36     :-156.874938
 C9      -C4      -C5      -H11     : 161.239459
 C9      -H14     -C36     -C35     : -31.001376
 C9      -H14     -C36     -C37     :-140.822366
 C9      -H14     -C36     -H70     :  91.896096
 F10     -C4      -C5      -H11     :   0.839096
 F10     -C4      -C9      -H14     : -15.399337
 H11     -C5      -C6      -H12     :  14.355165
 H13     -C8      -C9      -H14     :  -2.293167
 H14     -C36     -C35     -C34     : -71.732797
 H14     -C36     -C35     -H69     : 105.801302
 H14     -C36     -C37     -C38     : 111.852913
 H14     -C36     -C37     -H71     : -64.327626
 C15     -P1      -C16     -C23     :  89.156571
 C15     -P1      -C16     -C27     :-147.202312
 C15     -P1      -C16     -H54     : -27.102493
 C15     -P1      -C17     -C28     :  72.413626
 C15     -P1      -C17     -C32     :-106.186733
 C15     -C18     -C19     -C20     :  55.634693
 C15     -C18     -C19     -H46     : -64.987080
 C15     -C18     -C19     -H47     : 178.919672
 C15     -C22     -C21     -C20     : -56.646533
 C15     -C22     -C21     -H50     :  64.483797
 C15     -C22     -C21     -H51     :-179.431519
 C16     -P1      -C15     -C18     :  74.106847
 C16     -P1      -C15     -C22     : -55.217994
 C16     -P1      -C15     -H43     :-168.443102
 C16     -P1      -C17     -C28     : -35.204125
 C16     -P1      -C17     -C32     : 146.195516
 C16     -C23     -C24     -C25     : -56.808193
 C16     -C23     -C24     -H57     :-179.338689
 C16     -C23     -C24     -H58     :  64.248597
 C16     -C27     -C26     -C25     :  57.586148
 C16     -C27     -C26     -H61     :-179.820371
 C16     -C27     -C26     -H62     : -63.486672
 C17     -P1      -C15     -C18     : -33.618468
 C17     -P1      -C15     -C22     :-162.943309
 C17     -P1      -C15     -H43     :  83.831583
 C17     -P1      -C16     -C23     :-164.747617
 C17     -P1      -C16     -C27     : -41.106500
 C17     -P1      -C16     -H54     :  78.993319
 C17     -C28     -C29     -C30     :   0.039287
 C17     -C28     -C29     -H66     :-179.941590
 C17     -C32     -C31     -C30     :  -0.781942
 C17     -C32     -C31     -H68     : 179.365007
 C17     -C32     -C33     -C34     :-107.228545
 C17     -C32     -C33     -C38     :  78.129400
 C18     -C15     -C22     -C21     :  57.469349
 C18     -C15     -C22     -H52     : 178.328131
 C18     -C15     -C22     -H53     : -62.679802
 C18     -C19     -C20     -C21     : -54.134037
 C18     -C19     -C20     -H48     :  66.129439
 C18     -C19     -C20     -H49     :-177.278229
 C19     -C18     -C15     -C22     : -56.801689
 C19     -C18     -C15     -H43     :  60.052067
 C19     -C20     -C21     -C22     :  54.569811
 C19     -C20     -C21     -H50     : -65.690592
 C19     -C20     -C21     -H51     : 177.017486
 C20     -C19     -C18     -H44     : -65.594582
 C20     -C19     -C18     -H45     : 177.990841
 C20     -C21     -C22     -H52     :-177.623539
 C20     -C21     -C22     -H53     :  64.045397
 C21     -C20     -C19     -H46     :  66.234617
 C21     -C20     -C19     -H47     :-176.939257
 C21     -C22     -C15     -H43     : -60.353786
 C22     -C15     -C18     -H44     :  63.580696
 C22     -C15     -C18     -H45     :-178.251951
 C22     -C21     -C20     -H48     : -65.596447
 C22     -C21     -C20     -H49     : 177.489827
 C23     -C16     -C27     -C26     : -58.478386
 C23     -C16     -C27     -H63     :  62.447011
 C23     -C16     -C27     -H64     : 179.212437
 C23     -C24     -C25     -C26     :  53.999904
 C23     -C24     -C25     -H59     : 177.044954
 C23     -C24     -C25     -H60     : -65.748743
 C24     -C23     -C16     -C27     :  58.238166
 C24     -C23     -C16     -H54     : -59.432276
 C24     -C25     -C26     -C27     : -54.490564
 C24     -C25     -C26     -H61     :-176.610055
 C24     -C25     -C26     -H62     :  66.810280
 C25     -C24     -C23     -H55     : 179.527012
 C25     -C24     -C23     -H56     :  62.653743
 C25     -C26     -C27     -H63     : -61.899481
 C25     -C26     -C27     -H64     :-178.883557
 C26     -C25     -C24     -H57     : 176.049504
 C26     -C25     -C24     -H58     : -67.225513
 C26     -C27     -C16     -H54     :  58.990564
 C27     -C16     -C23     -H55     :-178.965237
 C27     -C16     -C23     -H56     : -62.657277
 C27     -C26     -C25     -H59     :-177.544184
 C27     -C26     -C25     -H60     :  65.287172
 C28     -C17     -C32     -C31     :   1.578398
 C28     -C17     -C32     -C33     :-177.838604
 C28     -C29     -C30     -C31     :   0.806805
 C28     -C29     -C30     -H67     :-179.586217
 C29     -C28     -C17     -C32     :  -1.245820
 C29     -C30     -C31     -C32     :  -0.436161
 C29     -C30     -C31     -H68     : 179.413743
 C30     -C29     -C28     -H65     :-179.303176
 C30     -C31     -C32     -C33     : 178.685783
 C31     -C30     -C29     -H66     :-179.212513
 C31     -C32     -C33     -C34     :  73.340999
 C31     -C32     -C33     -C38     :-101.301056
 C32     -C17     -C28     -H65     : 178.090321
 C32     -C31     -C30     -H67     : 179.955164
 C32     -C33     -C34     -C35     :-177.687037
 C32     -C33     -C34     -O41     :   1.044076
 C32     -C33     -C38     -C37     : 176.908189
 C32     -C33     -C38     -O39     :  -1.804053
 C33     -C32     -C31     -H68     :  -1.167268
 C33     -C34     -C35     -C36     :   1.241559
 C33     -C34     -C35     -H69     :-176.275674
 C33     -C34     -O41     -C42     : 164.048999
 C33     -C38     -C37     -C36     :   0.137764
 C33     -C38     -C37     -H71     : 176.279676
 C33     -C38     -O39     -C40     :-175.544166
 C34     -C33     -C38     -C37     :   2.195393
 C34     -C33     -C38     -O39     :-176.516850
 C34     -C35     -C36     -C37     :   1.189470
 C34     -C35     -C36     -H70     :-177.918494
 C34     -O41     -C42     -H75     : -55.368098
 C34     -O41     -C42     -H76     :-173.501882
 C34     -O41     -C42     -H77     :  68.256581
 C35     -C34     -C33     -C38     :  -2.892692
 C35     -C34     -O41     -C42     : -17.263028
 C35     -C36     -C37     -C38     :  -1.872391
 C35     -C36     -C37     -H71     :-178.052929
 C36     -C35     -C34     -O41     :-177.375611
 C36     -C37     -C38     -O39     : 178.735594
 C37     -C36     -C35     -H69     : 178.723569
 C37     -C38     -O39     -C40     :   5.785165
 C38     -C33     -C34     -O41     : 175.838421
 C38     -C37     -C36     -H70     : 177.236503
 C38     -O39     -C40     -H72     : 178.556959
 C38     -O39     -C40     -H73     :  59.849315
 C38     -O39     -C40     -H74     : -63.298094
 O39     -C38     -C37     -H71     :  -5.122494
 O41     -C34     -C35     -H69     :   5.107156
 H43     -C15     -C18     -H44     :-179.565548
 H43     -C15     -C18     -H45     : -61.398195
 H43     -C15     -C22     -H52     :  60.504996
 H43     -C15     -C22     -H53     : 179.497063
 H44     -C18     -C19     -H46     : 173.783646
 H44     -C18     -C19     -H47     :  57.690397
 H45     -C18     -C19     -H46     :  57.369069
 H45     -C18     -C19     -H47     : -58.724180
 H46     -C19     -C20     -H48     :-173.501907
 H46     -C19     -C20     -H49     : -56.909575
 H47     -C19     -C20     -H48     : -56.675781
 H47     -C19     -C20     -H49     :  59.916551
 H48     -C20     -C21     -H50     : 174.143149
 H48     -C20     -C21     -H51     :  56.851228
 H49     -C20     -C21     -H50     :  57.229423
 H49     -C20     -C21     -H51     : -60.062498
 H50     -C21     -C22     -H52     : -56.493209
 H50     -C21     -C22     -H53     :-174.824272
 H51     -C21     -C22     -H52     :  59.591475
 H51     -C21     -C22     -H53     : -58.739588
 H54     -C16     -C23     -H55     :  63.364321
 H54     -C16     -C23     -H56     : 179.672282
 H54     -C16     -C27     -H63     : 179.915962
 H54     -C16     -C27     -H64     : -63.318613
 H55     -C23     -C24     -H57     :  56.996516
 H55     -C23     -C24     -H58     : -59.416198
 H56     -C23     -C24     -H57     : -59.876753
 H56     -C23     -C24     -H58     :-176.289467
 H57     -C24     -C25     -H59     : -60.905446
 H57     -C24     -C25     -H60     :  56.300857
 H58     -C24     -C25     -H59     :  55.819537
 H58     -C24     -C25     -H60     : 173.025840
 H59     -C25     -C26     -H61     :  60.336325
 H59     -C25     -C26     -H62     : -56.243340
 H60     -C25     -C26     -H61     : -56.832318
 H60     -C25     -C26     -H62     :-173.411983
 H61     -C26     -C27     -H63     :  60.694001
 H61     -C26     -C27     -H64     : -56.290076
 H62     -C26     -C27     -H63     : 177.027700
 H62     -C26     -C27     -H64     :  60.043624
 H65     -C28     -C29     -H66     :   0.715947
 H66     -C29     -C30     -H67     :   0.394465
 H67     -C30     -C31     -H68     :  -0.194931
 H69     -C35     -C36     -H70     :  -0.384394
 H70     -C36     -C37     -H71     :   1.055964
 
  nuclear repulsion energy.......    5272.542335603 hartrees
  
  Detected an organometallic with only one TM atom. 
  
  
 
  Will use High-Quality Initial guess for organometallics
       including d-d repulsion (iguess=30)
 
 Non-default options chosen:
   SCF calculation type: DFT(b3pw91-d3)              
   DFT=Becke_3_Parameter/HF+Slater+Becke88+PW91+PW-GGAIIC (B3PW91-D3)
   Geometry will be optimized in redundant internal coordinates
   Solvation energy will be computed using PBF
     -solute cavity energy will not be included
     -surface area terms will not be included
   Vibrational frequencies and related properties will be computed
      from analytic second derivatives
   IR intensities will be computed
   Thermochemical properties will be computed
   Scaling standard convergence criteria by a factor of   5.00
   Solvent: benzene                                                         
   Internal dielectric constant:    1.000
   Continuum dielectric constant:   2.283
   Solvent probe molecule radius:   2.600
  
 Non-default print settings:
     11=  2
  
 Temporary integer options set:
     21= -1  73=  2
  
  atom       vdw   vdw2    cov     mass  grid  daf  charge   basis
  P1        2.147  2.074  1.060   30.974    Y    Y      Y    6-31g*
  Pd2       1.450  1.450  1.280  105.903    Y    Y      Y    lacv3p*
  Br3       2.095  2.095  1.140   78.918    Y    Y      Y    lav3p*
  C4        1.949  1.900  0.770   12.000    Y    Y      Y    6-31g*
  C5        1.949  1.900  0.770   12.000    Y    Y      Y    6-31g*
  C6        1.949  1.900  0.770   12.000    Y    Y      Y    6-31g*
  C7        1.949  1.900  0.770   12.000    Y    Y      Y    6-31g*
  C8        1.949  1.900  0.770   12.000    Y    Y      Y    6-31g*
  C9        1.949  1.900  0.770   12.000    Y    Y      Y    6-31g*
  F10       1.736  1.682  0.720   18.998    Y    Y      Y    6-31g*
  H11       1.597  1.150  0.320    1.008    Y    Y      Y    6-31g*
  H12       1.597  1.150  0.320    1.008    Y    Y      Y    6-31g*
  H13       1.597  1.150  0.320    1.008    Y    Y      Y    6-31g*
  H14       1.597  1.150  0.320    1.008    Y    Y      Y    6-31g*
  C15       1.949  1.900  0.770   12.000    Y    Y      Y    6-31g*
  C16       1.949  1.900  0.770   12.000    Y    Y      Y    6-31g*
  C17       1.949  1.900  0.770   12.000    Y    Y      Y    6-31g*
  C18       1.949  1.900  0.770   12.000    Y    Y      Y    6-31g*
  C19       1.949  1.900  0.770   12.000    Y    Y      Y    6-31g*
  C20       1.949  1.900  0.770   12.000    Y    Y      Y    6-31g*
  C21       1.949  1.900  0.770   12.000    Y    Y      Y    6-31g*
  C22       1.949  1.900  0.770   12.000    Y    Y      Y    6-31g*
  C23       1.949  1.900  0.770   12.000    Y    Y      Y    6-31g*
  C24       1.949  1.900  0.770   12.000    Y    Y      Y    6-31g*
  C25       1.949  1.900  0.770   12.000    Y    Y      Y    6-31g*
  C26       1.949  1.900  0.770   12.000    Y    Y      Y    6-31g*
  C27       1.949  1.900  0.770   12.000    Y    Y      Y    6-31g*
  C28       1.949  1.900  0.770   12.000    Y    Y      Y    6-31g*
  C29       1.949  1.900  0.770   12.000    Y    Y      Y    6-31g*
  C30       1.949  1.900  0.770   12.000    Y    Y      Y    6-31g*
  C31       1.949  1.900  0.770   12.000    Y    Y      Y    6-31g*
  C32       1.949  1.900  0.770   12.000    Y    Y      Y    6-31g*
  C33       1.949  1.900  0.770   12.000    Y    Y      Y    6-31g*
  C34       1.949  1.900  0.770   12.000    Y    Y      Y    6-31g*
  C35       1.949  1.900  0.770   12.000    Y    Y      Y    6-31g*
  C36       1.949  1.900  0.770   12.000    Y    Y      Y    6-31g*
  C37       1.949  1.900  0.770   12.000    Y    Y      Y    6-31g*
  C38       1.949  1.900  0.770   12.000    Y    Y      Y    6-31g*
  O39       1.702  1.600  0.730   15.995    Y    Y      Y    6-31g*
  C40       1.949  1.900  0.770   12.000    Y    Y      Y    6-31g*
  O41       1.702  1.600  0.730   15.995    Y    Y      Y    6-31g*
  C42       1.949  1.900  0.770   12.000    Y    Y      Y    6-31g*
  H43       1.597  1.150  0.320    1.008    Y    Y      Y    6-31g*
  H44       1.597  1.150  0.320    1.008    Y    Y      Y    6-31g*
  H45       1.597  1.150  0.320    1.008    Y    Y      Y    6-31g*
  H46       1.597  1.150  0.320    1.008    Y    Y      Y    6-31g*
  H47       1.597  1.150  0.320    1.008    Y    Y      Y    6-31g*
  H48       1.597  1.150  0.320    1.008    Y    Y      Y    6-31g*
  H49       1.597  1.150  0.320    1.008    Y    Y      Y    6-31g*
  H50       1.597  1.150  0.320    1.008    Y    Y      Y    6-31g*
  H51       1.597  1.150  0.320    1.008    Y    Y      Y    6-31g*
  H52       1.597  1.150  0.320    1.008    Y    Y      Y    6-31g*
  H53       1.597  1.150  0.320    1.008    Y    Y      Y    6-31g*
  H54       1.597  1.150  0.320    1.008    Y    Y      Y    6-31g*
  H55       1.597  1.150  0.320    1.008    Y    Y      Y    6-31g*
  H56       1.597  1.150  0.320    1.008    Y    Y      Y    6-31g*
  H57       1.597  1.150  0.320    1.008    Y    Y      Y    6-31g*
  H58       1.597  1.150  0.320    1.008    Y    Y      Y    6-31g*
  H59       1.597  1.150  0.320    1.008    Y    Y      Y    6-31g*
  H60       1.597  1.150  0.320    1.008    Y    Y      Y    6-31g*
  H61       1.597  1.150  0.320    1.008    Y    Y      Y    6-31g*
  H62       1.597  1.150  0.320    1.008    Y    Y      Y    6-31g*
  H63       1.597  1.150  0.320    1.008    Y    Y      Y    6-31g*
  H64       1.597  1.150  0.320    1.008    Y    Y      Y    6-31g*
  H65       1.597  1.150  0.320    1.008    Y    Y      Y    6-31g*
  H66       1.597  1.150  0.320    1.008    Y    Y      Y    6-31g*
  H67       1.597  1.150  0.320    1.008    Y    Y      Y    6-31g*
  H68       1.597  1.150  0.320    1.008    Y    Y      Y    6-31g*
  H69       1.597  1.150  0.320    1.008    Y    Y      Y    6-31g*
  H70       1.597  1.150  0.320    1.008    Y    Y      Y    6-31g*
  H71       1.597  1.150  0.320    1.008    Y    Y      Y    6-31g*
  H72       1.597  1.150  0.320    1.008    Y    Y      Y    6-31g*
  H73       1.597  1.150  0.320    1.008    Y    Y      Y    6-31g*
  H74       1.597  1.150  0.320    1.008    Y    Y      Y    6-31g*
  H75       1.597  1.150  0.320    1.008    Y    Y      Y    6-31g*
  H76       1.597  1.150  0.320    1.008    Y    Y      Y    6-31g*
  H77       1.597  1.150  0.320    1.008    Y    Y      Y    6-31g*
 
  atom      formal  2spin      esp    mulk    frag
  P1           0       0        Y    0.000       0
  Pd2          0       0        Y    0.000       0
  
  end of program pre
   
 Time(pre)  user:        2.3  user+sys:        2.3  wallclock:        2.5
  
  start of program onee
  
  smallest eigenvalue of S:    3.233E-04
  number of canonical orbitals.....          623
  end of program onee
   
 Time(onee)  user:        2.9  user+sys:        2.9  wallclock:        2.9
  
  start of program hfig
  
  initial wavefunction generated automatically from atomic wavefunctions
  Only one possible d-orb occupation 
  Skip d-d repulsion considerations 
 
  Irreducible     Total no   No of occupied orbitals 
  representation  orbitals   Shell_1  Shell_2    ...
  No Symm          623        148
  ------------------------
  Orbital occupation/shell    1.000
 
  end of program hfig
   
 Time(hfig)  user:        0.6  user+sys:        0.6  wallclock:        0.7
  
  start of program probe
  
  end of program probe
   
 Time(probe)  user:        0.4  user+sys:        0.4  wallclock:        0.3
  
  start of program grid
  
   grid     grid set  grid #  grid sym
  ------    --------  ------  --------
  coarse        0        0        1
  medium        2        1        1
  fine          0        0        1
  ultrafine     4        2        1
  charge       -1        3        1
  gradient      4        2        1
  density       0        0        1
  DFT-fine    -11        4        1
  DFT-med.    -10        5        1
  DFT-grad    -12        6        1
  DFT-der2     -8        7        1
  DFT-cphf     -9        8        1
  LMP2-enrg     4        2        1
  LMP2-grad     2        1        1
  DFT-cphf2   -15        9        1
  PBF-dens      0        0        1
  plotting      0        0        1
  Rel-grad    -17        0        1
  
  number of gridpoints: 
     atom        P1      Pd2      Br3       C4       C5       C6       C7
  grid # 1      614      372      514       80       92       95       93
  grid # 2      433      340      486      331      324      324      393
  grid # 3       10      306      456       20       21       27       41
  grid # 4     8714     8714     8714     8714     8714     8714     8714
  grid # 5     1192     1192     1192     1192     1192     1192     1192
  grid # 6     9132     9132     9132     5922     5922     5922     5922
  grid # 7    23034    32968    11582    13950    13950    13950    13950
  grid # 8      722     1150      694      748      748      748      748
  grid # 9      366     2198      358      394      394      394      394
   
  number of gridpoints: 
     atom        C8       C9      F10      H11      H12      H13      H14
  grid # 1       95       93      551      115      117      112       71
  grid # 2      322      322      520      467      467      449      321
  grid # 3       31       17       50      347      354      248        6
  grid # 4     8714     8714     8714     8714     8714     8714     8714
  grid # 5     1192     1192     1192     1192     1192     1192     1192
  grid # 6     5922     5922     5922     5922     5922     5922     5922
  grid # 7    13950    13950    23190    15206    15206    15206    15206
  grid # 8      748      748      770      786      786      786      786
  grid # 9      394      394      420      420      420      420      420
   
  number of gridpoints: 
     atom       C15      C16      C17      C18      C19      C20      C21
  grid # 1       82       80       95       92       92       92       92
  grid # 2      331      331      392      278      280      279      277
  grid # 3        6        6       16        6        6        6        6
  grid # 4     8714     8714     8714     8714     8714     8714     8714
  grid # 5     1192     1192     1192     1192     1192     1192     1192
  grid # 6     5922     5922     5922     5922     5922     5922     5922
  grid # 7    13950    13950    13950    13950    13950    13950    13950
  grid # 8      748      748      748      748      748      748      748
  grid # 9      394      394      394      394      394      394      394
   
  number of gridpoints: 
     atom       C22      C23      C24      C25      C26      C27      C28
  grid # 1       91       90       92       92       92       92       93
  grid # 2      281      282      282      282      282      283      322
  grid # 3        6        6        6        6        6        6       10
  grid # 4     8714     8714     8714     8714     8714     8714     8714
  grid # 5     1192     1192     1192     1192     1192     1192     1192
  grid # 6     5922     5922     5922     5922     5922     5922     5922
  grid # 7    13950    13950    13950    13950    13950    13950    13950
  grid # 8      748      748      748      748      748      748      748
  grid # 9      394      394      394      394      394      394      394
   
  number of gridpoints: 
     atom       C29      C30      C31      C32      C33      C34      C35
  grid # 1       95       97       95      100       99       91       88
  grid # 2      325      324      328      360      363      343      304
  grid # 3       28       44       29       16       10       19       32
  grid # 4     8714     8714     8714     8714     8714     8714     8714
  grid # 5     1192     1192     1192     1192     1192     1192     1192
  grid # 6     5922     5922     5922     5922     5922     5922     5922
  grid # 7    13950    13950    13950    13950    13950    13950    13950
  grid # 8      748      748      748      748      748      748      748
  grid # 9      394      394      394      394      394      394      394
   
  number of gridpoints: 
     atom       C36      C37      C38      O39      C40      O41      C42
  grid # 1       84       90       92      118       76      119       76
  grid # 2      267      293      349      457      225      459      228
  grid # 3       18       29       24       63        6       78        6
  grid # 4     8714     8714     8714     8714     8714     8714     8714
  grid # 5     1192     1192     1192     1192     1192     1192     1192
  grid # 6     5922     5922     5922     5922     5922     5922     5922
  grid # 7    13950    13950    13950    23382    13950    23382    13950
  grid # 8      748      748      748      774      748      774      748
  grid # 9      394      394      394      416      394      416      394
   
  number of gridpoints: 
     atom       H43      H44      H45      H46      H47      H48      H49
  grid # 1      101      107      107      108      112      110      112
  grid # 2      429      434      439      445      455      454      459
  grid # 3       63      151      162      183      326      269      331
  grid # 4     8714     8714     8714     8714     8714     8714     8714
  grid # 5     1192     1192     1192     1192     1192     1192     1192
  grid # 6     5922     5922     5922     5922     5922     5922     5922
  grid # 7    15206    15206    15206    15206    15206    15206    15206
  grid # 8      786      786      786      786      786      786      786
  grid # 9      420      420      420      420      420      420      420
   
  number of gridpoints: 
     atom       H50      H51      H52      H53      H54      H55      H56
  grid # 1      110      112      104      104      101      103      105
  grid # 2      447      456      439      433      421      427      440
  grid # 3      226      327      146      119       65      123      153
  grid # 4     8714     8714     8714     8714     8714     8714     8714
  grid # 5     1192     1192     1192     1192     1192     1192     1192
  grid # 6     5922     5922     5922     5922     5922     5922     5922
  grid # 7    15206    15206    15206    15206    15206    15206    15206
  grid # 8      786      786      786      786      786      786      786
  grid # 9      420      420      420      420      420      420      420
   
  number of gridpoints: 
     atom       H57      H58      H59      H60      H61      H62      H63
  grid # 1      112      110      112      110      112      110      110
  grid # 2      458      452      458      456      458      451      443
  grid # 3      325      250      332      268      326      259      186
  grid # 4     8714     8714     8714     8714     8714     8714     8714
  grid # 5     1192     1192     1192     1192     1192     1192     1192
  grid # 6     5922     5922     5922     5922     5922     5922     5922
  grid # 7    15206    15206    15206    15206    15206    15206    15206
  grid # 8      786      786      786      786      786      786      786
  grid # 9      420      420      420      420      420      420      420
   
  number of gridpoints: 
     atom       H64      H65      H66      H67      H68      H69      H70
  grid # 1      107      106      118      118      116      102      109
  grid # 2      435      428      467      469      457      431      446
  grid # 3      157      107      409      428      341      220      345
  grid # 4     8714     8714     8714     8714     8714     8714     8714
  grid # 5     1192     1192     1192     1192     1192     1192     1192
  grid # 6     5922     5922     5922     5922     5922     5922     5922
  grid # 7    15206    15206    15206    15206    15206    15206    15206
  grid # 8      786      786      786      786      786      786      786
  grid # 9      420      420      420      420      420      420      420
   
  number of gridpoints: 
     atom       H71      H72      H73      H74      H75      H76      H77
  grid # 1      102      107      108      111      105      111      110
  grid # 2      424      451      439      448      439      463      448
  grid # 3      145      279      183      324      226      391      319
  grid # 4     8714     8714     8714     8714     8714     8714     8714
  grid # 5     1192     1192     1192     1192     1192     1192     1192
  grid # 6     5922     5922     5922     5922     5922     5922     5922
  grid # 7    15206    15206    15206    15206    15206    15206    15206
  grid # 8      786      786      786      786      786      786      786
  grid # 9      420      420      420      420      420      420      420
   
  number of gridpoints: 
     atom     total
  grid # 1     9403
  grid # 2    29905
  grid # 3    10898
  grid # 4   670978
  grid # 5    91784
  grid # 6   465624
  grid # 7  1176972
  grid # 8    59474
  grid # 9    33162
   
  end of program grid
   
 Time(grid)  user:      193.8  user+sys:      193.8  wallclock:      194.5
  
  start of program rwr
  
  end of program rwr
   
 Time(rwr)  user:        8.0  user+sys:        8.0  wallclock:        9.1
  
  start of program scf
  
 number of electrons..........        296
 number of alpha electrons....        148
 number of beta electrons.....        148
 number of orbitals, total....        623
 number of doubly-occ'd orbs..        148
 number of open shell orbs....          0
 number of occupied orbitals..        148
 number of virtual orbitals...        475
 number of hamiltonians.......          1
 number of shells.............          1
 SCF type: DFT=Becke_3_Parameter/HF+Slater+Becke88+PW91+PW-GGAIIC (B3PW91-D3)
 Energy computed with NOPS off.
 Convergence Criterion:
    Energy (econv):       1.00E-05
    RMS density (dconv):  5.00E-06
  
       i  u  d  i  g                   
       t  p  i  c  r                                 RMS    maximum
       e  d  i  u  i                       energy  density   DIIS  
       r  t  s  t  d       total energy    change  change    error 
  
etot    1  N  N  5  M   -1967.60064487661           3.1E-03  2.0E-01
etot    2  Y  Y  6  M   -1971.26715521264  3.7E+00  6.2E-03  1.5E-01
etot    3  Y  Y  6  M   -1966.25921392630 -5.0E+00  4.7E-03  1.6E-01
etot    4  N  Y  2  U   -1972.79361944662  6.5E+00  2.1E-03  6.0E-02
etot    5  Y  Y  6  M   -1973.26500739066  4.7E-01  1.3E-03  3.6E-02
etot    6  N  Y  2  U   -1973.37413504098  1.1E-01  4.9E-04  7.6E-03
etot    7  Y  Y  6  M   -1973.39482122924  2.1E-02  1.9E-04  4.3E-03
etot    8  N  Y  2  U   -1973.40094500365  6.1E-03  8.0E-05  1.6E-03
etot    9  Y  Y  6  M   -1973.40190202997  9.6E-04  2.5E-05  6.2E-04
etot   10  N  Y  2  U   -1973.40192760485  2.6E-05  1.4E-05  1.9E-04
etot   11  N  Y  2  U   -1973.40194816617  2.1E-05  7.8E-06  1.0E-04
etot   12  N  Y  2  U   -1973.40195354661  5.4E-06  4.5E-06  5.2E-05
etot   13  N  N  2  U   -1973.40195478865  1.2E-06  0.0E+00  0.0E+00
 
  Computing the dispersion energy correction and its gradients...
  
  
 Energy components, in hartrees:
   (A)  Nuclear repulsion............    5272.54233560253
   (E)  Total one-electron terms.....  -13251.45460438826
   (F)    Electron-nuclear...........  -15126.26766640009
   (H)    Kinetic....................    1874.81306201184
   (I)  Total two-electron terms.....    6005.51031399708
   (J)    Coulomb....................    6259.81503728801
   (K)    Exchange+Correlation.......    -254.30472329094
   (L)  Electronic energy............   -7245.94429039118  (E+I)
   (N0) D3 correction................      -0.13518194760
   (N)  Total energy.................   -1973.53713673625  (A+L+N0)
   (O)  Gas phase energy.............   -1973.53713673625
  
 SCFE: SCF energy: DFT(b3pw91-d3)     -1973.53713673625 hartrees   iterations:  13
  
 
 HOMO energy:    -0.13333
 LUMO energy:    -0.04371
 
  Orbital energies (hartrees): 
   -77.05637   -24.69693   -19.16618   -19.16549   -10.26933   -10.23260
   -10.23238   -10.22547   -10.22286   -10.22173   -10.21718   -10.19198
   -10.18866   -10.18627   -10.18334   -10.17991   -10.17844   -10.17771
   -10.17419   -10.17298   -10.17241   -10.17036   -10.16992   -10.16608
   -10.16472   -10.16294   -10.16156   -10.16145   -10.16093   -10.16069
   -10.16054   -10.16024   -10.16009   -10.15953   -10.15948   -10.15758
    -6.55585    -4.71399    -4.71357    -4.71038    -3.27052    -2.00942
    -1.98926    -1.98271    -1.24600    -1.06407    -1.06182    -1.02124
    -0.87272    -0.85284    -0.83022    -0.82398    -0.81752    -0.79392
    -0.76571    -0.75962    -0.75620    -0.74067    -0.73905    -0.73450
    -0.73162    -0.73025    -0.72394    -0.71603    -0.69750    -0.65934
    -0.63960    -0.63425    -0.61792    -0.60796    -0.60064    -0.60004
    -0.59760    -0.59386    -0.58160    -0.55685    -0.55359    -0.55146
    -0.54788    -0.53803    -0.53204    -0.51183    -0.50593    -0.49489
    -0.48733    -0.48149    -0.47983    -0.47083    -0.46853    -0.46562
    -0.46245    -0.45716    -0.45129    -0.44763    -0.44421    -0.44368
    -0.43869    -0.43422    -0.43368    -0.42855    -0.42416    -0.42147
    -0.41528    -0.41374    -0.41288    -0.39836    -0.39613    -0.39374
    -0.38245    -0.37895    -0.37389    -0.37279    -0.36949    -0.36511
    -0.36352    -0.36154    -0.35476    -0.35308    -0.34664    -0.34415
    -0.34098    -0.33962    -0.33547    -0.33491    -0.33193    -0.32868
    -0.32493    -0.31681    -0.31564    -0.31196    -0.30548    -0.30032
    -0.29331    -0.28685    -0.28156    -0.27910    -0.26655    -0.25860
    -0.24735    -0.24132    -0.23612    -0.21994    -0.21285    -0.20218
    -0.19957    -0.18452    -0.17815    -0.13333    -0.04371    -0.02683
    -0.01762    -0.00558     0.00159     0.01026     0.02365     0.03486
     0.03584     0.05104
 
FATAL MAE_GET_COORDS(): TOO MANY ATOMS IN CT BLOCK
  end of program scf
   
 Time(scf)  user:      319.8  user+sys:      319.8  wallclock:      326.0
  
  start of program der1a
  
  end of program der1a
   
 Time(der1a)  user:       10.1  user+sys:       10.1  wallclock:       10.2
  
  start of program rwr
  
  end of program rwr
   
 Time(rwr)  user:       10.2  user+sys:       10.2  wallclock:       12.9
  
  start of program der1b
  
   
  forces (hartrees/bohr) : total     
   
 atom  label           x              y              z
 ---- --------   -------------  -------------  -------------
    1 P1         -2.452350E-03   1.198886E-03  -4.939124E-03
    2 Pd2        -4.203465E-03  -1.385801E-03  -1.276987E-02
    3 Br3         1.942813E-03  -6.800522E-04   1.914582E-03
    4 C4          2.222448E-02  -1.635991E-02   1.788044E-03
    5 C5          1.442008E-03   1.111731E-03   2.130654E-03
    6 C6         -5.276686E-03  -2.161525E-03   4.785572E-04
    7 C7          2.324153E-03   7.624004E-03  -8.668493E-03
    8 C8         -1.950101E-03  -6.908474E-03   3.571409E-03
    9 C9          1.969578E-02  -1.929650E-01   1.007131E-01
   10 F10        -1.073807E-02  -1.086259E-01   4.868604E-02
   11 H11        -3.299557E-04  -1.424386E-04  -7.662812E-04
   12 H12         1.952745E-04   9.587254E-04  -8.523589E-04
   13 H13         2.323757E-03   1.069402E-03   3.417342E-03
   14 H14         2.803901E-01  -3.061350E-01   9.264660E-02
   15 C15         1.548309E-04   9.606231E-05   7.858294E-04
   16 C16         4.190738E-03   3.441824E-04  -5.088750E-03
   17 C17        -3.583072E-04   1.258401E-03  -3.657277E-03
   18 C18         1.564321E-03   1.000206E-04  -6.923667E-04
   19 C19         1.274215E-06   9.367531E-04   3.500458E-05
   20 C20        -3.400426E-04  -5.896529E-04  -1.414049E-03
   21 C21         6.169744E-04  -9.139210E-04   6.027455E-04
   22 C22         3.561074E-05   2.121190E-03  -1.480415E-03
   23 C23         4.625146E-04   1.438841E-03  -2.690342E-03
   24 C24         5.268525E-04  -1.137619E-03   7.933467E-06
   25 C25         2.622907E-05   1.930164E-04   1.334064E-04
   26 C26        -1.223301E-03  -6.423697E-04  -5.665148E-06
   27 C27         3.659072E-03   1.878303E-03   4.419707E-05
   28 C28        -7.633309E-04   3.608852E-03   6.252949E-04
   29 C29         1.008281E-03  -7.368845E-04   3.778718E-03
   30 C30         1.877539E-03  -3.315021E-03   3.113150E-03
   31 C31         4.778613E-04  -3.191199E-03  -1.137768E-03
   32 C32        -3.874601E-04   5.766492E-04  -2.993037E-03
   33 C33        -1.937448E-02  -1.043225E-02  -1.736500E-03
   34 C34         9.956046E-03   1.724164E-02  -2.852226E-02
   35 C35        -7.104183E-03   9.826696E-02  -3.039011E-02
   36 C36        -3.485414E-01   3.351031E-01  -2.974052E-02
   37 C37         5.201446E-02   1.114614E-01  -1.827590E-01
   38 C38         1.345252E-02   2.139061E-02   2.027817E-02
   39 O39         6.265242E-04  -3.237114E-03   1.599701E-02
   40 C40        -4.957800E-03  -1.078432E-03  -3.921166E-03
   41 O41         1.117048E-02  -2.900205E-04   1.579115E-02
   42 C42        -2.070679E-03   3.085234E-04  -2.438532E-03
   43 H43        -2.193130E-03  -1.623712E-03  -4.740282E-03
   44 H44         2.519698E-03   3.897621E-03   4.880478E-03
   45 H45         2.808575E-03  -5.226047E-03   1.718995E-03
   46 H46        -2.419807E-03  -4.210177E-03  -2.756813E-03
   47 H47        -6.024079E-04  -1.824206E-03   6.521864E-03
   48 H48         1.854838E-03   4.432814E-03   4.202899E-03
   49 H49        -6.480856E-03  -8.284831E-04   1.995138E-03
   50 H50        -1.519297E-03  -3.106866E-03  -3.955015E-03
   51 H51        -3.030068E-03   5.456647E-03  -1.013264E-03
   52 H52        -6.172809E-04  -5.703673E-04  -3.901692E-03
   53 H53         2.346838E-03   4.751975E-03   4.438182E-03
   54 H54        -4.396574E-03  -2.778626E-04   5.785102E-03
   55 H55        -6.087705E-03   5.761263E-04  -8.713130E-04
   56 H56         1.848232E-03  -1.500179E-03  -3.359530E-03
   57 H57        -1.152524E-03   4.632974E-03  -3.775577E-03
   58 H58        -3.094253E-03   2.056935E-03   5.911783E-03
   59 H59         2.238017E-03   5.814528E-03   3.292623E-03
   60 H60         2.639295E-03  -4.972514E-04  -4.460027E-03
   61 H61         6.291171E-03  -5.763393E-04   1.239397E-03
   62 H62        -2.379643E-03   1.815976E-03   6.682393E-03
   63 H63         2.727293E-04  -1.142822E-03  -3.364771E-03
   64 H64         1.346623E-03  -4.861632E-03   4.492281E-03
   65 H65        -1.226417E-03   5.442976E-03   2.401277E-03
   66 H66         1.411564E-03   1.211653E-03   6.397150E-03
   67 H67         2.965565E-03  -4.766661E-03   3.493799E-03
   68 H68         1.402248E-03  -5.534566E-03  -2.568542E-03
   69 H69         9.287428E-03   1.490547E-02  -6.526245E-03
   70 H70        -1.339949E-02   3.195844E-02  -7.046586E-03
   71 H71        -9.359615E-03   1.409885E-03  -8.831222E-04
   72 H72        -3.361751E-03   1.096055E-04   6.079843E-03
   73 H73        -1.762840E-04   4.135230E-03  -3.645104E-03
   74 H74        -1.268240E-03  -6.595686E-03  -1.357711E-03
   75 H75        -4.815372E-03   5.951199E-03  -3.693245E-03
   76 H76         4.944510E-03   2.300050E-03   3.339701E-03
   77 H77         1.732385E-03  -6.915967E-03  -3.683278E-03
 -------------   -------------  -------------  -------------
     total        6.178747E-04  -1.840080E-03   1.145776E-03
   
  end of program der1b
   
 Time(der1b)  user:       97.6  user+sys:       97.6  wallclock:       98.4
  
  start of program geopt
  
 ----------------------------------------------------------------------------
  Geometry optimization step   1
  Total energy:     -1973.53713673625 hartrees
 ----------------------------------------------------------------------------
  
  
  Level shifts adjusted to satisfy step-size constraints
   Step size:    0.3000039
   Cos(theta):   0.9360033
   Final level shift:  -1.7246410E+00
  
  gradient maximum:        6.5630E-01 .  (  2.2500E-03 )
  gradient rms:            5.9019E-02 .  (  1.5000E-03 )
  displacement maximum:    2.2502E-01 .  (  9.0000E-03 )
  displacement rms:        1.7926E-02 .  (  6.0000E-03 )
  
  predicted energy change:  -2.1623E-01
  step size:     0.29995
  trust radius:  0.30000
  
  molecular structure not yet converged...
  
  center of mass moved by:
     x:     1.1782E-02     y:    -6.4327E-02     z:     1.2960E-02
  
  new geometry: 
                                   angstroms
  atom               x                 y                 z
  P1           -0.0071242097      0.0287938730      0.0232859361 
  Pd2           0.0102631522     -0.0441851318      2.3550980287 
  Br3           3.8779355866     -0.0985111436      5.4302071193 
  C4           -0.4524850616      1.2578003049      4.0763987121 
  C5           -0.2493431323     -0.0942834768      4.4752501777 
  C6            1.0627889748     -0.4842036531      4.8668803217 
  C7            2.0708815328      0.4647806417      4.9153876903 
  C8            1.8573048407      1.8084574205      4.5786612381 
  C9            0.5977534238      2.2041275662      4.1550721976 
  F10          -1.7384414544      1.7036131621      4.0180232507 
  H11          -1.1014020377     -0.7370244053      4.6932674123 
  H12           1.2454882707     -1.5103023674      5.1697321174 
  H13           2.6724870122      2.5252332510      4.6283153655 
  H14           0.4241624876      3.2778143132      3.8228377990 
  C15           1.7513059097      0.0623525053     -0.7189638192 
  C16          -0.8265409137     -1.5236879355     -0.7369257117 
  C17          -0.8066972714      1.4399127926     -0.9196382282 
  C18           1.9017167827      0.4983366185     -2.1906652627 
  C19           3.3926104317      0.6364031707     -2.5699958237 
  C20           4.1800581560     -0.6565737239     -2.2959052776 
  C21           4.0005000591     -1.1107642151     -0.8369788023 
  C22           2.5110241817     -1.2597600377     -0.4670421202 
  C23          -0.5657729529     -2.7569042611      0.1658156000 
  C24          -1.0911322889     -4.0475347781     -0.4959400211 
  C25          -2.5908389712     -3.9426995734     -0.8287269532 
  C26          -2.8781342324     -2.6934799779     -1.6799225270 
  C27          -2.3476544203     -1.4121073763     -1.0046996661 
  C28          -1.1238543944      1.2158225758     -2.2808102457 
  C29          -1.7225863764      2.1916144571     -3.0830545683 
  C30          -2.0256448046      3.4431742300     -2.5345772936 
  C31          -1.7041787196      3.6926381857     -1.1998678532 
  C32          -1.0914226134      2.7212623737     -0.3781257215 
  C33          -0.7740902640      3.1395819354      1.0186293235 
  C34          -1.8073217576      3.2816798006      1.9659641758 
  C35          -1.5356220438      3.6990213074      3.2805476856 
  C36          -0.2201099835      3.9826786033      3.6633446780 
  C37           0.8309291896      3.9252810387      2.6954694323 
  C38           0.5408075647      3.5007897079      1.3945841428 
  O39           1.4843086232      3.3894403428      0.4014723151 
  C40           2.8381521382      3.6492364471      0.7679295391 
  O41          -3.0638154636      2.9917575335      1.5052563586 
  C42          -4.0906302815      2.7807095228      2.4737962087 
  H43           2.2272371194      0.8215721214     -0.0707861384 
  H44           1.4285471936     -0.2490990869     -2.8604971997 
  H45           1.3915932917      1.4584258352     -2.3680538005 
  H46           3.8342584129      1.4617438519     -1.9767013202 
  H47           3.4823725305      0.9302285229     -3.6334201111 
  H48           3.8139428873     -1.4537546183     -2.9748620569 
  H49           5.2519428443     -0.5120481785     -2.5308118768 
  H50           4.4592943499     -0.3698536701     -0.1542700409 
  H51           4.5259899453     -2.0686677054     -0.6637238334 
  H52           2.4234310526     -1.5418195601      0.5952265643 
  H53           2.0678357151     -2.0690140974     -1.0810052145 
  H54          -0.3214910777     -1.6763399350     -1.7157998161 
  H55           0.5045483241     -2.8612926377      0.4034555069 
  H56          -1.0828259706     -2.5877979063      1.1281772519 
  H57          -0.9036530623     -4.9086410169      0.1724027916 
  H58          -0.5219580492     -4.2425562504     -1.4286822230 
  H59          -2.9390765738     -4.8550779416     -1.3500320487 
  H60          -3.1644034768     -3.8732779965      0.1156624552 
  H61          -3.9648324270     -2.5941314714     -1.8636908074 
  H62          -2.4011477655     -2.8123317390     -2.6755472753 
  H63          -2.8540787956     -1.2486509655     -0.0369794818 
  H64          -2.5862824766     -0.5397183837     -1.6330273396 
  H65          -0.8878029371      0.2489816969     -2.7337790911 
  H66          -1.9497094733      1.9698096572     -4.1316220734 
  H67          -2.5009517234      4.2199845387     -3.1432159288 
  H68          -1.9251883121      4.6690721287     -0.7577633747 
  H69          -2.3278836371      3.7587367916      4.0256245103 
  H70          -0.0330378139      4.3151509603      4.6900245917 
  H71           1.8583356608      4.1225068322      3.0002975237 
  H72           3.4273667580      3.4833657906     -0.1466375616 
  H73           3.1692130384      2.9517751100      1.5577910845 
  H74           2.9720313867      4.6978485802      1.0997812773 
  H75          -3.7993478520      1.9887606399      3.1839360051 
  H76          -4.9699924278      2.4517630893      1.9004465458 
  H77          -4.3423912826      3.7143662764      3.0153966332 
   
 
  bond lengths (angstroms):
 
 P1      -Pd2     :   2.333019      P1      -C15     :   1.908962
 P1      -C16     :   1.912999      P1      -C17     :   1.876081
 Pd2     -C4      :   2.207301      Pd2     -C5      :   2.136574
 Br3     -C7      :   1.961576      C4      -C5      :   1.424247
 C4      -C9      :   1.415883      C4      -F10     :   1.362292
 C5      -C6      :   1.423764      C5      -H11     :   1.089335
 C6      -C7      :   1.385343      C6      -H12     :   1.085346
 C7      -C8      :   1.401594      C8      -C9      :   1.386525
 C8      -H13     :   1.086626      C9      -H14     :   1.137241
 H14     -C36     :   0.968173      C15     -C18     :   1.542275
 C15     -C22     :   1.545515      C15     -H43     :   1.105920
 C16     -C23     :   1.550408      C16     -C27     :   1.548528
 C16     -H54     :   1.112013      C17     -C28     :   1.415484
 C17     -C32     :   1.419916      C18     -C19     :   1.544577
 C18     -H44     :   1.109606      C18     -H45     :   1.101573
 C19     -C20     :   1.538502      C19     -H46     :   1.108259
 C19     -H47     :   1.106915      C20     -C21     :   1.538505
 C20     -H48     :   1.109288      C20     -H49     :   1.106800
 C21     -C22     :   1.541944      C21     -H50     :   1.107037
 C21     -H51     :   1.106226      C22     -H52     :   1.102563
 C22     -H53     :   1.108268      C23     -C24     :   1.542611
 C23     -H55     :   1.101343      C23     -H56     :   1.105478
 C24     -C25     :   1.539759      C24     -H57     :   1.106045
 C24     -H58     :   1.109955      C25     -C26     :   1.538708
 C25     -H59     :   1.107006      C25     -H60     :   1.107098
 C26     -C27     :   1.542482      C26     -H61     :   1.106596
 C26     -H62     :   1.110365      C27     -H63     :   1.104385
 C27     -H64     :   1.101273      C28     -C29     :   1.397943
 C28     -H65     :   1.093473      C29     -C30     :   1.399669
 C29     -H66     :   1.095571      C30     -C31     :   1.395357
 C30     -H67     :   1.095350      C31     -C32     :   1.412197
 C31     -H68     :   1.094406      C32     -C33     :   1.492185
 C33     -C34     :   1.408972      C33     -C38     :   1.414486
 C34     -C35     :   1.405747      C34     -O41     :   1.369337
 C35     -C36     :   1.399131      C35     -H69     :   1.089212
 C36     -C37     :   1.429951      C36     -H70     :   1.095265
 C37     -C38     :   1.398809      C37     -H71     :   1.089671
 C38     -O39     :   1.374359      O39     -C40     :   1.426421
 C40     -H72     :   1.100509      C40     -H73     :   1.104507
 C40     -H74     :   1.107988      O41     -C42     :   1.427221
 C42     -H75     :   1.102872      C42     -H76     :   1.100097
 C42     -H77     :   1.108345
 
  bond angles:
 
 C15     -P1      -Pd2     : 112.476685  C16     -P1      -Pd2     : 112.023915
 C16     -P1      -C15     : 104.733012  C17     -P1      -Pd2     : 121.941147
 C17     -P1      -C15     : 100.599275  C17     -P1      -C16     : 103.186771
 C4      -Pd2     -P1      : 139.411731  C5      -Pd2     -P1      : 172.581031
 C5      -Pd2     -C4      :  38.235865  C5      -C4      -Pd2     :  68.192757
 C9      -C4      -Pd2     : 106.383426  C9      -C4      -C5      : 120.873399
 F10     -C4      -Pd2     : 110.947464  F10     -C4      -C5      : 117.213647
 F10     -C4      -C9      : 118.937017  C4      -C5      -Pd2     :  73.571378
 C6      -C5      -Pd2     :  99.636401  C6      -C5      -C4      : 117.934924
 H11     -C5      -Pd2     : 107.907082  H11     -C5      -C4      : 120.306041
 H11     -C5      -C6      : 120.279202  C7      -C6      -C5      : 119.515451
 H12     -C6      -C5      : 119.393446  H12     -C6      -C7      : 121.021514
 C6      -C7      -Br3     : 118.871028  C8      -C7      -Br3     : 118.602281
 C8      -C7      -C6      : 122.507723  C9      -C8      -C7      : 119.038583
 H13     -C8      -C7      : 120.469708  H13     -C8      -C9      : 120.478621
 C8      -C9      -C4      : 120.004790  H14     -C9      -C4      : 120.103140
 H14     -C9      -C8      : 119.823798  C36     -H14     -C9      : 146.830102
 C18     -C15     -P1      : 117.764335  C22     -C15     -P1      : 111.986198
 C22     -C15     -C18     : 110.452434  H43     -C15     -P1      : 100.404295
 H43     -C15     -C18     : 108.859069  H43     -C15     -C22     : 106.271710
 C23     -C16     -P1      : 110.003834  C27     -C16     -P1      : 115.531006
 C27     -C16     -C23     : 108.857478  H54     -C16     -P1      : 105.466574
 H54     -C16     -C23     : 109.084832  H54     -C16     -C27     : 107.686530
 C28     -C17     -P1      : 117.369996  C32     -C17     -P1      : 124.927904
 C32     -C17     -C28     : 117.688919  C19     -C18     -C15     : 110.717191
 H44     -C18     -C15     : 110.122899  H44     -C18     -C19     : 108.878834
 H45     -C18     -C15     : 110.786188  H45     -C18     -C19     : 109.240645
 H45     -C18     -H44     : 107.001966  C20     -C19     -C18     : 112.034390
 H46     -C19     -C18     : 108.647877  H46     -C19     -C20     : 109.058378
 H47     -C19     -C18     : 109.751456  H47     -C19     -C20     : 110.654554
 H47     -C19     -H46     : 106.517483  C21     -C20     -C19     : 110.934904
 H48     -C20     -C19     : 109.025421  H48     -C20     -C21     : 109.252568
 H49     -C20     -C19     : 110.372936  H49     -C20     -C21     : 110.661027
 H49     -C20     -H48     : 106.473346  C22     -C21     -C20     : 111.639824
 H50     -C21     -C20     : 109.806962  H50     -C21     -C22     : 108.484455
 H51     -C21     -C20     : 110.408419  H51     -C21     -C22     : 109.731797
 H51     -C21     -H50     : 106.623571  C21     -C22     -C15     : 110.675134
 H52     -C22     -C15     : 109.684184  H52     -C22     -C21     : 109.427222
 H53     -C22     -C15     : 109.741352  H53     -C22     -C21     : 108.900993
 H53     -C22     -H52     : 108.370991  C24     -C23     -C16     : 111.003472
 H55     -C23     -C16     : 111.375774  H55     -C23     -C24     : 110.135093
 H56     -C23     -C16     : 107.850717  H56     -C23     -C24     : 110.007466
 H56     -C23     -H55     : 106.332137  C25     -C24     -C23     : 111.558943
 H57     -C24     -C23     : 109.537630  H57     -C24     -C25     : 110.407933
 H58     -C24     -C23     : 109.442255  H58     -C24     -C25     : 109.256137
 H58     -C24     -H57     : 106.503637  C26     -C25     -C24     : 110.897149
 H59     -C25     -C24     : 110.613155  H59     -C25     -C26     : 110.480335
 H60     -C25     -C24     : 108.935718  H60     -C25     -C26     : 108.919954
 H60     -C25     -H59     : 106.882540  C27     -C26     -C25     : 111.596032
 H61     -C26     -C25     : 110.371673  H61     -C26     -C27     : 109.623875
 H62     -C26     -C25     : 109.203046  H62     -C26     -C27     : 109.493374
 H62     -C26     -H61     : 106.412823  C26     -C27     -C16     : 110.711516
 H63     -C27     -C16     : 108.034009  H63     -C27     -C26     : 110.415688
 H64     -C27     -C16     : 111.628547  H64     -C27     -C26     : 109.498974
 H64     -C27     -H63     : 106.459374  C29     -C28     -C17     : 122.500993
 H65     -C28     -C17     : 119.338214  H65     -C28     -C29     : 118.158677
 C30     -C29     -C28     : 119.472929  H66     -C29     -C28     : 119.783584
 H66     -C29     -C30     : 120.743482  C31     -C30     -C29     : 119.000067
 H67     -C30     -C29     : 120.687759  H67     -C30     -C31     : 120.310515
 C32     -C31     -C30     : 122.248146  H68     -C31     -C30     : 119.959942
 H68     -C31     -C32     : 117.791817  C31     -C32     -C17     : 119.065839
 C33     -C32     -C17     : 124.563447  C33     -C32     -C31     : 116.366997
 C34     -C33     -C32     : 120.111327  C38     -C33     -C32     : 121.202874
 C38     -C33     -C34     : 118.504857  C35     -C34     -C33     : 121.128700
 O41     -C34     -C33     : 115.171338  O41     -C34     -C35     : 123.699347
 C36     -C35     -C34     : 119.852538  H69     -C35     -C34     : 121.022965
 H69     -C35     -C36     : 119.053825  C35     -C36     -H14     : 121.543912
 C37     -C36     -H14     :  65.993603  C37     -C36     -C35     : 119.852274
 H70     -C36     -H14     :  87.301407  H70     -C36     -C35     : 118.593926
 H70     -C36     -C37     : 121.407221  C38     -C37     -C36     : 119.288624
 H71     -C37     -C36     : 119.762538  H71     -C37     -C38     : 120.706533
 C37     -C38     -C33     : 121.163390  O39     -C38     -C33     : 115.177271
 O39     -C38     -C37     : 123.656727  C40     -O39     -C38     : 116.819136
 H72     -C40     -O39     : 105.498266  H73     -C40     -O39     : 110.682924
 H73     -C40     -H72     : 109.794217  H74     -C40     -O39     : 111.346055
 H74     -C40     -H72     : 109.078013  H74     -C40     -H73     : 110.317697
 C42     -O41     -C34     : 117.590714  H75     -C42     -O41     : 110.679008
 H76     -C42     -O41     : 105.404121  H76     -C42     -H75     : 109.389610
 H77     -C42     -O41     : 111.744520  H77     -C42     -H75     : 110.502468
 H77     -C42     -H76     : 108.965176
 
  torsional angles:
 
 P1      -Pd2     -C4      -C5      : 168.902988
 P1      -Pd2     -C4      -C9      : -73.809849
 P1      -Pd2     -C4      -F10     :  56.925319
 P1      -Pd2     -C5      -C4      : -75.884423
 P1      -Pd2     -C5      -C6      : 167.670832
 P1      -Pd2     -C5      -H11     :  41.348197
 P1      -C15     -C18     -C19     : 172.951836
 P1      -C15     -C18     -H44     : -66.583692
 P1      -C15     -C18     -H45     :  51.591991
 P1      -C15     -C22     -C21     :-169.346414
 P1      -C15     -C22     -H52     : -48.511254
 P1      -C15     -C22     -H53     :  70.436468
 P1      -C16     -C23     -C24     :-174.184777
 P1      -C16     -C23     -H55     : -51.074813
 P1      -C16     -C23     -H56     :  65.239857
 P1      -C16     -C27     -C26     : 177.173677
 P1      -C16     -C27     -H63     : -61.808996
 P1      -C16     -C27     -H64     :  54.911260
 P1      -C17     -C28     -C29     : 179.926575
 P1      -C17     -C28     -H65     :  -0.612650
 P1      -C17     -C32     -C31     :-179.671502
 P1      -C17     -C32     -C33     :   1.056669
 Pd2     -P1      -C15     -C18     :-163.448244
 Pd2     -P1      -C15     -C22     :  66.878043
 Pd2     -P1      -C15     -H43     : -45.539417
 Pd2     -P1      -C16     -C23     : -32.291884
 Pd2     -P1      -C16     -C27     :  91.423792
 Pd2     -P1      -C16     -H54     :-149.792937
 Pd2     -P1      -C17     -C28     :-161.493926
 Pd2     -P1      -C17     -C32     :  19.861410
 Pd2     -C4      -C5      -C6      :  92.360530
 Pd2     -C4      -C5      -H11     :-101.476148
 Pd2     -C4      -C9      -C8      : -71.648156
 Pd2     -C4      -C9      -H14     : 105.342103
 Pd2     -C5      -C4      -C9      : -96.588971
 Pd2     -C5      -C4      -F10     : 103.134865
 Pd2     -C5      -C6      -C7      :  79.781377
 Pd2     -C5      -C6      -H12     :-103.220597
 Br3     -C7      -C6      -C5      :-179.049811
 Br3     -C7      -C6      -H12     :   4.002289
 Br3     -C7      -C8      -C9      : 177.102519
 Br3     -C7      -C8      -H13     :  -1.587832
 C4      -Pd2     -P1      -C15     : 108.989980
 C4      -Pd2     -P1      -C16     :-133.348421
 C4      -Pd2     -P1      -C17     : -10.516261
 C4      -Pd2     -C5      -C6      :-116.444745
 C4      -Pd2     -C5      -H11     : 117.232620
 C4      -C5      -C6      -C7      :   3.353575
 C4      -C5      -C6      -H12     :-179.648399
 C4      -C9      -C8      -C7      :   0.428678
 C4      -C9      -C8      -H13     : 179.118910
 C4      -C9      -H14     -C36     :  22.909982
 C5      -Pd2     -P1      -C15     : 176.288243
 C5      -Pd2     -P1      -C16     : -66.050158
 C5      -Pd2     -P1      -C17     :  56.782002
 C5      -Pd2     -C4      -C9      : 117.287163
 C5      -Pd2     -C4      -F10     :-111.977669
 C5      -C4      -C9      -C8      :   2.368355
 C5      -C4      -C9      -H14     : 179.358614
 C5      -C6      -C7      -C8      :  -0.657253
 C6      -C5      -C4      -C9      :  -4.228442
 C6      -C5      -C4      -F10     :-164.504606
 C6      -C7      -C8      -C9      :  -1.294169
 C6      -C7      -C8      -H13     :-179.984520
 C7      -C6      -C5      -H11     :-162.813608
 C7      -C8      -C9      -H14     :-176.570037
 C8      -C7      -C6      -H12     :-177.605153
 C8      -C9      -C4      -F10     : 162.311913
 C8      -C9      -H14     -C36     :-160.094289
 C9      -C4      -C5      -H11     : 161.934880
 C9      -H14     -C36     -C35     : -29.491094
 C9      -H14     -C36     -C37     :-140.959319
 C9      -H14     -C36     -H70     :  92.735413
 F10     -C4      -C5      -H11     :   1.658717
 F10     -C4      -C9      -H14     : -20.697828
 H11     -C5      -C6      -H12     :  14.184418
 H13     -C8      -C9      -H14     :   2.120195
 H14     -C36     -C35     -C34     : -74.793463
 H14     -C36     -C35     -H69     : 102.181234
 H14     -C36     -C37     -C38     : 109.756977
 H14     -C36     -C37     -H71     : -64.629023
 C15     -P1      -C16     -C23     :  89.902439
 C15     -P1      -C16     -C27     :-146.381884
 C15     -P1      -C16     -H54     : -27.598614
 C15     -P1      -C17     -C28     :  73.406026
 C15     -P1      -C17     -C32     :-105.238638
 C15     -C18     -C19     -C20     :  55.556761
 C15     -C18     -C19     -H46     : -64.997904
 C15     -C18     -C19     -H47     : 178.898825
 C15     -C22     -C21     -C20     : -56.504062
 C15     -C22     -C21     -H50     :  64.627194
 C15     -C22     -C21     -H51     :-179.245651
 C16     -P1      -C15     -C18     :  74.653339
 C16     -P1      -C15     -C22     : -55.020373
 C16     -P1      -C15     -H43     :-167.437833
 C16     -P1      -C17     -C28     : -34.628051
 C16     -P1      -C17     -C32     : 146.727286
 C16     -C23     -C24     -C25     : -56.791823
 C16     -C23     -C24     -H57     :-179.342332
 C16     -C23     -C24     -H58     :  64.239493
 C16     -C27     -C26     -C25     :  57.465801
 C16     -C27     -C26     -H61     :-179.944628
 C16     -C27     -C26     -H62     : -63.557376
 C17     -P1      -C15     -C18     : -32.155797
 C17     -P1      -C15     -C22     :-161.829509
 C17     -P1      -C15     -H43     :  85.753031
 C17     -P1      -C16     -C23     :-165.208046
 C17     -P1      -C16     -C27     : -41.492369
 C17     -P1      -C16     -H54     :  77.290901
 C17     -C28     -C29     -C30     :   0.033996
 C17     -C28     -C29     -H66     :-179.940973
 C17     -C32     -C31     -C30     :  -0.833374
 C17     -C32     -C31     -H68     : 179.278883
 C17     -C32     -C33     -C34     :-107.133376
 C17     -C32     -C33     -C38     :  77.828482
 C18     -C15     -C22     -C21     :  57.280774
 C18     -C15     -C22     -H52     : 178.115934
[...]
    H70      X     0.00127 -0.00053  0.00039 -0.00042 -0.00042  0.04301
    H70      Y     0.00126 -0.00057  0.00041 -0.00043 -0.00085  0.04594
    H70      Z     0.00382 -0.00160  0.00119 -0.00128 -0.00093  0.14097
    H71      X    -0.00060  0.00086  0.00070 -0.00374  0.01116  0.86631
    H71      Y    -0.00022  0.00031  0.00023 -0.00131  0.00389  0.30510
    H71      Z    -0.00019  0.00014  0.00003 -0.00046  0.00177  0.13312
    H72      X     0.00008 -0.00006 -0.00007  0.00058 -0.00005 -0.00592
    H72      Y     0.00000  0.00002  0.00009 -0.00018  0.00003  0.00297
    H72      Z    -0.00020  0.00014  0.00009 -0.00128  0.00017  0.01919
    H73      X     0.00040  0.00000  0.00043 -0.00004 -0.00010  0.00685
    H73      Y    -0.00043  0.00000 -0.00051  0.00014  0.00006 -0.01027
    H73      Z     0.00050 -0.00001  0.00061 -0.00009 -0.00008  0.01172
    H74      X    -0.00002 -0.00001 -0.00004  0.00010 -0.00000  0.00006
    H74      Y    -0.00025 -0.00003 -0.00056  0.00038  0.00037  0.01655
    H74      Z    -0.00011 -0.00001 -0.00023  0.00018  0.00011  0.00592
    H75      X     0.00016  0.00014  0.00023 -0.00007 -0.00002 -0.00140
    H75      Y    -0.00034 -0.00016 -0.00038  0.00012 -0.00008  0.00217
    H75      Z     0.00039  0.00017  0.00042 -0.00007  0.00003 -0.00207
    H76      X    -0.00025  0.00040 -0.00000 -0.00109  0.00004 -0.00329
    H76      Y    -0.00010  0.00018  0.00006 -0.00053 -0.00000 -0.00160
    H76      Z    -0.00012  0.00020  0.00000 -0.00054  0.00002 -0.00213
    H77      X     0.00004 -0.00002  0.00008 -0.00012  0.00001  0.00069
    H77      Y    -0.00022  0.00006 -0.00043  0.00042 -0.00011 -0.00370
    H77      Z    -0.00013  0.00005 -0.00026  0.00031 -0.00004 -0.00182
  
  vibration #          223      224      225
                  -------- -------- --------
  frequencies      3232.78  3241.99  3246.29
  intensities         0.92     2.02     2.02
  reduc. mass         0.84     0.85     0.73
  force const         5.15     5.24     4.53
    P1       X     0.00001  0.00000 -0.00000
    P1       Y    -0.00001 -0.00000  0.00001
    P1       Z    -0.00001  0.00002  0.00001
    Pd2      X    -0.00001  0.00000  0.00001
    Pd2      Y     0.00000 -0.00001 -0.00001
    Pd2      Z    -0.00000 -0.00001  0.00001
    Br3      X    -0.00007  0.00000  0.00003
    Br3      Y     0.00003 -0.00000 -0.00002
    Br3      Z     0.00001 -0.00000 -0.00001
    C4       X    -0.00006 -0.00001  0.00328
    C4       Y     0.00141  0.00007  0.00039
    C4       Z     0.00038  0.00009  0.00029
    C5       X    -0.01851  0.00010  0.00060
    C5       Y    -0.00772  0.00005  0.00067
    C5       Z    -0.00050  0.00003  0.00032
    C6       X    -0.00407 -0.00000  0.00020
    C6       Y    -0.07800  0.00026  0.00363
    C6       Z    -0.02391  0.00007  0.00103
    C7       X     0.00413 -0.00001 -0.00025
    C7       Y     0.00096  0.00007  0.00189
    C7       Z     0.00061  0.00002  0.00058
    C8       X    -0.00197 -0.00093 -0.02848
    C8       Y     0.00001 -0.00043 -0.01093
    C8       Z    -0.00005 -0.00017 -0.00440
    C9       X     0.00038 -0.00001 -0.00087
    C9       Y    -0.00310 -0.00149 -0.07412
    C9       Z    -0.00102 -0.00054 -0.02611
    F10      X     0.00006  0.00002 -0.00041
    F10      Y    -0.00012 -0.00010  0.00009
    F10      Z    -0.00004  0.00001  0.00006
    H11      X     0.18824 -0.00094 -0.00623
    H11      Y     0.09900 -0.00048 -0.00383
    H11      Z     0.00473 -0.00007 -0.00046
    H12      X     0.03750 -0.00012 -0.00186
    H12      Y     0.88587 -0.00297 -0.03988
    H12      Z     0.27251 -0.00090 -0.01231
    H13      X     0.01771  0.00999  0.29280
    H13      Y     0.00794  0.00476  0.13880
    H13      Z     0.00295  0.00186  0.05316
    H14      X     0.00077  0.00006  0.02329
    H14      Y     0.03607  0.01723  0.84297
    H14      Z     0.01238  0.00578  0.29280
    C15      X     0.00000 -0.00000 -0.00000
    C15      Y     0.00000 -0.00002 -0.00000
    C15      Z    -0.00000 -0.00001 -0.00001
    C16      X    -0.00000 -0.00001  0.00000
    C16      Y    -0.00002 -0.00000  0.00000
    C16      Z     0.00003  0.00000  0.00000
    C17      X     0.00000  0.00001  0.00001
    C17      Y     0.00001 -0.00002 -0.00001
    C17      Z     0.00002  0.00002 -0.00001
    C18      X    -0.00000  0.00001  0.00001
    C18      Y    -0.00003 -0.00001  0.00000
    C18      Z     0.00000  0.00001  0.00001
    C19      X    -0.00000  0.00000 -0.00000
    C19      Y    -0.00001 -0.00001 -0.00001
    C19      Z     0.00000 -0.00001  0.00000
    C20      X    -0.00001  0.00000 -0.00000
    C20      Y    -0.00001 -0.00000 -0.00001
    C20      Z     0.00000 -0.00000  0.00000
    C21      X    -0.00002  0.00001 -0.00000
    C21      Y     0.00000 -0.00001 -0.00002
    C21      Z    -0.00001  0.00000  0.00000
    C22      X    -0.00000 -0.00000  0.00002
    C22      Y    -0.00014 -0.00001 -0.00006
    C22      Z    -0.00003  0.00001 -0.00007
    C23      X    -0.00021  0.00001  0.00001
    C23      Y     0.00006  0.00000 -0.00000
    C23      Z     0.00050  0.00001 -0.00001
    C24      X    -0.00003  0.00000  0.00000
    C24      Y     0.00008 -0.00001 -0.00000
    C24      Z     0.00000  0.00000  0.00001
    C25      X     0.00001 -0.00000  0.00000
    C25      Y     0.00003 -0.00000  0.00001
    C25      Z     0.00004  0.00000  0.00001
    C26      X     0.00002 -0.00001  0.00000
    C26      Y     0.00000 -0.00000  0.00000
    C26      Z     0.00001  0.00000  0.00000
    C27      X     0.00002  0.00000  0.00000
    C27      Y    -0.00002 -0.00001 -0.00000
    C27      Z     0.00006  0.00002  0.00001
    C28      X     0.00000  0.00001 -0.00000
    C28      Y    -0.00012 -0.00011  0.00003
    C28      Z    -0.00004 -0.00004  0.00001
    C29      X    -0.00001 -0.00003  0.00001
    C29      Y    -0.00000 -0.00002  0.00000
    C29      Z    -0.00003 -0.00007  0.00002
    C30      X    -0.00000 -0.00005  0.00000
    C30      Y     0.00001  0.00010 -0.00001
    C30      Z    -0.00000 -0.00010  0.00001
    C31      X     0.00000  0.00001  0.00000
    C31      Y    -0.00001  0.00013 -0.00003
    C31      Z    -0.00000  0.00007 -0.00000
    C32      X    -0.00000 -0.00005 -0.00000
    C32      Y     0.00000 -0.00002 -0.00000
    C32      Z    -0.00001 -0.00003 -0.00001
    C33      X    -0.00000  0.00029 -0.00002
    C33      Y    -0.00000  0.00001  0.00003
    C33      Z     0.00000 -0.00027  0.00004
    C34      X     0.00001 -0.00143 -0.00000
    C34      Y     0.00000 -0.00106 -0.00002
    C34      Z    -0.00001 -0.00282 -0.00005
    C35      X    -0.00013 -0.05109  0.00118
    C35      Y    -0.00002 -0.00254 -0.00003
    C35      Z     0.00017  0.06360 -0.00138
    C36      X     0.00003  0.00695  0.00007
    C36      Y     0.00001  0.00531 -0.00004
    C36      Z     0.00005  0.01367  0.00029
    C37      X    -0.00006  0.01055 -0.00020
    C37      Y    -0.00002  0.00346 -0.00011
    C37      Z    -0.00001  0.00060 -0.00006
    C38      X     0.00001  0.00001  0.00000
    C38      Y     0.00000 -0.00011 -0.00000
    C38      Z    -0.00001 -0.00050 -0.00002
    O39      X    -0.00001  0.00006 -0.00001
    O39      Y     0.00000  0.00002 -0.00000
    O39      Z     0.00001  0.00001  0.00001
    C40      X     0.00001 -0.00000  0.00001
    C40      Y    -0.00000  0.00003  0.00001
    C40      Z    -0.00002  0.00013 -0.00002
    O41      X    -0.00000  0.00005  0.00002
    O41      Y    -0.00001  0.00007  0.00001
    O41      Z     0.00000  0.00037  0.00000
    C42      X    -0.00001  0.00082 -0.00005
    C42      Y     0.00001  0.00092 -0.00004
    C42      Z    -0.00000  0.00163 -0.00005
    H43      X     0.00001  0.00008  0.00000
    H43      Y     0.00008  0.00027  0.00000
    H43      Z    -0.00004 -0.00001 -0.00002
    H44      X     0.00003  0.00001  0.00000
    H44      Y     0.00031  0.00011  0.00002
    H44      Z     0.00003  0.00001  0.00001
    H45      X    -0.00003 -0.00006 -0.00003
    H45      Y     0.00003  0.00004  0.00002
    H45      Z    -0.00004 -0.00010 -0.00001
    H46      X     0.00003  0.00001  0.00001
    H46      Y     0.00010  0.00004  0.00007
    H46      Z    -0.00001 -0.00001 -0.00001
    H47      X     0.00000 -0.00002  0.00002
    H47      Y    -0.00000  0.00002 -0.00000
    H47      Z     0.00000  0.00005 -0.00002
    H48      X    -0.00001  0.00001  0.00001
    H48      Y     0.00011  0.00004  0.00009
    H48      Z     0.00000 -0.00000  0.00001
    H49      X     0.00011 -0.00005  0.00002
    H49      Y     0.00003 -0.00001  0.00000
    H49      Z    -0.00003  0.00001  0.00000
    H50      X     0.00009  0.00001  0.00005
    H50      Y     0.00021  0.00005  0.00028
    H50      Z    -0.00002  0.00000 -0.00003
    H51      X     0.00015 -0.00009  0.00001
    H51      Y    -0.00010  0.00004 -0.00003
    H51      Z     0.00015 -0.00008  0.00001
    H52      X    -0.00010 -0.00001 -0.00031
    H52      Y     0.00026 -0.00003  0.00024
    H52      Z     0.00037 -0.00001  0.00079
    H53      X     0.00008  0.00001  0.00008
    H53      Y     0.00126  0.00018  0.00049
    H53      Z    -0.00006 -0.00001  0.00001
    H54      X     0.00000  0.00004  0.00001
    H54      Y     0.00022 -0.00000 -0.00003
    H54      Z    -0.00060 -0.00005 -0.00007
    H55      X     0.00134 -0.00004 -0.00005
    H55      Y     0.00004 -0.00001 -0.00000
    H55      Z    -0.00010  0.00001  0.00001
    H56      X     0.00105  0.00002 -0.00003
    H56      Y    -0.00041 -0.00001  0.00000
    H56      Z    -0.00552 -0.00014  0.00010
    H57      X     0.00034 -0.00004 -0.00003
    H57      Y    -0.00054  0.00008  0.00005
    H57      Z     0.00035 -0.00004 -0.00002
    H58      X     0.00005  0.00001  0.00001
    H58      Y    -0.00031 -0.00001  0.00000
    H58      Z    -0.00070 -0.00004 -0.00004
    H59      X    -0.00021  0.00002 -0.00002
    H59      Y    -0.00039  0.00005 -0.00006
    H59      Z    -0.00018  0.00002 -0.00002
    H60      X     0.00010  0.00001  0.00001
    H60      Y     0.00005 -0.00001  0.00000
    H60      Z    -0.00038 -0.00007 -0.00005
    H61      X    -0.00023  0.00012 -0.00005
    H61      Y    -0.00001  0.00001 -0.00000
    H61      Z     0.00003 -0.00002  0.00001
    H62      X     0.00002  0.00001  0.00001
    H62      Y     0.00000 -0.00001 -0.00001
    H62      Z    -0.00010 -0.00007 -0.00004
    H63      X     0.00013  0.00003  0.00002
    H63      Y    -0.00016 -0.00001  0.00000
    H63      Z    -0.00047 -0.00019 -0.00004
    H64      X    -0.00031 -0.00007 -0.00001
    H64      Y     0.00039  0.00007  0.00002
    H64      Z    -0.00030 -0.00004 -0.00001
    H65      X    -0.00003 -0.00001  0.00002
    H65      Y     0.00138  0.00138 -0.00026
    H65      Z     0.00050  0.00053 -0.00008
    H66      X     0.00012  0.00027 -0.00008
    H66      Y     0.00008  0.00022 -0.00005
    H66      Z     0.00034  0.00078 -0.00022
    H67      X     0.00001  0.00061 -0.00003
    H67      Y    -0.00003 -0.00119  0.00007
    H67      Z     0.00003  0.00105 -0.00006
    H68      X    -0.00001 -0.00003 -0.00001
    H68      Y     0.00015 -0.00112  0.00034
    H68      Z     0.00004 -0.00045  0.00011
    H69      X     0.00147  0.58264 -0.01357
    H69      Y     0.00012  0.03203 -0.00040
    H69      Z    -0.00182 -0.72519  0.01681
    H70      X    -0.00017 -0.05087 -0.00054
    H70      Y    -0.00020 -0.04904 -0.00178
    H70      Z    -0.00044 -0.14438 -0.00110
    H71      X     0.00067 -0.11337  0.00237
    H71      Y     0.00025 -0.03969  0.00099
    H71      Z     0.00011 -0.01611  0.00037
    H72      X    -0.00007  0.00030 -0.00008
    H72      Y     0.00001 -0.00022  0.00001
    H72      Z     0.00016 -0.00130  0.00021
    H73      X     0.00001 -0.00028  0.00006
    H73      Y    -0.00002  0.00053 -0.00006
    H73      Z    -0.00000 -0.00076  0.00004
    H74      X    -0.00000  0.00009 -0.00000
    H74      Y     0.00007 -0.00088 -0.00001
    H74      Z     0.00001 -0.00048 -0.00000
    H75      X    -0.00002 -0.00544  0.00014
    H75      Y    -0.00003  0.00715 -0.00026
    H75      Z     0.00005 -0.00735  0.00016
    H76      X     0.00008 -0.01212  0.00058
    H76      Y     0.00003 -0.00589  0.00026
    H76      Z     0.00004 -0.00859  0.00036
    H77      X     0.00003  0.00186 -0.00009
    H77      Y    -0.00015 -0.01509  0.00048
    H77      Z    -0.00006 -0.00772  0.00021
  
  Number of imaginary frequencies:   0
   
  Writing vibrational animation data to enc_comp_L1_PL145.vib
  Writing IR vibrational spectrum data to enc_comp_L1_PL145_vib.spm
  rotational symmetry number:  1

  rotational temperatures (K):      0.004581      0.003524      0.003291
   
  The Quasi-Harmonic approximation will be applied to compute
  vibrational constributions to thermodynamic properties.
  Frequencies will be adjusted to a minimum value of  100.00 cm^-1.

  vibrational temperatures:
       mode:      1        2        3        4        5        6
  temp. (K):   143.88   143.88   143.88   143.88   143.88   143.88
   
       mode:      7        8        9       10       11       12
  temp. (K):   143.88   143.88   143.88   143.88   143.88   143.88
   
       mode:     13       14       15       16       17       18
  temp. (K):   143.88   143.88   143.88   143.88   165.05   178.09
   
       mode:     19       20       21       22       23       24
  temp. (K):   207.99   211.44   230.78   236.30   249.34   257.92
   
       mode:     25       26       27       28       29       30
  temp. (K):   275.28   302.59   315.85   319.05   327.48   329.28
   
       mode:     31       32       33       34       35       36
  temp. (K):   360.06   372.26   386.74   400.80   409.08   412.76
   
       mode:     37       38       39       40       41       42
  temp. (K):   444.96   463.22   476.43   479.00   488.68   494.71
   
       mode:     43       44       45       46       47       48
  temp. (K):   541.15   559.27   571.93   577.71   593.40   619.00
   
       mode:     49       50       51       52       53       54
  temp. (K):   622.97   639.89   646.96   674.92   684.91   702.44
   
       mode:     55       56       57       58       59       60
  temp. (K):   717.95   733.05   760.42   765.24   797.25   814.41
   
       mode:     61       62       63       64       65       66
  temp. (K):   820.70   872.43   883.67   886.58   909.51   949.81
   
       mode:     67       68       69       70       71       72
  temp. (K):   985.74  1044.81  1051.54  1065.18  1098.58  1112.73
   
       mode:     73       74       75       76       77       78
  temp. (K):  1122.65  1128.41  1130.60  1142.95  1145.06  1164.64
   
       mode:     79       80       81       82       83       84
  temp. (K):  1167.70  1175.32  1206.10  1213.49  1219.65  1257.54
   
       mode:     85       86       87       88       89       90
  temp. (K):  1263.96  1292.51  1310.99  1313.05  1317.45  1321.68
   
       mode:     91       92       93       94       95       96
  temp. (K):  1326.18  1338.30  1353.98  1358.97  1364.57  1400.36
   
       mode:     97       98       99      100      101      102
  temp. (K):  1405.50  1428.36  1454.35  1471.99  1475.69  1482.63
   
       mode:    103      104      105      106      107      108
  temp. (K):  1524.36  1531.14  1532.90  1541.50  1550.96  1561.30
   
       mode:    109      110      111      112      113      114
  temp. (K):  1566.70  1592.54  1596.68  1604.86  1609.09  1610.41
   
       mode:    115      116      117      118      119      120
  temp. (K):  1616.90  1636.57  1642.23  1659.35  1677.82  1679.10
   
       mode:    121      122      123      124      125      126
  temp. (K):  1700.41  1703.82  1709.57  1739.62  1741.92  1749.63
   
       mode:    127      128      129      130      131      132
  temp. (K):  1756.88  1758.32  1761.59  1766.51  1775.07  1815.54
   
       mode:    133      134      135      136      137      138
  temp. (K):  1847.12  1871.27  1873.04  1875.86  1878.25  1884.34
   
       mode:    139      140      141      142      143      144
  temp. (K):  1889.49  1895.25  1904.05  1906.57  1930.46  1935.62
   
       mode:    145      146      147      148      149      150
  temp. (K):  1938.63  1941.58  1975.41  1977.87  1978.65  1982.72
   
       mode:    151      152      153      154      155      156
  temp. (K):  1999.93  2007.78  2011.43  2012.57  2013.44  2016.42
   
       mode:    157      158      159      160      161      162
  temp. (K):  2019.49  2023.19  2030.44  2130.23  2135.93  2155.93
   
       mode:    163      164      165      166      167      168
  temp. (K):  2161.41  2163.55  2165.64  2169.82  2171.67  2173.83
   
       mode:    169      170      171      172      173      174
  temp. (K):  2175.34  2176.77  2180.42  2185.22  2189.12  2192.71
   
       mode:    175      176      177      178      179      180
  temp. (K):  2197.33  2200.72  2203.04  2205.10  2205.47  2223.81
   
       mode:    181      182      183      184      185      186
  temp. (K):  2264.98  2321.10  2344.73  2374.97  2381.70  2389.25
   
       mode:    187      188      189      190      191      192
  temp. (K):  4352.77  4354.51  4354.83  4355.70  4356.83  4359.60
   
       mode:    193      194      195      196      197      198
  temp. (K):  4359.95  4360.69  4363.26  4370.18  4378.11  4393.87
   
       mode:    199      200      201      202      203      204
  temp. (K):  4400.39  4413.21  4427.50  4432.85  4433.41  4435.32
   
       mode:    205      206      207      208      209      210
  temp. (K):  4443.11  4443.53  4451.15  4457.77  4459.62  4468.26
   
       mode:    211      212      213      214      215      216
  temp. (K):  4478.30  4481.73  4550.58  4555.42  4576.85  4584.71
   
       mode:    217      218      219      220      221      222
  temp. (K):  4594.22  4608.83  4611.62  4621.64  4638.81  4648.76
   
       mode:    223      224      225
  temp. (K):  4651.24  4664.50  4670.69
   
   
  Thermodynamic properties calculated assuming an ideal gas

  In the table below, the units for temperature
  are kelvins, the units for U, H, and G are
  kcal/mol and the units for Cv and S are cal/(mol K)

  The zero point energy (ZPE):    407.670 kcal/mol
  is not included in U, H, or G in the table below
  
 
  =============================================================================
  Thermodynamic properties for P = 1.00E+00 atm, calculated at   1 temperatures


  T =   298.15 K, P = 1.00E+00 atm
   
                  U         Cv          S          H          G        ln(Q)
              =========  =========  =========  =========  =========  =========
  trans.          0.889      2.981     45.476      1.481    -12.077   20.38435
  rot.            0.889      2.981     37.745      0.889    -10.365   17.49411
  vib.           21.305    139.561    130.689     21.305    -17.660   29.80680
  elec.           0.000      0.000      0.000      0.000      0.000    0.00000
  ----------------------------------------------------------------------------
  total          23.082    145.523    213.911     23.675    -40.103   67.68527
   
   Total internal energy, Utot(SCFE + ZPE + U):   -1973.388317 hartrees
   Total enthalpy, Htot (Utot + nRT), with n=1:   -1973.387372 hartrees
    Total Gibbs free energy, Gtot (Htot - T*S):   -1973.489008 hartrees
   
FATAL MAE_GET_COORDS(): TOO MANY ATOMS IN CT BLOCK
  end of program freq
   
 Time(freq)  user:        0.2  user+sys:        0.2  wallclock:        0.3
  
  start of program post
  
  Writing input files for PBF
FATAL MAE_GET_COORDS(): TOO MANY ATOMS IN CT BLOCK
  end of program post
   
 Time(post)  user:        0.1  user+sys:        0.1  wallclock:        0.1

 Total cpu seconds     user:   50215.926   user+sys:   50215.926
  
 Total elapsed time:    50763 seconds

Job enc_comp_L1_PL145 completed on bp1-compute031.data.bp.acrc.priv at Fri Mar 15 14:34:51 2024
