Job L1_NaOtBu_PL145 started on bp1-compute192 at Fri Nov 28 12:00:06 2025
jobid: bp1-compute192-0-69298ec0

  +--------------------------------------------------------------------+
  |  Jaguar version 12.5, release 138                                  |
  |                                                                    |
  |  Copyright Schrodinger, Inc.                                       |
  |  All Rights Reserved.                                              |
  |                                                                    |
  |  The following have contributed to Jaguar (listed alphabetically): |
  |  Ty Balduf, Mike Beachy, Chandler Bennett, Art Bochevarov,         |
  |  Dale Braden, Yixiang Cao, Alan Chien, Chris Cortis,               |
  |  Rich Friesner, Jim Furness, Bill Goddard, Hod Greeley,            |
  |  Tom Hughes, Leif Jacobson, Jean-Marc Langlois, Daniel Levine,     |
  |  Rob Murphy, Dean Philipp, Tom Pollard, Murco Ringnalda,           |
  |  Daniel Mainz, Pablo Videla, Mark Watson, Haoyu Yu.                |
  |                                                                    |
  |  Use of this program should be acknowledged in publications as:    |
  |                                                                    |
  |  Jaguar, version 12.5, Schrodinger, Inc., New York, NY, 2024.      |
  |                                                                    |
  |  A. D. Bochevarov, E. Harder, T. F. Hughes, J. R. Greenwood,       |
  |  D. A. Braden, D. M. Philipp, D. Rinaldo, M. D. Halls,             |
  |  J. Zhang, R. A. Friesner, "Jaguar: A High-Performance Quantum     |
  |  Chemistry Software Program with Strengths in Life and Materials   |
  |  Sciences", Int. J. Quantum Chem., 2013, 113(18), 2110-2142.       |
  +--------------------------------------------------------------------+
  
  start of program pre
  
  Job name: L1_NaOtBu_PL145
  Executables used: /software/local/apps/schrodinger2024-3/jaguar-v12.5/bin/Linux-x86_64
  Temporary files : /tmp/ar21627/L1_NaOtBu_PL145#bp1-compute192-0-69298ec0
  Basis file : using default basis file from /software/local/apps/schrodinger2024-3
  Maestro file (input):  L1_NaOtBu_PL145.mae
  Maestro file (output): L1_NaOtBu_PL145.01.mae
  
 Contents of input file: &gen and (if present) &atomic sections only
 ----------------Contents start----------------
&gen
dftname=b3pw91-d3
basis=6-31G*
numd=5
ip11=2
iaccg=3
isolv=2
igeopt=1
solvent=benzene
ifreq=1
&
&atomic
atom basis
Pd2 lacv3p*
&
 -----------------Contents end-----------------
 
  PS calculation requested. Using PS version of 6-31g*
  basis set:               non_standard                    
  net molecular charge:    0
  multiplicity:            1
  
  Using up to  18 threads per process
  
  This run will use ECP on 1 atom
  number of basis functions....          617
  
 Input geometry:
                                   angstroms
  atom               x                 y                 z
  P1            0.0000000000      0.0000000000      0.0000000000 
  Pd2           0.0000000000      0.0000000000      2.2683818534 
  C3            1.7258855612      0.0000000000     -0.7469356295 
  C4           -1.0324442688     -1.1726869289     -1.0162304418 
  C5           -0.5279130785      1.6878894892     -0.5865392897 
  C6            1.7744543500     -0.1350124355     -2.2732539142 
  C7            3.2085929217      0.0289154476     -2.7898735410 
  C8            4.1534485140     -0.9702886886     -2.1170944398 
  C9            4.1006408443     -0.8362021098     -0.5929670753 
  C10           2.6718126496     -0.9960216456     -0.0642178536 
  C11          -0.5410730280     -2.6132675989     -0.8056650182 
  C12          -1.4401295160     -3.6266380544     -1.5212782142 
  C13          -2.9008834073     -3.4839837317     -1.0881582540 
  C14          -3.3962830720     -2.0524575379     -1.3092790363 
  C15          -2.5030074152     -1.0397114261     -0.5872932675 
  C16          -1.1483266347      1.8855844313     -1.8275168598 
  C17          -1.4543144360      3.1635721793     -2.2941048051 
  C18          -1.1345191303      4.2783494457     -1.5238984997 
  C19          -0.5225195095      4.1029596827     -0.2844870465 
  C20          -0.2209293229      2.8282898318      0.2002309210 
  C21           0.4100660929      2.6743837162      1.5415331166 
  C22          -0.4031563984      2.2145895695      2.6227849810 
  C23           0.1970132296      1.7773644947      3.8387391198 
  C24           1.5986235136      1.9062364916      3.9681286934 
  C25           2.3859693501      2.4393798630      2.9571342671 
  C26           1.7853772481      2.8015749028      1.7322756579 
  O27           2.4910628153      3.2165341373      0.6390387975 
  C28           3.9038125966      3.2573822394      0.7167513471 
  O29          -1.7356984759      2.4694761709      2.4728428922 
  C30          -2.4479126731      2.9735489000      3.5884283473 
  H31           2.0763569694      1.0108782781     -0.4888432424 
  H32           1.4004451228     -1.1256133424     -2.5719349834 
  H33           1.1180847402      0.6101564194     -2.7394726083 
  H34           3.5498734598      1.0536818095     -2.5782368141 
  H35           3.2330235180     -0.0921319434     -3.8813686805 
  H36           3.8573621317     -1.9927056523     -2.3990497197 
  H37           5.1810384456     -0.8304045654     -2.4783698995 
  H38           4.4787033620      0.1575715770     -0.3077647306 
  H39           4.7631311226     -1.5720616070     -0.1182417572 
  H40           2.6388905444     -0.8375479653      1.0215051571 
  H41           2.3335169342     -2.0265820434     -0.2422084359 
  H42          -0.9424397951     -0.9346518310     -2.0860847290 
  H43           0.4913771927     -2.7232720226     -1.1578794904 
  H44          -0.5286221848     -2.8242661499      0.2741815021 
  H45          -1.0786889062     -4.6449083464     -1.3267070616 
  H46          -1.3664970362     -3.4695712950     -2.6082520784 
  H47          -3.5327544288     -4.1993740786     -1.6305668372 
  H48          -2.9861843405     -3.7340848672     -0.0197681420 
  H49          -4.4331351588     -1.9468730210     -0.9639935951 
  H50          -3.4002136219     -1.8309718977     -2.3877293218 
  H51          -2.5595739320     -1.2044764195      0.4996254169 
  H52          -2.8624691859     -0.0186620206     -0.7631387006 
  H53          -1.3964310701      1.0334926102     -2.4546064177 
  H54          -1.9358268102      3.2828694659     -3.2627771153 
  H55          -1.3641064694      5.2796231184     -1.8824753010 
  H56          -0.2747663242      4.9647796666      0.3307539877 
  H57          -0.4089850915      1.5511147160      4.7114210803 
  H58           2.0638482296      1.6114572104      4.9061482583 
  H59           3.4555254403      2.5368170288      3.1060590738 
  H60           4.2506439320      3.5521011777     -0.2767153840 
  H61           4.3251266104      2.2743234461      0.9688680492 
  H62           4.2518931891      3.9975427913      1.4508376614 
  H63          -2.2996905042      2.3186095152      4.4604030776 
  H64          -3.5023741836      2.9742811220      3.3027347607 
  H65          -2.1448753630      3.9992251637      3.8402987296 
  O93           0.2653809908     -0.3725844491      4.3268105840 
  Na94          2.4082599153     -0.3791402105      3.9355313367 
  C95          -0.7198906952     -1.1741602494      4.9127225565 
  C96          -0.6573165984     -2.6120853055      4.3662233271 
  H97          -1.4315919364     -3.2609697938      4.8004121123 
  H98           0.3242718039     -3.0590440754      4.5792340436 
  H99          -0.7845807946     -2.5814976196      3.2780220657 
  C100         -2.1243798032     -0.6092119566      4.6322797678 
  H101         -2.9137663312     -1.2049011641      5.1150291483 
  H102         -2.3025720748     -0.5910193757      3.5483400489 
  H103         -2.1941874132      0.4236671004      4.9888506929 
  C104         -0.4941741114     -1.2109903734      6.4338209921 
  H105          0.5094615433     -1.5998019406      6.6499896840 
  H106         -1.2257259378     -1.8499925522      6.9481776932 
  H107         -0.5670650225     -0.2014854291      6.8527044579 
   
  principal moments of inertia:
        amu*angstrom^2:              4530.11569              5304.65572              6073.41443
                g*cm^2:          7.52243314E-37          8.80858696E-37          1.00851407E-36
   
  rotational constants:
               cm^(-1):      0.00372124      0.00317789      0.00277564
                   GHz:      0.11155985      0.09527084      0.08321168
   
  Molecular weight:     612.20 amu
   
  Stoichiometry: NaPdC30PH44O3
  Molecular Point Group: C1      
  Point Group used: C1
  
 
Number of optimization coordinates:   281
Number of independent coordinates:    281
Number of non-redundant coordinates:  234
Number of frozen coordinates:           0
Number of harmonic constraints:         0
 
Number of geometric degrees of freedom:   234
Maximum geometric degrees of freedom:     234
 " " " " " excluding dummy atoms:         234
 
 
  bond lengths (angstroms):
 
 P1      -Pd2     :   2.268382      P1      -C3      :   1.880583
 P1      -C4      :   1.863829      P1      -C5      :   1.863248
 Pd2     -C22     :   2.278715      Pd2     -O93     :   2.108643
 Pd2     -Na94    :   2.953447      C3      -C6      :   1.533048
 C3      -C10     :   1.533930      C3      -H31     :   1.100598
 C4      -C11     :   1.536573      C4      -C15     :   1.537604
 C4      -H42     :   1.099704      C5      -C16     :   1.401436
 C5      -C20     :   1.419070      C6      -C7      :   1.533141
 C6      -H32     :   1.100174      C6      -H33     :   1.097022
 C7      -C8      :   1.530945      C7      -H34     :   1.100640
 C7      -H35     :   1.098458      C8      -C9      :   1.530925
 C8      -H36     :   1.101137      C8      -H37     :   1.098193
 C9      -C10     :   1.531884      C9      -H38     :   1.100844
 C9      -H39     :   1.098065      C10     -H40     :   1.097721
 C10     -H41     :   1.099172      C11     -C12     :   1.532098
 C11     -H43     :   1.096408      C11     -H44     :   1.100338
 C12     -C13     :   1.530276      C12     -H45     :   1.097894
 C12     -H46     :   1.100729      C13     -C14     :   1.530876
 C13     -H47     :   1.097839      C13     -H48     :   1.100584
 C14     -C15     :   1.531293      C14     -H49     :   1.097922
 C14     -H50     :   1.100966      C15     -H51     :   1.100790
 C15     -H52     :   1.096666      C16     -C17     :   1.394484
 C16     -H53     :   1.086673      C17     -C18     :   1.392198
 C17     -H54     :   1.088307      C18     -C19     :   1.393358
 C18     -H55     :   1.088043      C19     -C20     :   1.396672
 C19     -H56     :   1.087491      C20     -C21     :   1.490280
 C21     -C22     :   1.428932      C21     -C26     :   1.394289
 C22     -C23     :   1.424750      C22     -O29     :   1.364961
 C23     -C24     :   1.413457      C23     -H57     :   1.086277
 C24     -C25     :   1.387900      C24     -H58     :   1.087754
 C24     -Na94    :   2.424772      C25     -C26     :   1.411444
 C25     -H59     :   1.084261      C26     -O27     :   1.365778
 O27     -C28     :   1.415475      C28     -H60     :   1.092761
 C28     -H61     :   1.098851      C28     -H62     :   1.099036
 O29     -C30     :   1.416287      C30     -H63     :   1.100570
 C30     -H64     :   1.092479      C30     -H65     :   1.098764
 O93     -Na94    :   2.178319      O93     -C95     :   1.398777
 C95     -C96     :   1.539547      C95     -C100    :   1.539612
 C95     -C104    :   1.538195      C96     -H97     :   1.099579
 C96     -H98     :   1.099391      C96     -H99     :   1.096045
 C100    -H101    :   1.100465      C100    -H102    :   1.098640
 C100    -H103    :   1.094922      C104    -H105    :   1.097810
 C104    -H106    :   1.099115      C104    -H107    :   1.095389
 
  bond angles:
 
 C3      -P1      -Pd2     : 113.402188  C4      -P1      -Pd2     : 123.040922
 C4      -P1      -C3      : 106.966394  C5      -P1      -Pd2     : 108.348383
 C5      -P1      -C3      :  97.758149  C5      -P1      -C4      : 103.968130
 C22     -Pd2     -P1      :  98.947397  O93     -Pd2     -P1      : 167.471038
 O93     -Pd2     -C22     :  92.416538  Na94    -Pd2     -P1      : 124.365898
 Na94    -Pd2     -C22     : 100.441521  Na94    -Pd2     -O93     :  47.441835
 C6      -C3      -P1      : 115.119943  C10     -C3      -P1      : 112.902511
 C10     -C3      -C6      : 111.493902  H31     -C3      -P1      : 101.484463
 H31     -C3      -C6      : 107.714421  H31     -C3      -C10     : 107.196647
 C11     -C4      -P1      : 109.756180  C15     -C4      -P1      : 108.860787
 C15     -C4      -C11     : 110.407365  H42     -C4      -P1      : 110.420836
 H42     -C4      -C11     : 108.063758  H42     -C4      -C15     : 109.326380
 C16     -C5      -P1      : 122.138717  C20     -C5      -P1      : 119.483341
 C20     -C5      -C16     : 118.252038  C7      -C6      -C3      : 110.836835
 H32     -C6      -C3      : 109.805007  H32     -C6      -C7      : 108.831971
 H33     -C6      -C3      : 110.141708  H33     -C6      -C7      : 110.111449
 H33     -C6      -H32     : 107.027702  C8      -C7      -C6      : 111.066442
 H34     -C7      -C6      : 108.954043  H34     -C7      -C8      : 109.378632
 H35     -C7      -C6      : 110.111853  H35     -C7      -C8      : 110.549626
 H35     -C7      -H34     : 106.664729  C9      -C8      -C7      : 111.041804
 H36     -C8      -C7      : 109.119185  H36     -C8      -C9      : 109.084975
 H37     -C8      -C7      : 110.474472  H37     -C8      -C9      : 110.403652
 H37     -C8      -H36     : 106.597030  C10     -C9      -C8      : 111.510138
 H38     -C9      -C8      : 108.974420  H38     -C9      -C10     : 108.970662
 H39     -C9      -C8      : 110.542594  H39     -C9      -C10     : 110.096254
 H39     -C9      -H38     : 106.604088  C9      -C10     -C3      : 110.720883
 H40     -C10     -C3      : 109.146054  H40     -C10     -C9      : 110.750683
 H41     -C10     -C3      : 110.299572  H41     -C10     -C9      : 109.207595
 H41     -C10     -H40     : 106.635707  C12     -C11     -C4      : 111.619801
 H43     -C11     -C4      : 110.558995  H43     -C11     -C12     : 109.643949
 H44     -C11     -C4      : 108.534810  H44     -C11     -C12     : 109.766539
 H44     -C11     -H43     : 106.580775  C13     -C12     -C11     : 111.487339
 H45     -C12     -C11     : 109.724246  H45     -C12     -C13     : 110.521371
 H46     -C12     -C11     : 109.123659  H46     -C12     -C13     : 109.271820
 H46     -C12     -H45     : 106.578562  C14     -C13     -C12     : 110.805296
 H47     -C13     -C12     : 110.415515  H47     -C13     -C14     : 110.593029
 H48     -C13     -C12     : 109.120428  H48     -C13     -C14     : 109.125050
 H48     -C13     -H47     : 106.674131  C15     -C14     -C13     : 111.196597
 H49     -C14     -C13     : 110.493846  H49     -C14     -C15     : 109.817146
 H50     -C14     -C13     : 109.314923  H50     -C14     -C15     : 109.322081
 H50     -C14     -H49     : 106.579200  C14     -C15     -C4      : 111.665543
 H51     -C15     -C4      : 108.158779  H51     -C15     -C14     : 109.668459
 H52     -C15     -C4      : 110.442921  H52     -C15     -C14     : 110.423458
 H52     -C15     -H51     : 106.310321  C17     -C16     -C5      : 121.514019
 H53     -C16     -C5      : 120.096764  H53     -C16     -C17     : 118.387858
 C18     -C17     -C16     : 119.889320  H54     -C17     -C16     : 119.693348
 H54     -C17     -C18     : 120.415858  C19     -C18     -C17     : 119.485703
 H55     -C18     -C17     : 120.403200  H55     -C18     -C19     : 120.110402
 C20     -C19     -C18     : 121.227157  H56     -C19     -C18     : 120.234969
 H56     -C19     -C20     : 118.536773  C19     -C20     -C5      : 119.623568
 C21     -C20     -C5      : 120.504388  C21     -C20     -C19     : 119.870371
 C22     -C21     -C20     : 118.249163  C26     -C21     -C20     : 122.096753
 C26     -C21     -C22     : 119.156876  C21     -C22     -Pd2     :  95.413637
 C23     -C22     -Pd2     :  76.111384  C23     -C22     -C21     : 120.318296
 O29     -C22     -Pd2     : 109.701280  O29     -C22     -C21     : 114.354807
 O29     -C22     -C23     : 124.214862  C24     -C23     -C22     : 117.895542
 H57     -C23     -C22     : 120.967657  H57     -C23     -C24     : 119.910076
 C25     -C24     -C23     : 122.064949  H58     -C24     -C23     : 118.577039
 H58     -C24     -C25     : 119.316617  Na94    -C24     -C23     : 104.119157
 Na94    -C24     -C25     :  99.371810  Na94    -C24     -H58     :  67.254816
 C26     -C25     -C24     : 119.296017  H59     -C25     -C24     : 119.608319
 H59     -C25     -C26     : 121.056203  C25     -C26     -C21     : 120.999692
 O27     -C26     -C21     : 115.332507  O27     -C26     -C25     : 123.555184
 C28     -O27     -C26     : 118.719231  H60     -C28     -O27     : 105.941065
 H61     -C28     -O27     : 111.681972  H61     -C28     -H60     : 109.158255
 H62     -C28     -O27     : 111.852021  H62     -C28     -H60     : 108.970916
 H62     -C28     -H61     : 109.136216  C30     -O29     -C22     : 118.090406
 H63     -C30     -O29     : 110.154369  H64     -C30     -O29     : 106.237911
 H64     -C30     -H63     : 109.729622  H65     -C30     -O29     : 111.969075
 H65     -C30     -H63     : 109.678669  H65     -C30     -H64     : 108.997150
 Na94    -O93     -Pd2     :  87.076142  C95     -O93     -Pd2     : 114.929693
 C95     -O93     -Na94    : 140.034958  C24     -Na94    -Pd2     :  67.314684
 O93     -Na94    -Pd2     :  45.482022  O93     -Na94    -C24     :  70.505219
 C96     -C95     -O93     : 110.971894  C100    -C95     -O93     : 110.853821
 C100    -C95     -C96     : 108.369222  C104    -C95     -O93     : 108.940018
 C104    -C95     -C96     : 108.826351  C104    -C95     -C100    : 108.830862
 H97     -C96     -C95     : 112.481207  H98     -C96     -C95     : 110.317828
 H98     -C96     -H97     : 108.196843  H99     -C96     -C95     : 108.762694
 H99     -C96     -H97     : 109.071641  H99     -C96     -H98     : 107.901590
 H101    -C100    -C95     : 112.075727  H102    -C100    -C95     : 109.496514
 H102    -C100    -H101    : 108.991436  H103    -C100    -C95     : 110.181214
 H103    -C100    -H101    : 108.786421  H103    -C100    -H102    : 107.177907
 H105    -C104    -C95     : 109.715720  H106    -C104    -C95     : 112.273233
 H106    -C104    -H105    : 108.085199  H107    -C104    -C95     : 110.262682
 H107    -C104    -H105    : 108.176014  H107    -C104    -H106    : 108.212951
 
  torsional angles:
 
 P1      -Pd2     -C22     -C21     : -38.338567
 P1      -Pd2     -C22     -C23     :-158.266033
 P1      -Pd2     -C22     -O29     :  79.950718
 P1      -Pd2     -O93     -Na94    :  53.183004
 P1      -Pd2     -O93     -C95     : -92.157601
 P1      -Pd2     -Na94    -C24     : 107.668098
 P1      -Pd2     -Na94    -O93     :-167.854776
 P1      -C3      -C6      -C7      : 173.835666
 P1      -C3      -C6      -H32     : -65.888841
 P1      -C3      -C6      -H33     :  51.730877
 P1      -C3      -C10     -C9      :-173.131834
 P1      -C3      -C10     -H40     : -50.969561
 P1      -C3      -C10     -H41     :  65.872980
 P1      -C4      -C11     -C12     : 174.810988
 P1      -C4      -C11     -H43     : -62.854765
 P1      -C4      -C11     -H44     :  53.709257
 P1      -C4      -C15     -C14     :-175.703040
 P1      -C4      -C15     -H51     : -54.943418
 P1      -C4      -C15     -H52     :  61.012627
 P1      -C5      -C16     -C17     :-175.490947
 P1      -C5      -C16     -H53     :   4.078208
 P1      -C5      -C20     -C19     : 175.059741
 P1      -C5      -C20     -C21     :  -5.411309
 Pd2     -P1      -C3      -C6      : 174.418160
 Pd2     -P1      -C3      -C10     :  44.821041
 Pd2     -P1      -C3      -H31     : -69.593997
 Pd2     -P1      -C4      -C11     : -65.964587
 Pd2     -P1      -C4      -C15     :  54.980432
 Pd2     -P1      -C4      -H42     : 175.004588
 Pd2     -P1      -C5      -C16     :-153.304582
 Pd2     -P1      -C5      -C20     :  30.847405
 Pd2     -C22     -C21     -C20     :  89.388664
 Pd2     -C22     -C21     -C26     : -82.694805
 Pd2     -C22     -C23     -C24     :  92.652811
 Pd2     -C22     -C23     -H57     :-100.013626
 Pd2     -C22     -O29     -C30     : 118.682665
 Pd2     -O93     -Na94    -C24     :  76.957560
 Pd2     -O93     -C95     -C96     :  67.265638
 Pd2     -O93     -C95     -C100    : -53.209848
 Pd2     -O93     -C95     -C104    :-172.938651
 Pd2     -Na94    -C24     -C23     :  32.520985
 Pd2     -Na94    -C24     -C25     : -94.087070
 Pd2     -Na94    -C24     -H58     : 147.949126
 Pd2     -Na94    -O93     -C95     : 126.593564
 C3      -P1      -Pd2     -C22     : 100.317462
 C3      -P1      -Pd2     -O93     : -54.538842
 C3      -P1      -Pd2     -Na94    :  -8.946827
 C3      -P1      -C4      -C11     :  67.967391
 C3      -P1      -C4      -C15     :-171.087590
 C3      -P1      -C4      -H42     : -51.063434
 C3      -P1      -C5      -C16     :  88.822805
 C3      -P1      -C5      -C20     : -87.025208
 C3      -C6      -C7      -C8      :  55.947587
 C3      -C6      -C7      -H34     : -64.599546
 C3      -C6      -C7      -H35     : 178.742780
 C3      -C10     -C9      -C8      : -55.354528
 C3      -C10     -C9      -H38     :  64.979367
 C3      -C10     -C9      -H39     :-178.435331
 C4      -P1      -Pd2     -C22     :-128.321553
 C4      -P1      -Pd2     -O93     :  76.822143
 C4      -P1      -Pd2     -Na94    : 122.414158
 C4      -P1      -C3      -C6      :  35.551378
 C4      -P1      -C3      -C10     : -94.045741
 C4      -P1      -C3      -H31     : 151.539221
 C4      -P1      -C5      -C16     : -20.893795
 C4      -P1      -C5      -C20     : 163.258192
 C4      -C11     -C12     -C13     : -55.591154
 C4      -C11     -C12     -H45     :-178.367398
 C4      -C11     -C12     -H46     :  65.200517
 C4      -C15     -C14     -C13     :  56.077367
 C4      -C15     -C14     -H49     : 178.686138
 C4      -C15     -C14     -H50     : -64.713921
 C5      -P1      -Pd2     -C22     :  -7.050404
 C5      -P1      -Pd2     -O93     :-161.906709
 C5      -P1      -Pd2     -Na94    :-116.314693
 C5      -P1      -C3      -C6      : -71.681878
 C5      -P1      -C3      -C10     : 158.721003
 C5      -P1      -C3      -H31     :  44.305965
 C5      -P1      -C4      -C11     : 170.754095
 C5      -P1      -C4      -C15     : -68.300886
 C5      -P1      -C4      -H42     :  51.723270
 C5      -C16     -C17     -C18     :   0.404487
 C5      -C16     -C17     -H54     : 179.964716
 C5      -C20     -C19     -C18     :   0.705452
 C5      -C20     -C19     -H56     :-179.675459
 C5      -C20     -C21     -C22     : -74.531317
 C5      -C20     -C21     -C26     :  97.306264
 C6      -C3      -C10     -C9      :  55.442304
 C6      -C3      -C10     -H40     : 177.604577
 C6      -C3      -C10     -H41     : -65.552882
 C6      -C7      -C8      -C9      : -55.967421
 C6      -C7      -C8      -H36     :  64.307014
 C6      -C7      -C8      -H37     :-178.812334
 C7      -C6      -C3      -C10     : -55.880729
 C7      -C6      -C3      -H31     :  61.464341
 C7      -C8      -C9      -C10     :  55.842920
 C7      -C8      -C9      -H38     : -64.488767
 C7      -C8      -C9      -H39     : 178.668761
 C8      -C7      -C6      -H32     : -64.905513
 C8      -C7      -C6      -H33     : 178.070045
 C8      -C9      -C10     -H40     :-176.573428
 C8      -C9      -C10     -H41     :  66.285179
 C9      -C8      -C7      -H34     :  64.328386
 C9      -C8      -C7      -H35     :-178.509650
 C9      -C10     -C3      -H31     : -62.215507
 C10     -C3      -C6      -H32     :  64.394764
 C10     -C3      -C6      -H33     :-177.985519
 C10     -C9      -C8      -H36     : -64.451802
 C10     -C9      -C8      -H37     : 178.728684
 C11     -C4      -C15     -C14     : -55.158256
 C11     -C4      -C15     -H51     :  65.601366
 C11     -C4      -C15     -H52     :-178.442589
 C11     -C12     -C13     -C14     :  55.614017
 C11     -C12     -C13     -H47     : 178.495804
 C11     -C12     -C13     -H48     : -64.563305
 C12     -C11     -C4      -C15     :  54.803578
 C12     -C11     -C4      -H42     : -64.718543
 C12     -C13     -C14     -C15     : -55.777105
 C12     -C13     -C14     -H49     :-177.994686
 C12     -C13     -C14     -H50     :  65.018394
 C13     -C12     -C11     -H43     :-178.449133
 C13     -C12     -C11     -H44     :  64.791359
 C13     -C14     -C15     -H51     : -63.797616
 C13     -C14     -C15     -H52     : 179.372743
 C14     -C13     -C12     -H45     : 177.932641
 C14     -C13     -C12     -H46     : -65.090935
 C14     -C15     -C4      -H42     :  63.597448
 C15     -C4      -C11     -H43     : 177.137825
 C15     -C4      -C11     -H44     : -66.298153
 C15     -C14     -C13     -H47     :-178.556003
 C15     -C14     -C13     -H48     :  64.397461
 C16     -C5      -C20     -C19     :  -0.949320
 C16     -C5      -C20     -C21     : 178.579630
 C16     -C17     -C18     -C19     :  -0.666630
 C16     -C17     -C18     -H55     : 179.636202
 C17     -C16     -C5      -C20     :   0.406052
 C17     -C18     -C19     -C20     :   0.112076
 C17     -C18     -C19     -H56     :-179.500601
 C18     -C17     -C16     -H53     :-179.171804
 C18     -C19     -C20     -C21     :-178.826520
 C19     -C18     -C17     -H54     : 179.776362
 C19     -C20     -C21     -C22     : 104.996472
 C19     -C20     -C21     -C26     : -83.165947
 C20     -C5      -C16     -H53     : 179.975208
 C20     -C19     -C18     -H55     : 179.810145
 C20     -C21     -C22     -C23     : 166.450919
 C20     -C21     -C22     -O29     : -25.105693
 C20     -C21     -C26     -C25     :-169.528051
 C20     -C21     -C26     -O27     :   6.746764
 C21     -C20     -C19     -H56     :   0.792568
 C21     -C22     -Pd2     -O93     : 136.368100
 C21     -C22     -Pd2     -Na94    :  89.255666
 C21     -C22     -C23     -C24     :   4.487230
 C21     -C22     -C23     -H57     : 171.820793
 C21     -C22     -O29     -C30     :-135.528612
 C21     -C26     -C25     -C24     :   2.221447
 C21     -C26     -C25     -H59     : 179.927533
 C21     -C26     -O27     -C28     :-174.521809
 C22     -Pd2     -O93     -Na94    :-101.976521
 C22     -Pd2     -O93     -C95     : 112.682874
 C22     -Pd2     -Na94    -C24     :  -0.850277
 C22     -Pd2     -Na94    -O93     :  83.626849
 C22     -C21     -C26     -C25     :   2.237922
 C22     -C21     -C26     -O27     : 178.512737
 C22     -C23     -C24     -C25     :   0.042646
 C22     -C23     -C24     -H58     : 177.685248
 C22     -C23     -C24     -Na94    :-110.794638
 C22     -O29     -C30     -H63     : -53.564517
 C22     -O29     -C30     -H64     :-172.343742
 C22     -O29     -C30     -H65     :  68.769445
 C23     -C22     -Pd2     -O93     :  16.440634
 C23     -C22     -Pd2     -Na94    : -30.671800
 C23     -C22     -C21     -C26     :  -5.632549
 C23     -C22     -O29     -C30     :  32.400007
 C23     -C24     -C25     -C26     :  -3.395067
 C23     -C24     -C25     -H59     : 178.865158
 C23     -C24     -Na94    -O93     : -16.319643
 C24     -C23     -C22     -O29     :-162.762370
 C24     -C25     -C26     -O27     :-173.737784
 C24     -Na94    -Pd2     -O93     : -84.477126
 C24     -Na94    -O93     -C95     :-156.448876
 C25     -C24     -C23     -H57     :-167.429796
 C25     -C24     -Na94    -O93     :-142.927698
 C25     -C26     -O27     -C28     :   1.646388
 C26     -C21     -C22     -O29     : 162.810839
 C26     -C25     -C24     -H58     : 178.979231
 C26     -C25     -C24     -Na94    : 109.879454
 C26     -O27     -C28     -H60     : 176.489118
 C26     -O27     -C28     -H61     :  57.748025
 C26     -O27     -C28     -H62     : -64.903292
 O27     -C26     -C25     -H59     :   3.968302
 O29     -C22     -Pd2     -O93     :-105.342615
 O29     -C22     -Pd2     -Na94    :-152.455049
 O29     -C22     -C23     -H57     :   4.571193
 H31     -C3      -C6      -H32     :-178.260166
 H31     -C3      -C6      -H33     : -60.640448
 H31     -C3      -C10     -H40     :  59.946766
 H31     -C3      -C10     -H41     : 176.789307
 H32     -C6      -C7      -H34     : 174.547355
 H32     -C6      -C7      -H35     :  57.889680
 H33     -C6      -C7      -H34     :  57.522913
 H33     -C6      -C7      -H35     : -59.134762
 H34     -C7      -C8      -H36     :-175.397178
 H34     -C7      -C8      -H37     : -58.516527
 H35     -C7      -C8      -H36     : -58.235215
 H35     -C7      -C8      -H37     :  58.645437
 H36     -C8      -C9      -H38     : 175.216510
 H36     -C8      -C9      -H39     :  58.374039
 H37     -C8      -C9      -H38     :  58.396997
 H37     -C8      -C9      -H39     : -58.445475
 H38     -C9      -C10     -H40     : -56.239533
 H38     -C9      -C10     -H41     :-173.380925
 H39     -C9      -C10     -H40     :  60.345769
 H39     -C9      -C10     -H41     : -56.795623
 H42     -C4      -C11     -H43     :  57.615705
 H42     -C4      -C11     -H44     : 174.179727
 H42     -C4      -C15     -H51     :-175.642930
 H42     -C4      -C15     -H52     : -59.686885
 H43     -C11     -C12     -H45     :  58.774622
 H43     -C11     -C12     -H46     : -57.657463
 H44     -C11     -C12     -H45     : -57.984885
 H44     -C11     -C12     -H46     :-174.416970
 H45     -C12     -C13     -H47     : -59.185572
 H45     -C12     -C13     -H48     :  57.755320
 H46     -C12     -C13     -H47     :  57.790851
 H46     -C12     -C13     -H48     : 174.731743
 H47     -C13     -C14     -H49     :  59.226416
 H47     -C13     -C14     -H50     : -57.760503
 H48     -C13     -C14     -H49     : -57.820120
 H48     -C13     -C14     -H50     :-174.807040
 H49     -C14     -C15     -H51     :  58.811155
 H49     -C14     -C15     -H52     : -58.018486
 H50     -C14     -C15     -H51     : 175.411095
 H50     -C14     -C15     -H52     :  58.581454
 H53     -C16     -C17     -H54     :   0.388425
 H54     -C17     -C18     -H55     :   0.079194
 H55     -C18     -C19     -H56     :   0.197469
 H57     -C23     -C24     -H58     :  10.212805
 H57     -C23     -C24     -Na94    :  81.732919
 H58     -C24     -C25     -H59     :   1.239457
 H58     -C24     -Na94    -O93     :  99.108498
 H59     -C25     -C24     -Na94    : -67.860320
 O93     -C95     -C96     -H97     :-179.186993
 O93     -C95     -C96     -H98     :  59.908020
 O93     -C95     -C96     -H99     : -58.253096
 O93     -C95     -C100    -H101    :-177.946050
 O93     -C95     -C100    -H102    :  60.981440
 O93     -C95     -C100    -H103    : -56.659576
 O93     -C95     -C104    -H105    : -58.290236
 O93     -C95     -C104    -H106    :-178.497519
 O93     -C95     -C104    -H107    :  60.756190
 Na94    -Pd2     -O93     -C95     :-145.340605
 Na94    -O93     -C95     -C96     : -50.577886
 Na94    -O93     -C95     -C100    :-171.053372
 Na94    -O93     -C95     -C104    :  69.217825
 C96     -C95     -C100    -H101    :  60.044610
 C96     -C95     -C100    -H102    : -61.027900
 C96     -C95     -C100    -H103    :-178.668916
 C96     -C95     -C104    -H105    :  62.826352
 C96     -C95     -C104    -H106    : -57.380931
 C96     -C95     -C104    -H107    :-178.127222
 H97     -C96     -C95     -C100    : -57.249933
 H97     -C96     -C95     -C104    :  60.949489
 H98     -C96     -C95     -C100    :-178.154920
 H98     -C96     -C95     -C104    : -59.955498
 H99     -C96     -C95     -C100    :  63.683964
 H99     -C96     -C95     -C104    :-178.116614
 C100    -C95     -C104    -H105    :-179.265756
 C100    -C95     -C104    -H106    :  60.526961
 C100    -C95     -C104    -H107    : -60.219330
 H101    -C100    -C95     -C104    : -58.151943
 H102    -C100    -C95     -C104    :-179.224454
 H103    -C100    -C95     -C104    :  63.134531
 
  nuclear repulsion energy.......          5179.254818736 hartrees
  
  Detected an organometallic with only one TM atom. 
  
  
 
  Will use High-Quality Initial guess for organometallics
       including d-d repulsion (iguess=30)
 
 Non-default options chosen:
   SCF calculation type: DFT(b3pw91-d3)              
   DFT=Becke_3_Parameter/HF+Slater+Becke88+PW91+PW-GGAIIC (B3PW91-D3)
   Geometry will be optimized in redundant internal coordinates
   Solvation energy will be computed using PBF
     -solute cavity energy will not be included
     -surface area terms will not be included
   Vibrational frequencies and related properties will be computed
      from analytic second derivatives
   IR intensities will be computed
   Thermochemical properties will be computed
   Maximum number of geometry steps: 100
   Scaling standard convergence criteria by a factor of   5.00
   Solvent: benzene                                                         
   Internal dielectric constant:    1.000
   Continuum dielectric constant:   2.283
   Solvent probe molecule radius:   2.600
  
 Non-default print settings:
     11=  2
  
 Temporary integer options set:
     21= -1  73=  2
  
  atom       vdw   vdw2    cov     mass  grid  daf  charge   basis
  P1        2.147  2.074  1.060   30.974    Y    Y      Y    ps_6-31g*
  Pd2       1.450  1.450  1.280  105.903    Y    Y      Y    lacv3p*
  C3        1.949  1.900  0.770   12.000    Y    Y      Y    ps_6-31g*
  C4        1.949  1.900  0.770   12.000    Y    Y      Y    ps_6-31g*
  C5        1.949  1.900  0.770   12.000    Y    Y      Y    ps_6-31g*
  C6        1.949  1.900  0.770   12.000    Y    Y      Y    ps_6-31g*
  C7        1.949  1.900  0.770   12.000    Y    Y      Y    ps_6-31g*
  C8        1.949  1.900  0.770   12.000    Y    Y      Y    ps_6-31g*
  C9        1.949  1.900  0.770   12.000    Y    Y      Y    ps_6-31g*
  C10       1.949  1.900  0.770   12.000    Y    Y      Y    ps_6-31g*
  C11       1.949  1.900  0.770   12.000    Y    Y      Y    ps_6-31g*
  C12       1.949  1.900  0.770   12.000    Y    Y      Y    ps_6-31g*
  C13       1.949  1.900  0.770   12.000    Y    Y      Y    ps_6-31g*
  C14       1.949  1.900  0.770   12.000    Y    Y      Y    ps_6-31g*
  C15       1.949  1.900  0.770   12.000    Y    Y      Y    ps_6-31g*
  C16       1.949  1.900  0.770   12.000    Y    Y      Y    ps_6-31g*
  C17       1.949  1.900  0.770   12.000    Y    Y      Y    ps_6-31g*
  C18       1.949  1.900  0.770   12.000    Y    Y      Y    ps_6-31g*
  C19       1.949  1.900  0.770   12.000    Y    Y      Y    ps_6-31g*
  C20       1.949  1.900  0.770   12.000    Y    Y      Y    ps_6-31g*
  C21       1.949  1.900  0.770   12.000    Y    Y      Y    ps_6-31g*
  C22       1.949  1.900  0.770   12.000    Y    Y      Y    ps_6-31g*
  C23       1.949  1.900  0.770   12.000    Y    Y      Y    ps_6-31g*
  C24       1.949  1.900  0.770   12.000    Y    Y      Y    ps_6-31g*
  C25       1.949  1.900  0.770   12.000    Y    Y      Y    ps_6-31g*
  C26       1.949  1.900  0.770   12.000    Y    Y      Y    ps_6-31g*
  O27       1.702  1.600  0.730   15.995    Y    Y      Y    ps_6-31g*
  C28       1.949  1.900  0.770   12.000    Y    Y      Y    ps_6-31g*
  O29       1.702  1.600  0.730   15.995    Y    Y      Y    ps_6-31g*
  C30       1.949  1.900  0.770   12.000    Y    Y      Y    ps_6-31g*
  H31       1.597  1.150  0.320    1.008    Y    Y      Y    ps_6-31g*
  H32       1.597  1.150  0.320    1.008    Y    Y      Y    ps_6-31g*
  H33       1.597  1.150  0.320    1.008    Y    Y      Y    ps_6-31g*
  H34       1.597  1.150  0.320    1.008    Y    Y      Y    ps_6-31g*
  H35       1.597  1.150  0.320    1.008    Y    Y      Y    ps_6-31g*
  H36       1.597  1.150  0.320    1.008    Y    Y      Y    ps_6-31g*
  H37       1.597  1.150  0.320    1.008    Y    Y      Y    ps_6-31g*
  H38       1.597  1.150  0.320    1.008    Y    Y      Y    ps_6-31g*
  H39       1.597  1.150  0.320    1.008    Y    Y      Y    ps_6-31g*
  H40       1.597  1.150  0.320    1.008    Y    Y      Y    ps_6-31g*
  H41       1.597  1.150  0.320    1.008    Y    Y      Y    ps_6-31g*
  H42       1.597  1.150  0.320    1.008    Y    Y      Y    ps_6-31g*
  H43       1.597  1.150  0.320    1.008    Y    Y      Y    ps_6-31g*
  H44       1.597  1.150  0.320    1.008    Y    Y      Y    ps_6-31g*
  H45       1.597  1.150  0.320    1.008    Y    Y      Y    ps_6-31g*
  H46       1.597  1.150  0.320    1.008    Y    Y      Y    ps_6-31g*
  H47       1.597  1.150  0.320    1.008    Y    Y      Y    ps_6-31g*
  H48       1.597  1.150  0.320    1.008    Y    Y      Y    ps_6-31g*
  H49       1.597  1.150  0.320    1.008    Y    Y      Y    ps_6-31g*
  H50       1.597  1.150  0.320    1.008    Y    Y      Y    ps_6-31g*
  H51       1.597  1.150  0.320    1.008    Y    Y      Y    ps_6-31g*
  H52       1.597  1.150  0.320    1.008    Y    Y      Y    ps_6-31g*
  H53       1.597  1.150  0.320    1.008    Y    Y      Y    ps_6-31g*
  H54       1.597  1.150  0.320    1.008    Y    Y      Y    ps_6-31g*
  H55       1.597  1.150  0.320    1.008    Y    Y      Y    ps_6-31g*
  H56       1.597  1.150  0.320    1.008    Y    Y      Y    ps_6-31g*
  H57       1.597  1.150  0.320    1.008    Y    Y      Y    ps_6-31g*
  H58       1.597  1.150  0.320    1.008    Y    Y      Y    ps_6-31g*
  H59       1.597  1.150  0.320    1.008    Y    Y      Y    ps_6-31g*
  H60       1.597  1.150  0.320    1.008    Y    Y      Y    ps_6-31g*
  H61       1.597  1.150  0.320    1.008    Y    Y      Y    ps_6-31g*
  H62       1.597  1.150  0.320    1.008    Y    Y      Y    ps_6-31g*
  H63       1.597  1.150  0.320    1.008    Y    Y      Y    ps_6-31g*
  H64       1.597  1.150  0.320    1.008    Y    Y      Y    ps_6-31g*
  H65       1.597  1.150  0.320    1.008    Y    Y      Y    ps_6-31g*
  O93       1.702  1.600  0.730   15.995    Y    Y      Y    ps_6-31g*
  Na94      2.308  1.492  1.540   22.990    Y    Y      Y    ps_6-31g*
  C95       1.949  1.900  0.770   12.000    Y    Y      Y    ps_6-31g*
  C96       1.949  1.900  0.770   12.000    Y    Y      Y    ps_6-31g*
  H97       1.597  1.150  0.320    1.008    Y    Y      Y    ps_6-31g*
  H98       1.597  1.150  0.320    1.008    Y    Y      Y    ps_6-31g*
  H99       1.597  1.150  0.320    1.008    Y    Y      Y    ps_6-31g*
  C100      1.949  1.900  0.770   12.000    Y    Y      Y    ps_6-31g*
  H101      1.597  1.150  0.320    1.008    Y    Y      Y    ps_6-31g*
  H102      1.597  1.150  0.320    1.008    Y    Y      Y    ps_6-31g*
  H103      1.597  1.150  0.320    1.008    Y    Y      Y    ps_6-31g*
  C104      1.949  1.900  0.770   12.000    Y    Y      Y    ps_6-31g*
  H105      1.597  1.150  0.320    1.008    Y    Y      Y    ps_6-31g*
  H106      1.597  1.150  0.320    1.008    Y    Y      Y    ps_6-31g*
  H107      1.597  1.150  0.320    1.008    Y    Y      Y    ps_6-31g*
 
  atom      formal  2spin      esp    mulk    frag
  P1           0       0        Y    0.000       0
  Pd2          0       0        Y    0.000       0
  
  end of program pre
   
 Time(pre)  user:       4.092  user+sys:       4.092  wallclock:       1.099
  
  start of program onee
  
  smallest eigenvalue of S:    3.840E-04
  number of canonical orbitals.....          615
  end of program onee
   
 Time(onee)  user:       6.406  user+sys:       6.406  wallclock:       1.516
  
  start of program hfig
  
  initial wavefunction generated automatically from atomic wavefunctions
  Only one possible d-orb occupation 
  Skip d-d repulsion considerations 
 
  Irreducible     Total no   No of occupied orbitals 
  representation  orbitals   Shell_1  Shell_2    ...
  No Symm          615        146
  ------------------------
  Orbital occupation/shell    1.000
 
  end of program hfig
   
 Time(hfig)  user:       2.432  user+sys:       2.432  wallclock:       0.939
  
  start of program probe
  
  end of program probe
   
 Time(probe)  user:       1.313  user+sys:       1.313  wallclock:       0.432
  
  start of program grid
  
   grid     grid set  grid #  grid sym
  ------    --------  ------  --------
  coarse        0        0        1
  medium        2        1        1
  fine          0        0        1
  ultrafine     4        2        1
  charge       -1        3        1
  gradient      4        2        1
  density       0        0        1
  DFT-fine    -11        4        1
  DFT-med.    -10        5        1
  DFT-grad    -12        6        1
  DFT-der2     -8        7        1
  DFT-cphf     -9        8        1
  LMP2-enrg     4        2        1
  LMP2-grad     2        1        1
  DFT-cphf2   -15        9        1
  PBF-dens      0        0        1
  plotting      0        0        1
  Rel-grad    -17        0        1
  
  number of gridpoints: 
     atom           P1         Pd2          C3          C4          C5          C6          C7
  grid # 1         604         347          81          79          91          91          92
  grid # 2         428         315         328         326         383         278         278
  grid # 3           7         214           6           6          17           6           6
  grid # 4        8582        8582        8582        8582        8582        8582        8582
  grid # 5        1192        1192        1192        1192        1192        1192        1192
  grid # 6        9488        9488        6164        6164        6164        6164        6164
  grid # 7       23054       32756       14018       14018       14018       14018       14018
  grid # 8         724        1144         750         750         750         750         750
  grid # 9         380        2168         406         406         406         406         406
   
  number of gridpoints: 
     atom           C8          C9         C10         C11         C12         C13         C14
  grid # 1          92          92          91          90          92          92          92
  grid # 2         278         279         279         281         278         278         279
  grid # 3           6           6           6           6           6           6           6
  grid # 4        8582        8582        8582        8582        8582        8582        8582
  grid # 5        1192        1192        1192        1192        1192        1192        1192
  grid # 6        6164        6164        6164        6164        6164        6164        6164
  grid # 7       14018       14018       14018       14018       14018       14018       14018
  grid # 8         750         750         750         750         750         750         750
  grid # 9         406         406         406         406         406         406         406
   
  number of gridpoints: 
     atom          C15         C16         C17         C18         C19         C20         C21
  grid # 1          90          93          96          97          95          95          98
  grid # 2         278         324         326         324         327         358         357
  grid # 3           6          22          41          48          30          12          15
  grid # 4        8582        8582        8582        8582        8582        8582        8582
  grid # 5        1192        1192        1192        1192        1192        1192        1192
  grid # 6        6164        6164        6164        6164        6164        6164        6164
  grid # 7       14018       14018       14018       14018       14018       14018       14018
  grid # 8         750         750         750         750         750         750         750
  grid # 9         406         406         406         406         406         406         406
   
  number of gridpoints: 
     atom          C22         C23         C24         C25         C26         O27         C28
  grid # 1          92          92          90          95          92         120          76
  grid # 2         345         319         323         324         350         451         225
  grid # 3          11          15          27          32          26          62           6
  grid # 4        8582        8582        8582        8582        8582        8582        8582
  grid # 5        1192        1192        1192        1192        1192        1192        1192
  grid # 6        6164        6164        6164        6164        6164        6164        6164
  grid # 7       14018       14018       14018       14018       14018       23358       14018
  grid # 8         750         750         750         750         750         774         750
  grid # 9         406         406         406         406         406         412         406
   
  number of gridpoints: 
     atom          O29         C30         H31         H32         H33         H34         H35
  grid # 1         119          75          99         106         105         109         112
  grid # 2         457         230         419         434         438         447         457
  grid # 3          70           6          49         123         160         216         326
  grid # 4        8582        8582        8582        8582        8582        8582        8582
  grid # 5        1192        1192        1192        1192        1192        1192        1192
  grid # 6        6164        6164        6164        6164        6164        6164        6164
  grid # 7       23358       14018       15170       15170       15170       15170       15170
  grid # 8         774         750         792         792         792         792         792
  grid # 9         412         406         420         420         420         420         420
   
  number of gridpoints: 
     atom          H36         H37         H38         H39         H40         H41         H42
  grid # 1         110         112         107         112         100         104         100
  grid # 2         452         458         436         457         433         437         422
  grid # 3         258         329         134         306          81         146          75
  grid # 4        8582        8582        8582        8582        8582        8582        8582
  grid # 5        1192        1192        1192        1192        1192        1192        1192
  grid # 6        6164        6164        6164        6164        6164        6164        6164
  grid # 7       15170       15170       15170       15170       15170       15170       15170
  grid # 8         792         792         792         792         792         792         792
  grid # 9         420         420         420         420         420         420         420
   
  number of gridpoints: 
     atom          H43         H44         H45         H46         H47         H48         H49
  grid # 1         103         104         112         110         112         110         112
  grid # 2         423         439         456         451         457         451         457
  grid # 3         106         128         324         257         330         243         326
  grid # 4        8582        8582        8582        8582        8582        8582        8582
  grid # 5        1192        1192        1192        1192        1192        1192        1192
  grid # 6        6164        6164        6164        6164        6164        6164        6164
  grid # 7       15170       15170       15170       15170       15170       15170       15170
  grid # 8         792         792         792         792         792         792         792
  grid # 9         420         420         420         420         420         420         420
   
  number of gridpoints: 
     atom          H50         H51         H52         H53         H54         H55         H56
  grid # 1         110         104         106         106         118         118         116
  grid # 2         452         437         441         428         466         467         460
  grid # 3         256         124         188         145         418         422         343
  grid # 4        8582        8582        8582        8582        8582        8582        8582
  grid # 5        1192        1192        1192        1192        1192        1192        1192
  grid # 6        6164        6164        6164        6164        6164        6164        6164
  grid # 7       15170       15170       15170       15170       15170       15170       15170
  grid # 8         792         792         792         792         792         792         792
  grid # 9         420         420         420         420         420         420         420
   
  number of gridpoints: 
     atom          H57         H58         H59         H60         H61         H62         H63
  grid # 1         101         103         111         110         106         111         102
  grid # 2         416         449         445         460         435         451         425
  grid # 3          97         250         211         346         148         326         140
  grid # 4        8582        8582        8582        8582        8582        8582        8582
  grid # 5        1192        1192        1192        1192        1192        1192        1192
  grid # 6        6164        6164        6164        6164        6164        6164        6164
  grid # 7       15170       15170       15170       15170       15170       15170       15170
  grid # 8         792         792         792         792         792         792         792
  grid # 9         420         420         420         420         420         420         420
   
  number of gridpoints: 
     atom          H64         H65         O93        Na94         C95         C96         H97
  grid # 1         112         112         112         695          91          81         108
  grid # 2         463         463         458         625         322         236         452
  grid # 3         387         367          10         228           6           6         290
  grid # 4        8582        8582        8582        8582        8582        8582        8582
  grid # 5        1192        1192        1192        1192        1192        1192        1192
  grid # 6        6164        6164        6164        9488        6164        6164        6164
  grid # 7       15170       15170       23358       21102       14018       14018       15170
  grid # 8         792         792         774         642         750         750         792
  grid # 9         420         420         412         338         406         406         420
   
  number of gridpoints: 
     atom          H98         H99        C100        H101        H102        H103        C104
  grid # 1         109         104          81         109         104          99          80
  grid # 2         452         439         239         451         435         415         238
  grid # 3         245         138           6         290         151         108           6
  grid # 4        8582        8582        8582        8582        8582        8582        8582
  grid # 5        1192        1192        1192        1192        1192        1192        1192
  grid # 6        6164        6164        6164        6164        6164        6164        6164
  grid # 7       15170       15170       14018       15170       15170       15170       14018
  grid # 8         792         792         750         792         792         792         750
  grid # 9         420         420         406         420         420         420         406
   
  number of gridpoints: 
     atom         H105        H106        H107       total
  grid # 1         109         109         108        9425
  grid # 2         452         449         450       31301
  grid # 3         242         289         266       11099
  grid # 4        8582        8582        8582      686560
  grid # 5        1192        1192        1192       95360
  grid # 6        6164        6164        6164      503092
  grid # 7       15170       15170       15170     1235006
  grid # 8         792         792         792       62180
  grid # 9         420         420         420       34782
   
  end of program grid
   
 Time(grid)  user:     385.930  user+sys:     385.930  wallclock:      26.582
  
  start of program rwr
  
  end of program rwr
   
 Time(rwr)  user:      49.746  user+sys:      49.746  wallclock:      12.060
  
  start of program scf
  
 number of electrons..........        292
 number of alpha electrons....        146
 number of beta electrons.....        146
 number of orbitals, total....        615
 number of doubly-occ'd orbs..        146
 number of open shell orbs....          0
 number of occupied orbitals..        146
 number of virtual orbitals...        469
 number of hamiltonians.......          1
 number of shells.............          1
 SCF type: DFT=Becke_3_Parameter/HF+Slater+Becke88+PW91+PW-GGAIIC (B3PW91-D3)
 Energy computed using pseudospectral method.
 Convergence Criterion:
    Energy (econv):       1.00E-05
    RMS density (dconv):  5.00E-06
  
       i  u  d  i  g                   
       t  p  i  c  r                                 RMS    maximum
       e  d  i  u  i                       energy  density   DIIS  
       r  t  s  t  d       total energy    change  change    error 
  
etot    1  N  N  5  M   -2020.39455548306           2.6E-03  1.8E-01
etot    2  Y  Y  6  M   -2023.71726793401  3.3E+00  3.4E-03  1.1E-01
etot    3  Y  Y  6  M   -2024.32017450542  6.0E-01  2.0E-03  4.4E-02
etot    4  N  Y  2  U   -2025.04498795276  7.2E-01  1.1E-03  3.3E-02
etot    5  Y  Y  6  M   -2025.18345876693  1.4E-01  6.0E-04  1.8E-02
etot    6  N  Y  2  U   -2025.19234200533  8.9E-03  4.5E-04  7.5E-03
etot    7  Y  Y  6  M   -2025.19808159244  5.7E-03  1.2E-04  2.8E-03
etot    8  N  Y  2  U   -2025.20407886039  6.0E-03  3.2E-05  1.2E-03
etot    9  N  Y  2  U   -2025.20427531897  2.0E-04  1.1E-05  2.4E-04
etot   10  N  Y  2  U   -2025.20429068944  1.5E-05  4.8E-06  8.0E-05
etot   11  N  N  2  U   -2025.20429472367  4.0E-06  0.0E+00  0.0E+00
 
  Computing the dispersion energy correction and its gradients...
  
  
 Energy components, in hartrees:
   (A)  Nuclear repulsion............    5179.25481873612
   (E)  Total one-electron terms.....  -13143.06836399946
   (F)    Electron-nuclear...........  -15077.51197994443
   (H)    Kinetic....................    1934.44361594498
   (I)  Total two-electron terms.....    5938.60925053967
   (J)    Coulomb....................    6194.04878008196
   (K)    Exchange+Correlation.......    -255.43952954228
   (L)  Electronic energy............   -7204.45911345978  (E+I)
   (N0) D3 correction................      -0.14024070750
   (N)  Total energy.................   -2025.34453543117  (A+L+N0)
   (O)  Gas phase energy.............   -2025.34453543117
  
 SCFE: SCF energy: DFT(b3pw91-d3)     -2025.34453543117 hartrees   iterations:  11
  
 
 HOMO energy:    -0.12112
 LUMO energy:    -0.03891
 
  Orbital energies (hartrees): 
   -77.03829   -38.46462   -19.15464   -19.13905   -19.04009   -10.22360
   -10.21591   -10.21311   -10.20034   -10.18072   -10.17113   -10.16467
   -10.16293   -10.16154   -10.16106   -10.16046   -10.16022   -10.15986
   -10.15953   -10.15904   -10.15851   -10.15800   -10.15744   -10.15612
   -10.15595   -10.15527   -10.15386   -10.15022   -10.15006   -10.14776
   -10.14761   -10.14501   -10.12633   -10.11998   -10.11725    -6.53810
    -4.69626    -4.69593    -4.69249    -3.24735    -2.22893    -1.97960
    -1.96905    -1.96235    -1.15807    -1.15721    -1.15505    -1.05975
    -1.04812    -0.92194    -0.85371    -0.83557    -0.83114    -0.82300
    -0.77225    -0.75797    -0.74713    -0.73952    -0.73750    -0.73390
    -0.73005    -0.72758    -0.72302    -0.69495    -0.67718    -0.66069
    -0.65584    -0.63778    -0.61563    -0.60629    -0.59877    -0.59501
    -0.59038    -0.57746    -0.57076    -0.55338    -0.54342    -0.53283
    -0.52742    -0.50692    -0.49680    -0.48953    -0.47732    -0.47304
    -0.46700    -0.46547    -0.46087    -0.45220    -0.43962    -0.43939
    -0.43667    -0.43363    -0.43206    -0.43021    -0.42869    -0.42500
    -0.42070    -0.41596    -0.41390    -0.41355    -0.40945    -0.40097
    -0.38830    -0.38171    -0.37851    -0.37605    -0.37455    -0.37195
    -0.36704    -0.36636    -0.36363    -0.36011    -0.35515    -0.34557
    -0.34305    -0.34159    -0.33878    -0.33853    -0.33568    -0.33475
    -0.33078    -0.32755    -0.32423    -0.32090    -0.31446    -0.31385
    -0.31185    -0.30258    -0.30060    -0.29474    -0.29145    -0.28905
    -0.28158    -0.27676    -0.26916    -0.24687    -0.23764    -0.23678
    -0.22699    -0.21904    -0.19932    -0.18708    -0.17397    -0.16567
    -0.16031    -0.12112    -0.03891    -0.00442    -0.00091     0.01363
     0.01473     0.01698     0.03133     0.04189     0.04528     0.06054
 
  end of program scf
   
 Time(scf)  user:     561.316  user+sys:     561.316  wallclock:      53.664
  
  start of program der1a
  
  end of program der1a
   
 Time(der1a)  user:      16.016  user+sys:      16.016  wallclock:       1.720
  
  start of program rwr
  
  end of program rwr
   
 Time(rwr)  user:      37.226  user+sys:      37.226  wallclock:      15.044
  
  start of program der1b
  
   
  forces (hartrees/bohr) : total     
   
 atom  label           x              y              z
 ---- --------   -------------  -------------  -------------
    1 P1          1.121240E-03   8.432012E-03   1.152890E-02
    2 Pd2        -4.719191E-03  -1.481606E-02  -3.315739E-02
    3 C3         -1.203029E-03   7.084570E-06   5.520172E-05
    4 C4         -1.187047E-04  -5.744556E-04   9.360144E-04
    5 C5          1.311326E-04  -3.820812E-04  -4.355953E-03
    6 C6          4.003643E-04  -3.339009E-04   1.025993E-04
    7 C7         -3.514206E-04   1.164654E-05  -2.485809E-04
    8 C8          6.977660E-04  -1.649349E-04  -5.974839E-04
    9 C9          6.327600E-05   3.917294E-05   4.884898E-04
   10 C10         1.715572E-03  -4.411426E-05  -3.143675E-03
   11 C11        -6.738449E-04  -4.863739E-04   1.129211E-03
   12 C12         2.437770E-04   1.918342E-04  -2.436129E-04
   13 C13        -2.290917E-05   7.426586E-05  -3.701477E-05
   14 C14         6.016231E-05   3.911402E-05   1.281960E-04
   15 C15         4.539036E-05  -7.974520E-05   5.930856E-04
   16 C16         6.746816E-05   2.055504E-03   2.559703E-04
   17 C17        -8.000959E-05  -1.265856E-04   3.299601E-04
   18 C18         1.048362E-04  -6.510441E-04   3.671429E-04
   19 C19        -4.522367E-04  -6.071279E-04  -5.188154E-04
   20 C20         5.269637E-04   6.430371E-04   7.883957E-04
   21 C21        -4.265864E-04  -4.935967E-03  -1.166792E-04
   22 C22         1.280377E-02   1.453519E-02   6.261334E-03
   23 C23         3.547021E-03   4.074091E-02   8.870565E-04
   24 C24        -1.629079E-02   1.265738E-02   6.446390E-03
   25 C25         4.768905E-03   2.453793E-03  -1.442820E-02
   26 C26         5.551708E-03  -5.025984E-03   5.899588E-03
   27 O27         7.351956E-03   1.978074E-03  -5.394445E-03
   28 C28        -6.092175E-03   5.702449E-04  -1.937031E-04
   29 O29        -9.437123E-03  -3.256910E-03  -1.453243E-03
   30 C30         3.831967E-03  -7.900428E-03   2.136901E-03
   31 H31        -5.724607E-06   3.110950E-05   2.083694E-04
   32 H32         5.520634E-05   1.520687E-04   1.952101E-05
   33 H33        -2.497963E-06   4.000995E-05   2.876469E-04
   34 H34         2.991855E-05  -1.157989E-04   3.185793E-05
   35 H35         2.707701E-04  -9.244991E-05   1.986540E-04
   36 H36        -4.442211E-07   2.023920E-04   1.396510E-04
   37 H37        -2.704156E-05  -7.081063E-05   1.114584E-05
   38 H38         8.240981E-06   3.950729E-04  -1.122292E-04
   39 H39         7.062774E-04  -6.129476E-04  -1.303296E-04
   40 H40        -1.282550E-03  -1.085913E-04   1.943509E-04
   41 H41        -1.343927E-04   2.495655E-04   8.414283E-04
   42 H42         2.918539E-05   3.362619E-04  -4.048953E-05
   43 H43         1.903524E-04   8.139831E-06  -2.512201E-04
   44 H44         1.737755E-04   4.935555E-04   1.660856E-04
   45 H45        -1.042034E-05  -2.180690E-04  -1.939477E-06
   46 H46        -2.587282E-04  -5.991141E-05  -2.688671E-04
   47 H47        -8.810147E-05  -3.889639E-05  -1.453008E-04
   48 H48         1.012504E-04   2.277253E-04  -5.025754E-05
   49 H49        -2.339436E-05  -1.063411E-05   1.936177E-05
   50 H50         5.314174E-06  -1.541749E-04  -1.372029E-04
   51 H51         2.831993E-04   1.134773E-04   3.156900E-05
   52 H52         3.768606E-06   2.572029E-05   6.583584E-05
   53 H53         1.272709E-04  -9.065715E-05   2.313988E-04
   54 H54         1.156695E-04   1.640308E-04   2.780199E-04
   55 H55         8.879677E-05  -3.418993E-04   1.519807E-04
   56 H56         3.111803E-05  -4.420657E-04  -7.654074E-05
   57 H57         4.507779E-03   5.182851E-03  -7.569983E-03
   58 H58        -1.969040E-03   5.740662E-03   5.796525E-03
   59 H59         1.328934E-03   2.696685E-03  -5.302684E-05
   60 H60        -3.528334E-04  -3.132604E-04   2.250820E-04
   61 H61         2.105705E-04  -8.866670E-04   1.701159E-04
   62 H62        -3.769570E-05  -6.197799E-05   6.811691E-04
   63 H63        -5.280703E-03   5.709789E-03  -1.002898E-03
   64 H64         4.464138E-04  -1.084886E-03   3.695299E-04
   65 H65         2.887554E-03  -1.961827E-04  -4.087113E-04
   66 O93         6.356605E-04  -4.679883E-02   2.867083E-02
   67 Na94       -8.929707E-03  -9.176882E-03  -6.329091E-03
   68 C95         1.797709E-03  -9.743117E-03   4.503867E-03
   69 C96        -7.614823E-04  -2.214457E-05   6.028010E-04
   70 H97         6.478347E-04   3.019428E-04  -4.462910E-04
   71 H98         7.049400E-05   3.145743E-04   4.447996E-04
   72 H99         9.260300E-05  -4.811701E-04  -1.272651E-03
   73 C100       -6.357538E-04  -9.309072E-04  -1.317258E-03
   74 H101        1.445783E-03   1.657215E-03  -5.340760E-04
   75 H102       -2.205690E-04  -9.311005E-05   3.808576E-06
   76 H103       -1.917880E-03  -1.498824E-03   2.216108E-03
   77 C104       -2.572549E-04  -2.930606E-04  -6.755367E-04
   78 H105        5.497941E-04  -1.018840E-04   4.915952E-04
   79 H106        8.064744E-04   7.973883E-04  -3.389758E-04
   80 H107        5.949206E-04   1.364834E-03   5.402281E-04
 -------------   -------------  -------------  -------------
     total       -7.883196E-04  -2.791184E-03   8.760920E-04
   
  end of program der1b
   
 Time(der1b)  user:     195.390  user+sys:     195.390  wallclock:      17.372
  
  start of program geopt
  
 ----------------------------------------------------------------------------
  Geometry optimization step  1
  Total energy:     -2025.34453543117 hartrees
 ----------------------------------------------------------------------------
  
  
  Level shifts adjusted to satisfy step-size constraints
   Step size:    0.3001671
   Cos(theta):   0.9491931
   Final level shift:  -1.8297417E-01
  
  gradient maximum:        5.7189E-02 .  (  2.2500E-03 )
  gradient rms:            8.0700E-03 .  (  1.5000E-03 )
  displacement maximum:    1.1477E-01 .  (  9.0000E-03 )
  displacement rms:        1.7902E-02 .  (  6.0000E-03 )
  
  predicted energy change:  -2.7509E-02
  step size:     0.30009
  trust radius:  0.30000
  
  molecular structure not yet converged...
  
  center of mass moved by:
     x:    -1.8937E-02     y:     2.8975E-02     z:    -1.3955E-03
  
  new geometry: 
                                   angstroms
  atom               x                 y                 z
  P1            0.0038682816      0.0236142236      0.0220906999 
  Pd2          -0.0318886233      0.0200177008      2.2809752936 
  C3            1.7351395177      0.0058600850     -0.7191696392 
  C4           -1.0354406274     -1.1520176766     -0.9798861263 
  C5           -0.5102373461      1.6916581321     -0.6182357563 
  C6            1.7888502819     -0.1235746143     -2.2460131863 
  C7            3.2259124712      0.0302912400     -2.7593037984 
  C8            4.1626171592     -0.9786191669     -2.0899952242 
  C9            4.1067182628     -0.8505806765     -0.5654474839 
  C10           2.6736312872     -1.0010891431     -0.0418819992 
  C11          -0.5590165769     -2.5937861982     -0.7457770744 
  C12          -1.4678753447     -3.6084096686     -1.4476421412 
  C13          -2.9273119952     -3.4434967485     -1.0180106410 
  C14          -3.4076430508     -2.0105332988     -1.2601869427 
  C15          -2.5038637764     -0.9974407344     -0.5521884640 
  C16          -1.1161470421      1.8731132758     -1.8682065819 
  C17          -1.3993356974      3.1458346758     -2.3607122749 
  C18          -1.0667265271      4.2683356119     -1.6086797101 
  C19          -0.4664656080      4.1056291304     -0.3626048388 
  C20          -0.1921019205      2.8362149521      0.1485422113 
  C21           0.4315543475      2.6952886020      1.4925205324 
  C22          -0.4008566818      2.2964601552      2.5853925438 
  C23           0.1852052515      1.9414638337      3.8234462877 
  C24           1.5775391551      2.0433351414      3.9639654488 
  C25           2.3950906866      2.4986800421      2.9215608047 
  C26           1.8118798384      2.8040177352      1.6793780570 
  O27           2.5274486527      3.1703424142      0.5699940823 
  C28           3.9339731013      3.1849002064      0.6568618665 
  O29          -1.7376687099      2.5391578130      2.4069246993 
  C30          -2.4650800267      3.0844126635      3.4911677206 
  H31           2.0951570103      1.0122257741     -0.4564172761 
  H32           1.4057559960     -1.1086801061     -2.5506138263 
  H33           1.1413746990      0.6305238588     -2.7100972267 
  H34           3.5753763808      1.0512670064     -2.5431436063 
  H35           3.2527649516     -0.0870005772     -3.8509727152 
  H36           3.8592626861     -1.9973590240     -2.3764941894 
  H37           5.1917664273     -0.8449782755     -2.4491196016 
  H38           4.4905657619      0.1402259222     -0.2762292236 
  H39           4.7646621827     -1.5935632123     -0.0936882575 
  H40           2.6365896450     -0.8458698767      1.0444043266 
  H41           2.3271837874     -2.0281322435     -0.2221958250 
  H42          -0.9412540497     -0.9280835065     -2.0525523094 
  H43           0.4728782147     -2.7193358920     -1.0952682832 
  H44          -0.5489900653     -2.7851777550      0.3378156426 
  H45          -1.1175897476     -4.6277132301     -1.2376017090 
  H46          -1.3927293931     -3.4686761203     -2.5371200271 
  H47          -3.5666348342     -4.1603645648     -1.5498874740 
  H48          -3.0152903457     -3.6753711786      0.0541555274 
  H49          -4.4434827522     -1.8890948609     -0.9170288630 
  H50          -3.4087144799     -1.8054752569     -2.3419987435 
  H51          -2.5600894564     -1.1465261340      0.5370004931 
  H52          -2.8525003323      0.0249553796     -0.7416642373 
  H53          -1.3675046091      1.0120640817     -2.4814471464 
  H54          -1.8708319142      3.2553923300     -3.3351552235 
  H55          -1.2773342754      5.2662603583     -1.9866344956 
  H56          -0.2075640118      4.9736429155      0.2384959056 
  H57          -0.4256919431      1.7795907943      4.6945048272 
  H58           2.0142343606      1.8138778750      4.9363181564 
  H59           3.4662819497      2.5914518592      3.0729769687 
  H60           4.2927328887      3.4419055190     -0.3424181233 
  H61           4.3327944703      2.2003527290      0.9415660561 
  H62           4.2914341392      3.9388185957      1.3728517563 
  H63          -2.3603492108      2.4799961531      4.3987742389 
  H64          -3.5126938263      3.0870721960      3.1832025904 
  H65          -2.1434669708      4.1132997259      3.7068104957 
  O93           0.2091841083     -0.4592992636      4.3698867634 
  Na94          2.3417284981     -0.3216530250      3.9883253615 
  C95          -0.7132985951     -1.3552743869      4.9308201510 
  C96          -0.5321613534     -2.7664336858      4.3428640717 
  H97          -1.2532201812     -3.4882623238      4.7505208109 
  H98           0.4811250071     -3.1370603141      4.5539988008 
  H99          -0.6527658522     -2.7161861004      3.2533601931 
  C100         -2.1648167483     -0.9071187663      4.6743182300 
  H101         -2.8930190914     -1.5953615798      5.1238234450 
  H102         -2.3476468263     -0.8477766183      3.5925758237 
  H103         -2.3371137794      0.0887900346      5.0940671944 
  C104         -0.4702066521     -1.4015119569      6.4492539525 
  H105          0.5622615724     -1.7174129165      6.6512660067 
  H106         -1.1461504071     -2.1001773361      6.9594416417 
  H107         -0.6111014665     -0.4055808306      6.8868281392 
   
 
  bond lengths (angstroms):
 
 P1      -Pd2     :   2.259170      P1      -C3      :   1.883370
 P1      -C4      :   1.861782      P1      -C5      :   1.859218
 Pd2     -O93     :   2.156713      Pd2     -Na94    :   2.943780
 C3      -C6      :   1.533261      C3      -C10     :   1.534090
 C3      -H31     :   1.100647      C4      -C11     :   1.536386
 C4      -C15     :   1.537233      C4      -H42     :   1.099832
 C5      -C16     :   1.400885      C5      -C20     :   1.413920
 C6      -C7      :   1.533718      C6      -H32     :   1.099989
 C6      -H33     :   1.096934      C7      -C8      :   1.530781
 C7      -H34     :   1.100564      C7      -H35     :   1.098280
 C8      -C9      :   1.530936      C8      -H36     :   1.100880
 C8      -H37     :   1.098170      C9      -C10     :   1.533138
 C9      -H38     :   1.101219      C9      -H39     :   1.098849
 C10     -H40     :   1.097945      C10     -H41     :   1.098798
 C11     -C12     :   1.532351      C11     -H43     :   1.096683
 C11     -H44     :   1.100411      C12     -C13     :   1.530273
 C12     -H45     :   1.098088      C12     -H46     :   1.100970
 C13     -C14     :   1.530605      C13     -H47     :   1.097965
 C13     -H48     :   1.100475      C14     -C15     :   1.531155
 C14     -H49     :   1.097938      C14     -H50     :   1.101075
 C15     -H51     :   1.100782      C15     -H52     :   1.096696
 C16     -C17     :   1.393764      C16     -H53     :   1.086577
 C17     -C18     :   1.391471      C17     -H54     :   1.088049
 C18     -C19     :   1.392655      C18     -H55     :   1.087685
 C19     -C20     :   1.395693      C19     -H56     :   1.087106
 C20     -C21     :   1.488316      C21     -C22     :   1.430504
 C21     -C26     :   1.397153      C22     -C23     :   1.415015
 C22     -O29     :   1.370335      C23     -C24     :   1.403110
 C23     -H57     :   1.076170      C24     -C25     :   1.400834
 C24     -H58     :   1.090332      C24     -Na94    :   2.485508
 C25     -C26     :   1.405839      C25     -H59     :   1.085810
 C26     -O27     :   1.370024      O27     -C28     :   1.409280
 C28     -H60     :   1.092392      C28     -H61     :   1.099749
 C28     -H62     :   1.099460      O29     -C30     :   1.414925
 C30     -H63     :   1.095462      C30     -H64     :   1.091945
 C30     -H65     :   1.099339      O93     -Na94    :   2.170779
 O93     -C95     :   1.402994      C95     -C96     :   1.539439
 C95     -C100    :   1.540630      C95     -C104    :   1.538464
 C96     -H97     :   1.098702      C96     -H98     :   1.099405
 C96     -H99     :   1.097310      C100    -H101    :   1.098186
 C100    -H102    :   1.098688      C100    -H103    :   1.094399
 C104    -H105    :   1.098450      C104    -H106    :   1.097873
 C104    -H107    :   1.096905
 
  bond angles:
 
 C3      -P1      -Pd2     : 114.083424  C4      -P1      -Pd2     : 121.888839
 C4      -P1      -C3      : 107.180329  C5      -P1      -Pd2     : 109.963070
 C5      -P1      -C3      :  97.301541  C5      -P1      -C4      : 103.109426
 O93     -Pd2     -P1      : 165.245189  Na94    -Pd2     -P1      : 124.564600
 Na94    -Pd2     -O93     :  47.337745  C6      -C3      -P1      : 115.146344
 C10     -C3      -P1      : 113.252108  C10     -C3      -C6      : 111.272441
 H31     -C3      -P1      : 101.426055  H31     -C3      -C6      : 107.665214
 H31     -C3      -C10     : 107.137007  C11     -C4      -P1      : 109.721974
 C15     -C4      -P1      : 108.663747  C15     -C4      -C11     : 110.376096
 H42     -C4      -P1      : 110.396449  H42     -C4      -C11     : 108.247697
 H42     -C4      -C15     : 109.431738  C16     -C5      -P1      : 122.895813
 C20     -C5      -P1      : 118.506934  C20     -C5      -C16     : 118.447303
 C7      -C6      -C3      : 110.954343  H32     -C6      -C3      : 109.825378
 H32     -C6      -C7      : 108.874287  H33     -C6      -C3      : 110.034883
 H33     -C6      -C7      : 110.029457  H33     -C6      -H32     : 107.033870
 C8      -C7      -C6      : 111.155490  H34     -C7      -C6      : 108.956830
 H34     -C7      -C8      : 109.344170  H35     -C7      -C6      : 110.172702
 H35     -C7      -C8      : 110.441642  H35     -C7      -H34     : 106.650655
 C9      -C8      -C7      : 110.974017  H36     -C8      -C7      : 109.117199
 H36     -C8      -C9      : 109.055998  H37     -C8      -C7      : 110.503392
 H37     -C8      -C9      : 110.468741  H37     -C8      -H36     : 106.603439
 C10     -C9      -C8      : 111.468771  H38     -C9      -C8      : 108.908647
 H38     -C9      -C10     : 108.932658  H39     -C9      -C8      : 110.433405
 H39     -C9      -C10     : 110.285156  H39     -C9      -H38     : 106.671971
 C9      -C10     -C3      : 110.893322  H40     -C10     -C3      : 108.866852
 H40     -C10     -C9      : 110.825934  H41     -C10     -C3      : 110.376275
 H41     -C10     -C9      : 109.295482  H41     -C10     -H40     : 106.490822
 C12     -C11     -C4      : 111.570361  H43     -C11     -C4      : 110.526848
 H43     -C11     -C12     : 109.652044  H44     -C11     -C4      : 108.426572
 H44     -C11     -C12     : 109.954387  H44     -C11     -H43     : 106.578269
 C13     -C12     -C11     : 111.451154  H45     -C12     -C11     : 109.743907
 H45     -C12     -C13     : 110.521721  H46     -C12     -C11     : 109.191755
 H46     -C12     -C13     : 109.222746  H46     -C12     -H45     : 106.578071
 C14     -C13     -C12     : 110.840134  H47     -C13     -C12     : 110.423787
 H47     -C13     -C14     : 110.602307  H48     -C13     -C12     : 109.091075
 H48     -C13     -C14     : 109.045958  H48     -C13     -H47     : 106.728599
 C15     -C14     -C13     : 111.164604  H49     -C14     -C13     : 110.497492
 H49     -C14     -C15     : 109.826435  H50     -C14     -C13     : 109.275683
 H50     -C14     -C15     : 109.369400  H50     -C14     -H49     : 106.592502
 C14     -C15     -C4      : 111.632732  H51     -C15     -C4      : 108.087456
 H51     -C15     -C14     : 109.740740  H52     -C15     -C4      : 110.447025
 H52     -C15     -C14     : 110.444296  H52     -C15     -H51     : 106.318278
 C17     -C16     -C5      : 121.430032  H53     -C16     -C5      : 120.065473
 H53     -C16     -C17     : 118.501941  C18     -C17     -C16     : 119.808088
 H54     -C17     -C16     : 119.766252  H54     -C17     -C18     : 120.423219
 C19     -C18     -C17     : 119.495428  H55     -C18     -C17     : 120.400619
 H55     -C18     -C19     : 120.103260  C20     -C19     -C18     : 121.243432
 H56     -C19     -C18     : 120.271805  H56     -C19     -C20     : 118.483151
 C19     -C20     -C5      : 119.565002  C21     -C20     -C5      : 120.487319
 C21     -C20     -C19     : 119.947678  C22     -C21     -C20     : 118.193370
 C26     -C21     -C20     : 121.829301  C26     -C21     -C22     : 119.631086
 C23     -C22     -C21     : 119.826273  O29     -C22     -C21     : 114.758162
 O29     -C22     -C23     : 124.223544  C24     -C23     -C22     : 118.711650
 H57     -C23     -C22     : 120.717726  H57     -C23     -C24     : 119.548441
 C25     -C24     -C23     : 121.884722  H58     -C24     -C23     : 118.129924
 H58     -C24     -C25     : 119.885682  Na94    -C24     -C23     : 103.709242
 Na94    -C24     -C25     :  97.882751  Na94    -C24     -H58     :  70.602193
 C26     -C25     -C24     : 119.077445  H59     -C25     -C24     : 119.984346
 H59     -C25     -C26     : 120.925478  C25     -C26     -C21     : 120.738635
 O27     -C26     -C21     : 115.373908  O27     -C26     -C25     : 123.840785
 C28     -O27     -C26     : 118.302830  H60     -C28     -O27     : 105.891649
 H61     -C28     -O27     : 111.632263  H61     -C28     -H60     : 109.167964
 H62     -C28     -O27     : 111.821300  H62     -C28     -H60     : 109.123643
 H62     -C28     -H61     : 109.110572  C30     -O29     -C22     : 118.032569
 H63     -C30     -O29     : 111.907677  H64     -C30     -O29     : 106.143634
 H64     -C30     -H63     : 109.070757  H65     -C30     -O29     : 111.135593
 H65     -C30     -H63     : 109.020041  H65     -C30     -H64     : 109.494571
 Na94    -O93     -Pd2     :  85.725841  C95     -O93     -Pd2     : 117.108460
 C95     -O93     -Na94    : 139.174011  C24     -Na94    -Pd2     :  68.652094
 O93     -Na94    -Pd2     :  46.936414  O93     -Na94    -C24     :  76.114289
 C96     -C95     -O93     : 110.814044  C100    -C95     -O93     : 111.539693
 C100    -C95     -C96     : 108.295751  C104    -C95     -O93     : 108.053601
 C104    -C95     -C96     : 109.318188  C104    -C95     -C100    : 108.780069
 H97     -C96     -C95     : 112.538694  H98     -C96     -C95     : 110.128351
 H98     -C96     -H97     : 108.188242  H99     -C96     -C95     : 108.923383
 H99     -C96     -H97     : 109.047273  H99     -C96     -H98     : 107.903533
 H101    -C100    -C95     : 111.980421  H102    -C100    -C95     : 109.658769
 H102    -C100    -H101    : 109.057003  H103    -C100    -C95     : 110.437456
 H103    -C100    -H101    : 107.994358  H103    -C100    -H102    : 107.594465
 H105    -C104    -C95     : 109.796069  H106    -C104    -C95     : 112.364484
 H106    -C104    -H105    : 108.072730  H107    -C104    -C95     : 110.251369
 H107    -C104    -H105    : 107.967825  H107    -C104    -H106    : 108.260481
 
  torsional angles:
 
 P1      -Pd2     -O93     -Na94    :  61.976052
 P1      -Pd2     -O93     -C95     : -82.531914
 P1      -Pd2     -Na94    -C24     : 105.121347
 P1      -Pd2     -Na94    -O93     :-164.156420
 P1      -C3      -C6      -C7      : 173.617447
 P1      -C3      -C6      -H32     : -65.965628
 P1      -C3      -C6      -H33     :  51.610009
 P1      -C3      -C10     -C9      :-172.989293
 P1      -C3      -C10     -H40     : -50.807429
 P1      -C3      -C10     -H41     :  65.739451
 P1      -C4      -C11     -C12     : 174.680208
 P1      -C4      -C11     -H43     : -63.032157
 P1      -C4      -C11     -H44     :  53.447438
 P1      -C4      -C15     -C14     :-175.683285
 P1      -C4      -C15     -H51     : -54.901106
 P1      -C4      -C15     -H52     :  61.025789
 P1      -C5      -C16     -C17     :-175.183968
 P1      -C5      -C16     -H53     :   4.225932
 P1      -C5      -C20     -C19     : 174.642553
 P1      -C5      -C20     -C21     :  -5.347818
 Pd2     -P1      -C3      -C6      : 174.562063
 Pd2     -P1      -C3      -C10     :  44.925298
 Pd2     -P1      -C3      -H31     : -69.533107
 Pd2     -P1      -C4      -C11     : -65.833526
 Pd2     -P1      -C4      -C15     :  54.929972
 Pd2     -P1      -C4      -H42     : 174.945321
 Pd2     -P1      -C5      -C16     :-152.509132
 Pd2     -P1      -C5      -C20     :  32.015471
[...]
    O27      Z    -0.00000   0.00002  -0.00004   0.00004  -0.00032   0.00003
    C28      X     0.00004  -0.00005  -0.00001   0.00006  -0.00082   0.00004
    C28      Y    -0.00004   0.00009  -0.00011   0.00002   0.00028   0.00001
    C28      Z    -0.00009   0.00001   0.00005  -0.00010  -0.00232   0.00003
    O29      X     0.00000   0.00001  -0.00004   0.00005   0.00007  -0.00012
    O29      Y     0.00001  -0.00002   0.00002  -0.00000  -0.00000   0.00005
    O29      Z    -0.00001   0.00001  -0.00000  -0.00001   0.00001  -0.00036
    C30      X    -0.00017   0.00010   0.00003  -0.00010   0.00019  -0.00086
    C30      Y     0.00000   0.00002  -0.00005   0.00001   0.00001  -0.00028
    C30      Z    -0.00007   0.00003  -0.00003   0.00002   0.00026  -0.00129
    H31      X    -0.00017   0.00025  -0.00012   0.00039  -0.00007  -0.00012
    H31      Y    -0.00033   0.00039  -0.00027   0.00030   0.00012  -0.00020
    H31      Z    -0.00009   0.00011  -0.00008   0.00008  -0.00000  -0.00004
    H32      X    -0.00023  -0.00023  -0.00033  -0.00060   0.00001  -0.00003
    H32      Y    -0.00047  -0.00043  -0.00065  -0.00098   0.00000  -0.00008
    H32      Z    -0.00014  -0.00013  -0.00021  -0.00030  -0.00001  -0.00002
    H33      X     0.00075   0.00127   0.00220   0.00521   0.00008   0.00005
    H33      Y    -0.00117  -0.00181  -0.00308  -0.00709  -0.00010  -0.00005
    H33      Z     0.00084   0.00117   0.00193   0.00411   0.00009   0.00005
    H34      X     0.00011   0.00004   0.00020   0.00020   0.00008  -0.00002
    H34      Y     0.00026   0.00007   0.00050   0.00048   0.00025  -0.00004
    H34      Z     0.00007   0.00003   0.00012   0.00005   0.00004  -0.00000
    H35      X     0.00002  -0.00002  -0.00002  -0.00011   0.00003  -0.00000
    H35      Y    -0.00007  -0.00006  -0.00005   0.00010   0.00000  -0.00001
    H35      Z    -0.00055  -0.00041  -0.00037   0.00080   0.00003  -0.00005
    H36      X    -0.00001  -0.00004  -0.00001   0.00003   0.00007  -0.00002
    H36      Y     0.00001  -0.00008   0.00005   0.00009   0.00023  -0.00004
    H36      Z     0.00001  -0.00003   0.00002   0.00004   0.00011  -0.00001
    H37      X     0.00040   0.00017   0.00067   0.00017   0.00020   0.00005
    H37      Y     0.00002  -0.00000   0.00003  -0.00007   0.00001   0.00001
    H37      Z    -0.00014  -0.00003  -0.00020   0.00006  -0.00008  -0.00001
    H38      X     0.00010  -0.00007   0.00010   0.00007   0.00037  -0.00003
    H38      Y     0.00024  -0.00017   0.00028   0.00016   0.00084  -0.00007
    H38      Z     0.00006  -0.00005   0.00007   0.00006   0.00018  -0.00002
    H39      X     0.00020   0.00003   0.00029  -0.00012   0.00009   0.00006
    H39      Y    -0.00018  -0.00006  -0.00029   0.00006  -0.00006  -0.00006
    H39      Z     0.00009   0.00004   0.00016   0.00003   0.00002   0.00003
    H40      X    -0.00000   0.00003   0.00004   0.00017  -0.00008   0.00001
    H40      Y     0.00006  -0.00001   0.00006   0.00007   0.00004   0.00002
    H40      Z     0.00061   0.00001   0.00075   0.00162   0.00053   0.00000
    H41      X    -0.00003  -0.00000  -0.00000   0.00024   0.00014  -0.00004
    H41      Y    -0.00010  -0.00000  -0.00000   0.00070   0.00028  -0.00011
    H41      Z    -0.00002  -0.00001  -0.00002   0.00007   0.00009  -0.00003
    H42      X    -0.00009  -0.00017  -0.00005   0.00031  -0.00003  -0.00002
    H42      Y    -0.00177  -0.00200  -0.00265  -0.00602   0.00004   0.00001
    H42      Z     0.00498   0.00582   0.00730   0.01394  -0.00011   0.00007
    H43      X     0.00020  -0.00000   0.00039  -0.00001   0.00024   0.00002
    H43      Y    -0.00002  -0.00001  -0.00006  -0.00005  -0.00004   0.00000
    H43      Z    -0.00006  -0.00001  -0.00013  -0.00002  -0.00008  -0.00001
    H44      X     0.00002   0.00002   0.00002   0.00000   0.00000  -0.00000
    H44      Y    -0.00007  -0.00015  -0.00019  -0.00029   0.00002  -0.00002
    H44      Z    -0.00024  -0.00007  -0.00021  -0.00084  -0.00001   0.00011
    H45      X     0.00006   0.00006   0.00016   0.00017   0.00003   0.00002
    H45      Y    -0.00028  -0.00018  -0.00063  -0.00026  -0.00015  -0.00008
    H45      Z     0.00004   0.00005   0.00010   0.00011   0.00002   0.00001
    H46      X     0.00002   0.00001   0.00000   0.00002  -0.00000  -0.00001
    H46      Y     0.00005   0.00003   0.00006   0.00003   0.00001  -0.00000
    H46      Z    -0.00017  -0.00002   0.00001   0.00044  -0.00006   0.00002
    H47      X    -0.00027  -0.00019  -0.00038  -0.00002  -0.00007  -0.00004
    H47      Y    -0.00030  -0.00024  -0.00045  -0.00015  -0.00008  -0.00004
    H47      Z    -0.00023  -0.00017  -0.00034  -0.00006  -0.00007  -0.00003
    H48      X     0.00001   0.00001  -0.00000  -0.00002   0.00001  -0.00001
    H48      Y     0.00004   0.00004  -0.00004  -0.00009   0.00001  -0.00002
    H48      Z    -0.00008  -0.00010   0.00019   0.00029  -0.00001   0.00007
    H49      X    -0.00037  -0.00023  -0.00050   0.00051  -0.00006  -0.00011
    H49      Y     0.00003   0.00002   0.00006   0.00002   0.00001   0.00001
    H49      Z     0.00012   0.00009   0.00015  -0.00017   0.00002   0.00003
    H50      X     0.00004   0.00004   0.00004  -0.00001   0.00000   0.00000
    H50      Y     0.00014   0.00012   0.00010   0.00019   0.00000  -0.00001
    H50      Z    -0.00065  -0.00045  -0.00013  -0.00012  -0.00002   0.00006
    H51      X    -0.00000  -0.00001  -0.00002   0.00010   0.00001   0.00000
    H51      Y    -0.00011  -0.00017  -0.00033  -0.00045  -0.00000  -0.00004
    H51      Z     0.00028   0.00044   0.00087   0.00069   0.00003   0.00014
    H52      X     0.00067   0.00089   0.00125   0.00231   0.00006   0.00005
    H52      Y    -0.00112  -0.00180  -0.00249  -0.00503  -0.00013  -0.00007
    H52      Z     0.00009   0.00012   0.00012   0.00028   0.00002  -0.00000
    H53      X     0.04778   0.05098   0.08319   0.20513  -0.00116  -0.00032
    H53      Y     0.15240   0.16210   0.26982   0.67606  -0.00372  -0.00091
    H53      Z     0.10784   0.11501   0.18832   0.46581  -0.00263  -0.00069
    H54      X    -0.33428  -0.26082  -0.08852   0.17292  -0.00120  -0.00028
    H54      Y     0.06627   0.04929   0.01263  -0.03563   0.00022   0.00004
    H54      Z    -0.59203  -0.46236  -0.15749   0.30610  -0.00209  -0.00052
    H55      X     0.13983  -0.08194  -0.16606   0.05405  -0.00087  -0.00033
    H55      Y    -0.50948   0.30970   0.60455  -0.20195   0.00311   0.00112
    H55      Z     0.17623  -0.10163  -0.20949   0.06770  -0.00111  -0.00043
    H56      X     0.07684  -0.16696   0.13975  -0.03296   0.00060   0.00027
    H56      Y     0.25401  -0.54948   0.45050  -0.10518   0.00190   0.00064
    H56      Z     0.17291  -0.37543   0.31291  -0.07365   0.00143   0.00050
    H57      X    -0.00022  -0.00004   0.00054  -0.00073   0.02713  -0.48100
    H57      Y    -0.00008   0.00003   0.00007  -0.00014   0.00659  -0.10928
    H57      Z     0.00036  -0.00008  -0.00069   0.00105  -0.04846   0.80792
    H58      X    -0.00108   0.00077  -0.00047   0.00049   0.06564   0.05233
    H58      Y     0.00001  -0.00001   0.00000  -0.00002  -0.00071  -0.00049
    H58      Z    -0.00195   0.00138  -0.00086   0.00093   0.12621   0.08812
    H59      X     0.00072  -0.00004  -0.00255   0.00614   0.93637   0.03959
    H59      Y     0.00005   0.00003  -0.00026   0.00057   0.08364   0.00372
    H59      Z     0.00002  -0.00008   0.00003   0.00009   0.02705   0.00009
    H60      X    -0.00026   0.00005   0.00018  -0.00030  -0.00200   0.00007
    H60      Y    -0.00014   0.00007  -0.00001  -0.00014  -0.00181   0.00001
    H60      Z     0.00106  -0.00023  -0.00072   0.00124   0.01934   0.00000
    H61      X    -0.00025   0.00048  -0.00036  -0.00009   0.00724  -0.00015
    H61      Y     0.00034  -0.00077   0.00069   0.00002  -0.01521   0.00022
    H61      Z    -0.00019   0.00036  -0.00033  -0.00005   0.00781  -0.00000
    H62      X     0.00008  -0.00013   0.00026  -0.00012   0.00354  -0.00014
    H62      Y     0.00030  -0.00033   0.00060  -0.00012   0.01283  -0.00034
    H62      Z     0.00017  -0.00025   0.00046  -0.00011   0.00881  -0.00012
    H63      X     0.00025  -0.00008  -0.00007   0.00000  -0.00076   0.00425
    H63      Y    -0.00053   0.00008   0.00016  -0.00000   0.00177  -0.00722
    H63      Z     0.00015   0.00004  -0.00010  -0.00003  -0.00073   0.00345
    H64      X     0.00174  -0.00098  -0.00021   0.00099  -0.00207   0.01091
    H64      Y     0.00031  -0.00017  -0.00009   0.00019  -0.00031   0.00123
    H64      Z     0.00063  -0.00035  -0.00009   0.00035  -0.00097   0.00615
    H65      X    -0.00002   0.00000   0.00001   0.00002  -0.00004   0.00192
    H65      Y     0.00015  -0.00015   0.00045  -0.00031  -0.00159   0.00999
    H65      Z     0.00007  -0.00012   0.00049  -0.00038  -0.00140   0.00927
    O93      X    -0.00000  -0.00000  -0.00001   0.00002  -0.00001   0.00005
    O93      Y     0.00000  -0.00001  -0.00000   0.00001  -0.00002   0.00011
    O93      Z     0.00001  -0.00000   0.00001  -0.00003   0.00001   0.00002
    Na94     X    -0.00000   0.00000  -0.00000   0.00001  -0.00004   0.00002
    Na94     Y    -0.00000   0.00001   0.00000  -0.00001  -0.00000  -0.00001
    Na94     Z    -0.00000   0.00000  -0.00000   0.00001  -0.00000  -0.00003
    C95      X     0.00001   0.00000   0.00001  -0.00003   0.00001  -0.00006
    C95      Y     0.00000   0.00000   0.00001  -0.00003   0.00001  -0.00002
    C95      Z    -0.00000  -0.00000  -0.00001   0.00002  -0.00001   0.00008
    C96      X     0.00001   0.00000   0.00001  -0.00003   0.00000  -0.00002
    C96      Y     0.00000   0.00001   0.00000  -0.00002   0.00000  -0.00002
    C96      Z    -0.00003   0.00000  -0.00003   0.00005  -0.00002   0.00001
    H97      X    -0.00010  -0.00006  -0.00014   0.00038  -0.00012   0.00033
    H97      Y    -0.00012  -0.00007  -0.00016   0.00045  -0.00016   0.00049
    H97      Z     0.00007   0.00004   0.00009  -0.00027   0.00009  -0.00025
    H98      X     0.00009  -0.00001   0.00012  -0.00003   0.00012   0.00004
    H98      Y     0.00001   0.00000   0.00002  -0.00002   0.00002  -0.00002
    H98      Z     0.00005  -0.00001   0.00008  -0.00000   0.00009   0.00005
    H99      X    -0.00007   0.00001  -0.00008   0.00008  -0.00002   0.00003
    H99      Y     0.00010  -0.00002   0.00011  -0.00016   0.00003  -0.00005
    H99      Z     0.00025  -0.00005   0.00026  -0.00030   0.00004  -0.00006
    C100     X     0.00002   0.00000   0.00002  -0.00004   0.00001   0.00000
    C100     Y    -0.00001   0.00002   0.00000  -0.00002   0.00002  -0.00003
    C100     Z    -0.00002  -0.00001  -0.00003   0.00006  -0.00002  -0.00001
    H101     X    -0.00012  -0.00010  -0.00018   0.00053  -0.00020   0.00023
    H101     Y    -0.00011  -0.00010  -0.00017   0.00049  -0.00018   0.00021
    H101     Z     0.00009   0.00007   0.00013  -0.00039   0.00014  -0.00008
    H102     X    -0.00005   0.00001  -0.00007   0.00001  -0.00000  -0.00005
    H102     Y     0.00012  -0.00001   0.00015  -0.00019   0.00006   0.00010
    H102     Z     0.00024  -0.00003   0.00027  -0.00034   0.00009   0.00012
    H103     X    -0.00006   0.00008   0.00000  -0.00004   0.00010  -0.00014
    H103     Y     0.00012  -0.00013   0.00001  -0.00002  -0.00015   0.00016
    H103     Z    -0.00003   0.00002  -0.00002   0.00001   0.00002  -0.00005
    C104     X     0.00001   0.00000   0.00001  -0.00002   0.00000  -0.00007
    C104     Y    -0.00001   0.00003   0.00000  -0.00003   0.00003   0.00003
    C104     Z    -0.00000  -0.00001  -0.00001   0.00002  -0.00001  -0.00003
    H105     X     0.00004  -0.00001   0.00007   0.00005   0.00003   0.00035
    H105     Y     0.00000   0.00001   0.00001  -0.00000   0.00002   0.00008
    H105     Z     0.00002  -0.00001   0.00004   0.00006   0.00001   0.00027
    H106     X    -0.00003  -0.00010  -0.00011   0.00039  -0.00017   0.00015
    H106     Y    -0.00002  -0.00010  -0.00010   0.00037  -0.00017   0.00009
    H106     Z     0.00003   0.00008   0.00009  -0.00034   0.00014  -0.00011
    H107     X    -0.00009   0.00011  -0.00004  -0.00008   0.00015   0.00037
    H107     Y     0.00017  -0.00020   0.00009   0.00010  -0.00024  -0.00062
    H107     Z    -0.00002   0.00001  -0.00002   0.00001   0.00001   0.00016
  
  Number of imaginary frequencies:   0
   
  Writing vibrational animation data to L1_NaOtBu_PL145.vib
  Writing IR vibrational spectrum data to L1_NaOtBu_PL145_vib.spm
  rotational symmetry number:  1

  rotational temperatures (K):      0.005184      0.004545      0.003769
   
  The Quasi-Harmonic approximation will be applied to compute
  vibrational constributions to thermodynamic properties.
  Frequencies will be adjusted to a minimum value of  100.00 cm^-1.

  vibrational temperatures:
       mode:      1        2        3        4        5        6
  temp. (K):   143.88   143.88   143.88   143.88   143.88   143.88
   
       mode:      7        8        9       10       11       12
  temp. (K):   143.88   143.88   143.88   143.88   143.88   143.88
   
       mode:     13       14       15       16       17       18
  temp. (K):   143.88   143.88   143.88   145.28   162.96   178.81
   
       mode:     19       20       21       22       23       24
  temp. (K):   192.71   210.19   217.16   220.17   245.40   248.45
   
       mode:     25       26       27       28       29       30
  temp. (K):   258.20   284.51   311.32   318.92   328.53   333.97
   
       mode:     31       32       33       34       35       36
  temp. (K):   352.81   359.13   369.93   375.81   395.55   408.48
   
       mode:     37       38       39       40       41       42
  temp. (K):   427.58   432.45   445.66   455.99   470.05   487.37
   
       mode:     43       44       45       46       47       48
  temp. (K):   488.79   496.75   516.90   545.04   550.03   565.54
   
       mode:     49       50       51       52       53       54
  temp. (K):   589.24   621.43   632.91   643.78   648.98   658.90
   
       mode:     55       56       57       58       59       60
  temp. (K):   680.68   692.14   702.46   711.58   732.63   764.78
   
       mode:     61       62       63       64       65       66
  temp. (K):   770.16   779.60   798.79   823.03   865.75   884.77
   
       mode:     67       68       69       70       71       72
  temp. (K):   910.73   978.04  1041.58  1051.95  1064.22  1095.60
   
       mode:     73       74       75       76       77       78
  temp. (K):  1104.53  1109.39  1129.63  1130.84  1141.03  1165.14
   
       mode:     79       80       81       82       83       84
  temp. (K):  1167.82  1202.32  1204.14  1212.41  1257.14  1262.61
   
       mode:     85       86       87       88       89       90
  temp. (K):  1292.84  1297.48  1304.13  1311.59  1317.71  1318.45
   
       mode:     91       92       93       94       95       96
  temp. (K):  1327.65  1357.33  1358.23  1364.01  1376.99  1385.08
   
       mode:     97       98       99      100      101      102
  temp. (K):  1405.59  1450.87  1452.67  1470.26  1474.93  1482.43
   
       mode:    103      104      105      106      107      108
  temp. (K):  1510.66  1517.15  1521.20  1528.55  1538.20  1551.15
   
       mode:    109      110      111      112      113      114
  temp. (K):  1562.03  1570.17  1590.04  1591.81  1602.58  1608.25
   
       mode:    115      116      117      118      119      120
  temp. (K):  1615.82  1634.11  1639.27  1658.84  1673.32  1676.81
   
       mode:    121      122      123      124      125      126
  temp. (K):  1702.65  1717.17  1739.70  1744.43  1746.82  1751.85
   
       mode:    127      128      129      130      131      132
  temp. (K):  1765.86  1766.87  1773.34  1794.05  1807.87  1813.40
   
       mode:    133      134      135      136      137      138
  temp. (K):  1813.83  1843.26  1867.75  1869.23  1872.40  1880.96
   
       mode:    139      140      141      142      143      144
  temp. (K):  1888.53  1892.96  1901.90  1907.45  1922.91  1930.34
   
       mode:    145      146      147      148      149      150
  temp. (K):  1936.48  1944.63  1977.38  1978.21  1993.90  1997.53
   
       mode:    151      152      153      154      155      156
  temp. (K):  2004.13  2007.01  2007.84  2009.98  2013.10  2017.11
   
       mode:    157      158      159      160      161      162
  temp. (K):  2019.04  2020.11  2021.88  2055.45  2127.51  2132.71
   
       mode:    163      164      165      166      167      168
  temp. (K):  2146.97  2154.07  2156.31  2161.47  2165.48  2168.10
   
       mode:    169      170      171      172      173      174
  temp. (K):  2169.56  2171.84  2173.99  2175.07  2177.24  2180.53
   
       mode:    175      176      177      178      179      180
  temp. (K):  2183.44  2186.11  2188.41  2189.09  2193.68  2195.34
   
       mode:    181      182      183      184      185      186
  temp. (K):  2200.63  2203.09  2206.95  2213.90  2217.50  2227.42
   
       mode:    187      188      189      190      191      192
  temp. (K):  2344.08  2366.70  2375.34  2386.99  4342.99  4345.13
   
       mode:    193      194      195      196      197      198
  temp. (K):  4345.22  4347.29  4349.21  4353.26  4353.88  4357.75
   
       mode:    199      200      201      202      203      204
  temp. (K):  4360.76  4361.84  4363.15  4366.45  4369.33  4371.13
   
       mode:    205      206      207      208      209      210
  temp. (K):  4378.79  4381.12  4407.76  4425.53  4426.57  4427.52
   
       mode:    211      212      213      214      215      216
  temp. (K):  4430.74  4437.53  4438.42  4440.69  4447.84  4452.28
   
       mode:    217      218      219      220      221      222
  temp. (K):  4457.14  4457.39  4460.93  4463.87  4472.83  4474.33
   
       mode:    223      224      225      226      227      228
  temp. (K):  4482.33  4489.20  4493.57  4542.29  4550.27  4562.89
   
       mode:    229      230      231      232      233      234
  temp. (K):  4572.92  4590.71  4611.51  4626.23  4643.96  4680.07
   
   
  Thermodynamic properties calculated assuming an ideal gas

  In the table below, the units for temperature
  are kelvins, the units for U, H, and G are
  kcal/mol and the units for Cv and S are cal/(mol K)

  The zero point energy (ZPE):    435.299 kcal/mol
  is not included in U, H, or G in the table below
  
 
  =============================================================================
  Thermodynamic properties for P = 1.00E+00 atm, calculated at   1 temperatures


  T =   298.15 K, P = 1.00E+00 atm
   
                  U         Cv          S          H          G        ln(Q)
              =========  =========  =========  =========  =========  =========
  trans.          0.889      2.981     45.119      1.481    -11.971   20.20470
  rot.            0.889      2.981     37.235      0.889    -10.213   17.23721
  vib.           21.929    142.304    134.658     21.929    -18.219   30.75032
  elec.           0.000      0.000      0.000      0.000      0.000    0.00000
  ----------------------------------------------------------------------------
  total          23.707    148.266    217.012     24.299    -40.403   68.19223
   
   Total internal energy, Utot(SCFE + ZPE + U):   -2024.700084 hartrees
   Total enthalpy, Htot (Utot + nRT), with n=1:   -2024.699140 hartrees
    Total Gibbs free energy, Gtot (Htot - T*S):   -2024.802250 hartrees
   
  end of program freq
   
 Time(freq)  user:       0.818  user+sys:       0.818  wallclock:       0.310
  
  start of program post
  
  Writing input files for PBF
  end of program post
   
 Time(post)  user:       0.237  user+sys:       0.237  wallclock:       0.085

 Total cpu seconds     user:  111992.481   user+sys:  111992.481
  
 Total elapsed time:    14002 seconds

Job L1_NaOtBu_PL145 completed on bp1-compute192 at Fri Nov 28 15:53:28 2025
