Job L1_PL145 started on bp1-compute092.data.bp.acrc.priv at Sat Mar 23 02:51:41 2024
jobid: bp1-compute092-0-65fe43ba

  +--------------------------------------------------------------------+
  |  Jaguar version 11.4, release 135                                  |
  |                                                                    |
  |  Copyright Schrodinger, Inc.                                       |
  |  All Rights Reserved.                                              |
  |                                                                    |
  |  The following have contributed to Jaguar (listed alphabetically): |
  |  Mike Beachy, Art Bochevarov, Dale Braden, Yixiang Cao,            |
  |  Alan Chien, Chris Cortis, Rich Friesner, Bill Goddard,            |
  |  Hod Greeley, Tom Hughes, Leif Jacobson, Jean-Marc Langlois,       |
  |  Daniel Levine, Daniel Mainz, Rob Murphy, Dean Philipp,            |
  |  Tom Pollard, Murco Ringnalda, Mark Watson, Haoyu Yu.              |
  |                                                                    |
  |  Use of this program should be acknowledged in publications as:    |
  |                                                                    |
  |  Jaguar, version 11.4, Schrodinger, Inc., New York, NY, 2021.      |
  |                                                                    |
  |  A. D. Bochevarov, E. Harder, T. F. Hughes, J. R. Greenwood,       |
  |  D. A. Braden, D. M. Philipp, D. Rinaldo, M. D. Halls,             |
  |  J. Zhang, R. A. Friesner, "Jaguar: A High-Performance Quantum     |
  |  Chemistry Software Program with Strengths in Life and Materials   |
  |  Sciences", Int. J. Quantum Chem., 2013, 113(18), 2110-2142.       |
  +--------------------------------------------------------------------+
  
  start of program pre
  
  Job name: L1_PL145
  Executables used: /sw/apps/schrodinger2021-4/jaguar-v11.4/bin/Linux-x86_64
  Temporary files : /tmp/ar21627/L1_PL145
  Maestro file (input):  L1_PL145.mae
  Maestro file (output): L1_PL145.01.mae
  
 Contents of input file: &gen section only
 ----------------Contents start----------------
&gen
dftname=b3pw91-d3
basis=6-31G*
numd=5
ip11=2
iaccg=3
isolv=2
igeopt=1
solvent=benzene
ifreq=1
&
 -----------------Contents end-----------------
 
  basis set:             non_standard                    
  net molecular charge:    0
  multiplicity:            1
  
  This run will use ECP on 1 atom
  number of basis functions....          511
  
 Input geometry:
                                   angstroms
  atom               x                 y                 z
  P1            0.0000000000      0.0000000000      0.0000000000 
  Pd2           0.0000000000      0.0000000000      2.2122636776 
  C3            1.7608762509      0.0000000000     -0.7421894815 
  C4           -0.8162921494     -1.5574842211     -0.7603611454 
  C5           -0.8021165931      1.4244115892     -0.9186980760 
  C6            1.9146491168      0.4060714136     -2.2245412319 
  C7            3.4081965324      0.5198683567     -2.6093393883 
  C8            4.1820583051     -0.7780787713     -2.3129690622 
  C9            3.9979547511     -1.2054981706     -0.8448675086 
  C10           2.5055327183     -1.3294493602     -0.4715173370 
  C11          -0.5455197860     -2.7866526259      0.1492917778 
  C12          -1.0570625867     -4.0881462915     -0.5066923764 
  C13          -2.5580681787     -4.0023100653     -0.8432255988 
  C14          -2.8559368860     -2.7577946663     -1.7013731388 
  C15          -2.3403995338     -1.4656803072     -1.0307062917 
  C16          -1.1242155392      1.2375240466     -2.2863189806 
  C17          -1.7234752811      2.2408517206     -3.0584062873 
  C18          -2.0198144825      3.4790428304     -2.4699975819 
  C19          -1.6929591617      3.6880696740     -1.1262848168 
  C20          -1.0799874677      2.6893800314     -0.3327116885 
  C21          -0.7623996973      3.0697307434      1.0795928611 
  C22          -1.8060053725      3.1900988101      2.0297503096 
  C23          -1.5366533592      3.5935126391      3.3513772174 
  C24          -0.2199254133      3.9021562911      3.7132034198 
  C25           0.8270891990      3.8420096765      2.7852567189 
  C26           0.5507539822      3.4236713384      1.4698104190 
  O27           1.4992583859      3.3522325147      0.4724543367 
  C28           2.8533384922      3.6072424938      0.8518659008 
  O29          -3.0643071908      2.9146500914      1.5548327362 
  C30          -4.0888055149      2.6783631170      2.5217698272 
  H31           2.2421854995      0.7738520556     -0.1134750923 
  H32           1.4329316660     -0.3500122301     -2.8812996894 
  H33           1.4134840190      1.3688954111     -2.4213778571 
  H34           3.8611219606      1.3524423143     -2.0321848305 
  H35           3.4995188980      0.7926625559     -3.6800344396 
  H36           3.8049954211     -1.5842430828     -2.9778874372 
  H37           5.2567009737     -0.6499016741     -2.5530046021 
  H38           4.4652851582     -0.4577396365     -0.1733620357 
  H39           4.5137412005     -2.1674241652     -0.6550191122 
  H40           2.4147364956     -1.5947898063      0.5957456873 
  H41           2.0516827871     -2.1429027840     -1.0752732074 
  H42          -0.2939447898     -1.7206024809     -1.7305084219 
  H43           0.5275806741     -2.8830777721      0.3851115867 
  H44          -1.0621044762     -2.6151042963      1.1126715030 
  H45          -0.8617024330     -4.9444561324      0.1681405100 
  H46          -0.4837773400     -4.2841225735     -1.4388434078 
  H47          -2.8956718967     -4.9231158530     -1.3605702372 
  H48          -3.1348928874     -3.9335170211      0.1008106230 
  H49          -3.9447637314     -2.6695714756     -1.8882345494 
  H50          -2.3755687108     -2.8775276004     -2.6973450990 
  H51          -2.8490477114     -1.3055056459     -0.0626442926 
  H52          -2.5893557442     -0.5973558068     -1.6636846196 
  H53          -0.8901137861      0.2818308150     -2.7668899433 
  H54          -1.9558460338      2.0507490735     -4.1138163845 
  H55          -2.4952346582      4.2768691893     -3.0539088487 
  H56          -1.9091748432      4.6533610507     -0.6543707284 
  H57          -2.3328536194      3.6277470654      4.0987289039 
  H58          -0.0003689518      4.1833500545      4.7492839160 
  H59           1.8495431705      4.0572237386      3.1025078095 
  H60           3.4462810625      3.4763850746     -0.0681000210 
  H61           3.1853497061      2.8828948570      1.6187207393 
  H62           2.9812619939      4.6462511135      1.2201099843 
  H63          -3.7922665394      1.8658495689      3.2092963185 
  H64          -4.9714892885      2.3641859827      1.9421291735 
  H65          -4.3384177598      3.5994186982      3.0895580454 
   
  principal moments of inertia:
        amu*angstrom^2:     3365.44699     4460.64737     5052.32477
                g*cm^2: 5.58845551E-37 7.40707829E-37 8.38958161E-37
   
  rotational constants:
               cm^(-1):      0.00500903      0.00377919      0.00333661
                   GHz:      0.15016698      0.11329723      0.10002900
   
  Molecular weight:     516.14 amu
   
  Stoichiometry: PdC26PH35O2
  Molecular Point Group: C1      
  Point Group used: C1
  
 
Number of optimization coordinates:   221
Number of independent coordinates:    221
Number of non-redundant coordinates:  189
Number of frozen coordinates:           0
Number of harmonic constraints:         0
 
Number of geometric degrees of freedom:   189
Maximum geometric degrees of freedom:     189
 " " " " " excluding dummy atoms:         189
 
 
  bond lengths (angstroms):
 
 P1      -Pd2     :   2.212264      P1      -C3      :   1.910898
 P1      -C4      :   1.915787      P1      -C5      :   1.875192
 C3      -C6      :   1.544638      C3      -C10     :   1.547647
 C3      -H31     :   1.107153      C4      -C11     :   1.552946
 C4      -C15     :   1.550619      C4      -H42     :   1.113840
 C5      -C16     :   1.417414      C5      -C20     :   1.421526
 C6      -C7      :   1.546513      C6      -H32     :   1.111326
 C6      -H33     :   1.103151      C7      -C8      :   1.539923
 C7      -H34     :   1.109697      C7      -H35     :   1.108668
 C8      -C9      :   1.540099      C8      -H36     :   1.110943
 C8      -H37     :   1.108559      C9      -C10     :   1.543398
 C9      -H38     :   1.108359      C9      -H39     :   1.107872
 C10     -H40     :   1.103494      C10     -H41     :   1.110048
 C11     -C12     :   1.544628      C11     -H43     :   1.102929
 C11     -H44     :   1.106521      C12     -C13     :   1.540662
 C12     -H45     :   1.107624      C12     -H46     :   1.111741
 C13     -C14     :   1.540767      C13     -H47     :   1.108830
 C13     -H48     :   1.108451      C14     -C15     :   1.544387
 C14     -H49     :   1.108262      C14     -H50     :   1.112227
 C15     -H51     :   1.105225      C15     -H52     :   1.103009
 C16     -C17     :   1.400678      C16     -H53     :   1.095035
 C17     -C18     :   1.402554      C17     -H54     :   1.097281
 C18     -C19     :   1.398603      C18     -H55     :   1.097043
 C19     -C20     :   1.415229      C19     -H56     :   1.096011
 C20     -C21     :   1.496707      C21     -C22     :   1.416475
 C21     -C26     :   1.414891      C22     -C23     :   1.407832
 C22     -O29     :   1.372859      C23     -C24     :   1.399983
 C23     -H57     :   1.092539      C24     -C25     :   1.400336
 C24     -H58     :   1.095782      C25     -C26     :   1.407752
 C25     -H59     :   1.091960      C26     -O27     :   1.378217
 O27     -C28     :   1.429166      C28     -H60     :   1.102289
 C28     -H61     :   1.105883      C28     -H62     :   1.109733
 O29     -C30     :   1.428424      C30     -H63     :   1.104901
 C30     -H64     :   1.101736      C30     -H65     :   1.110420
 
  bond angles:
 
 C3      -P1      -Pd2     : 112.854874  C4      -P1      -Pd2     : 113.384048
 C4      -P1      -C3      : 103.797047  C5      -P1      -Pd2     : 119.335462
 C5      -P1      -C3      : 101.764216  C5      -P1      -C4      : 103.935872
 C6      -C3      -P1      : 117.676148  C10     -C3      -P1      : 112.052203
 C10     -C3      -C6      : 110.228616  H31     -C3      -P1      : 100.372038
 H31     -C3      -C6      : 108.538360  H31     -C3      -C10     : 106.973355
 C11     -C4      -P1      : 109.675858  C15     -C4      -P1      : 116.095413
 C15     -C4      -C11     : 108.685035  H42     -C4      -P1      : 105.362777
 H42     -C4      -C11     : 108.210602  H42     -C4      -C15     : 108.527420
 C16     -C5      -P1      : 118.018741  C20     -C5      -P1      : 123.890444
 C20     -C5      -C16     : 118.076616  C7      -C6      -C3      : 110.748753
 H32     -C6      -C3      : 110.189696  H32     -C6      -C7      : 108.761852
 H33     -C6      -C3      : 110.821576  H33     -C6      -C7      : 109.276348
 H33     -C6      -H32     : 106.943579  C8      -C7      -C6      : 112.049932
 H34     -C7      -C6      : 108.661171  H34     -C7      -C8      : 109.097085
 H35     -C7      -C6      : 109.752032  H35     -C7      -C8      : 110.601340
 H35     -C7      -H34     : 106.502571  C9      -C8      -C7      : 110.934835
 H36     -C8      -C7      : 109.018804  H36     -C8      -C9      : 109.182296
 H37     -C8      -C7      : 110.366786  H37     -C8      -C9      : 110.755376
 H37     -C8      -H36     : 106.459137  C10     -C9      -C8      : 111.621485
 H38     -C9      -C8      : 109.870468  H38     -C9      -C10     : 108.381341
 H39     -C9      -C8      : 110.405725  H39     -C9      -C10     : 109.816229
 H39     -C9      -H38     : 106.598006  C9      -C10     -C3      : 110.730175
 H40     -C10     -C3      : 109.640323  H40     -C10     -C9      : 109.440822
 H41     -C10     -C3      : 109.733502  H41     -C10     -C9      : 108.822300
 H41     -C10     -H40     : 108.432918  C12     -C11     -C4      : 111.125405
 H43     -C11     -C4      : 111.351347  H43     -C11     -C12     : 109.837706
 H44     -C11     -C4      : 107.810704  H44     -C11     -C12     : 110.228737
 H44     -C11     -H43     : 106.357483  C13     -C12     -C11     : 111.621470
 H45     -C12     -C11     : 109.527273  H45     -C12     -C13     : 110.364658
 H46     -C12     -C11     : 109.501987  H46     -C12     -C13     : 109.211968
 H46     -C12     -H45     : 106.475670  C14     -C13     -C12     : 110.794037
 H47     -C13     -C12     : 110.626783  H47     -C13     -C14     : 110.611963
 H48     -C13     -C12     : 108.930251  H48     -C13     -C14     : 108.881681
 H48     -C13     -H47     : 106.885455  C15     -C14     -C13     : 111.677594
 H49     -C14     -C13     : 110.373692  H49     -C14     -C15     : 109.546854
 H50     -C14     -C13     : 109.165367  H50     -C14     -C15     : 109.558147
 H50     -C14     -H49     : 106.374181  C14     -C15     -C4      : 110.749596
 H51     -C15     -C4      : 107.952207  H51     -C15     -C14     : 110.364467
 H52     -C15     -C4      : 111.623564  H52     -C15     -C14     : 109.517124
 H52     -C15     -H51     : 106.539811  C17     -C16     -C5      : 122.319238
 H53     -C16     -C5      : 119.336537  H53     -C16     -C17     : 118.341005
 C18     -C17     -C16     : 119.440155  H54     -C17     -C16     : 119.781371
 H54     -C17     -C18     : 120.778471  C19     -C18     -C17     : 119.053335
 H55     -C18     -C17     : 120.683342  H55     -C18     -C19     : 120.262150
 C20     -C19     -C18     : 122.309158  H56     -C19     -C18     : 119.947166
 H56     -C19     -C20     : 117.743514  C19     -C20     -C5      : 118.781466
 C21     -C20     -C5      : 125.004211  C21     -C20     -C19     : 116.211950
 C22     -C21     -C20     : 119.882526  C26     -C21     -C20     : 121.382210
 C26     -C21     -C22     : 118.524149  C23     -C22     -C21     : 120.870938
 O29     -C22     -C21     : 115.225735  O29     -C22     -C23     : 123.890184
 C24     -C23     -C22     : 119.061268  H57     -C23     -C22     : 120.778045
 H57     -C23     -C24     : 120.113983  C25     -C24     -C23     : 121.499432
 H58     -C24     -C23     : 119.300694  H58     -C24     -C25     : 119.193960
 C26     -C25     -C24     : 119.025933  H59     -C25     -C24     : 119.940819
 H59     -C25     -C26     : 120.920782  C25     -C26     -C21     : 120.945871
 O27     -C26     -C21     : 115.225326  O27     -C26     -C25     : 123.815288
 C28     -O27     -C26     : 116.787962  H60     -C28     -O27     : 105.480406
 H61     -C28     -O27     : 110.589352  H61     -C28     -H60     : 109.845361
 H62     -C28     -O27     : 111.368976  H62     -C28     -H60     : 109.031337
 H62     -C28     -H61     : 110.398103  C30     -O29     -C22     : 117.154581
 H63     -C30     -O29     : 110.509948  H64     -C30     -O29     : 105.405671
 H64     -C30     -H63     : 109.432569  H65     -C30     -O29     : 111.724695
 H65     -C30     -H63     : 110.617181  H65     -C30     -H64     : 108.993185
 
  torsional angles:
 
 P1      -C3      -C6      -C7      : 173.025537
 P1      -C3      -C6      -H32     : -66.592077
 P1      -C3      -C6      -H33     :  51.575275
 P1      -C3      -C10     -C9      :-169.424702
 P1      -C3      -C10     -H40     : -48.565920
 P1      -C3      -C10     -H41     :  70.426147
 P1      -C4      -C11     -C12     :-173.877998
 P1      -C4      -C11     -H43     : -51.081401
 P1      -C4      -C11     -H44     :  65.226560
 P1      -C4      -C15     -C14     : 177.367530
 P1      -C4      -C15     -H51     : -61.707073
 P1      -C4      -C15     -H52     :  55.058353
 P1      -C5      -C16     -C17     :-179.929022
 P1      -C5      -C16     -H53     :  -0.592880
 P1      -C5      -C20     -C19     :-179.821997
 P1      -C5      -C20     -C21     :   0.761002
 Pd2     -P1      -C3      -C6      :-162.731193
 Pd2     -P1      -C3      -C10     :  67.943966
 Pd2     -P1      -C3      -H31     : -45.281142
 Pd2     -P1      -C4      -C11     : -33.657334
 Pd2     -P1      -C4      -C15     :  89.983783
 Pd2     -P1      -C4      -H42     :-149.916398
 Pd2     -P1      -C5      -C16     :-162.687575
 Pd2     -P1      -C5      -C20     :  18.712067
 C3      -P1      -C4      -C11     :  89.156571
 C3      -P1      -C4      -C15     :-147.202312
 C3      -P1      -C4      -H42     : -27.102493
 C3      -P1      -C5      -C16     :  72.413626
 C3      -P1      -C5      -C20     :-106.186733
 C3      -C6      -C7      -C8      :  55.634693
 C3      -C6      -C7      -H34     : -64.987080
 C3      -C6      -C7      -H35     : 178.919672
 C3      -C10     -C9      -C8      : -56.646533
 C3      -C10     -C9      -H38     :  64.483797
 C3      -C10     -C9      -H39     :-179.431519
 C4      -P1      -C3      -C6      :  74.106847
 C4      -P1      -C3      -C10     : -55.217994
 C4      -P1      -C3      -H31     :-168.443102
 C4      -P1      -C5      -C16     : -35.204125
 C4      -P1      -C5      -C20     : 146.195516
 C4      -C11     -C12     -C13     : -56.808193
 C4      -C11     -C12     -H45     :-179.338689
 C4      -C11     -C12     -H46     :  64.248597
 C4      -C15     -C14     -C13     :  57.586148
 C4      -C15     -C14     -H49     :-179.820371
 C4      -C15     -C14     -H50     : -63.486672
 C5      -P1      -C3      -C6      : -33.618468
 C5      -P1      -C3      -C10     :-162.943309
 C5      -P1      -C3      -H31     :  83.831583
 C5      -P1      -C4      -C11     :-164.747617
 C5      -P1      -C4      -C15     : -41.106500
 C5      -P1      -C4      -H42     :  78.993319
 C5      -C16     -C17     -C18     :   0.039287
 C5      -C16     -C17     -H54     :-179.941590
 C5      -C20     -C19     -C18     :  -0.781942
 C5      -C20     -C19     -H56     : 179.365007
 C5      -C20     -C21     -C22     :-107.228545
 C5      -C20     -C21     -C26     :  78.129400
 C6      -C3      -C10     -C9      :  57.469349
 C6      -C3      -C10     -H40     : 178.328131
 C6      -C3      -C10     -H41     : -62.679802
 C6      -C7      -C8      -C9      : -54.134037
 C6      -C7      -C8      -H36     :  66.129439
 C6      -C7      -C8      -H37     :-177.278229
 C7      -C6      -C3      -C10     : -56.801689
 C7      -C6      -C3      -H31     :  60.052067
 C7      -C8      -C9      -C10     :  54.569811
 C7      -C8      -C9      -H38     : -65.690592
 C7      -C8      -C9      -H39     : 177.017486
 C8      -C7      -C6      -H32     : -65.594582
 C8      -C7      -C6      -H33     : 177.990841
 C8      -C9      -C10     -H40     :-177.623539
 C8      -C9      -C10     -H41     :  64.045397
 C9      -C8      -C7      -H34     :  66.234617
 C9      -C8      -C7      -H35     :-176.939257
 C9      -C10     -C3      -H31     : -60.353786
 C10     -C3      -C6      -H32     :  63.580696
 C10     -C3      -C6      -H33     :-178.251951
 C10     -C9      -C8      -H36     : -65.596447
 C10     -C9      -C8      -H37     : 177.489827
 C11     -C4      -C15     -C14     : -58.478386
 C11     -C4      -C15     -H51     :  62.447011
 C11     -C4      -C15     -H52     : 179.212437
 C11     -C12     -C13     -C14     :  53.999904
 C11     -C12     -C13     -H47     : 177.044954
 C11     -C12     -C13     -H48     : -65.748743
 C12     -C11     -C4      -C15     :  58.238166
 C12     -C11     -C4      -H42     : -59.432276
 C12     -C13     -C14     -C15     : -54.490564
 C12     -C13     -C14     -H49     :-176.610055
 C12     -C13     -C14     -H50     :  66.810280
 C13     -C12     -C11     -H43     : 179.527012
 C13     -C12     -C11     -H44     :  62.653743
 C13     -C14     -C15     -H51     : -61.899481
 C13     -C14     -C15     -H52     :-178.883557
 C14     -C13     -C12     -H45     : 176.049504
 C14     -C13     -C12     -H46     : -67.225513
 C14     -C15     -C4      -H42     :  58.990564
 C15     -C4      -C11     -H43     :-178.965237
 C15     -C4      -C11     -H44     : -62.657277
 C15     -C14     -C13     -H47     :-177.544184
 C15     -C14     -C13     -H48     :  65.287172
 C16     -C5      -C20     -C19     :   1.578398
 C16     -C5      -C20     -C21     :-177.838604
 C16     -C17     -C18     -C19     :   0.806805
 C16     -C17     -C18     -H55     :-179.586217
 C17     -C16     -C5      -C20     :  -1.245820
 C17     -C18     -C19     -C20     :  -0.436161
 C17     -C18     -C19     -H56     : 179.413743
 C18     -C17     -C16     -H53     :-179.303176
 C18     -C19     -C20     -C21     : 178.685783
 C19     -C18     -C17     -H54     :-179.212513
 C19     -C20     -C21     -C22     :  73.340999
 C19     -C20     -C21     -C26     :-101.301056
 C20     -C5      -C16     -H53     : 178.090321
 C20     -C19     -C18     -H55     : 179.955164
 C20     -C21     -C22     -C23     :-177.687037
 C20     -C21     -C22     -O29     :   1.044076
 C20     -C21     -C26     -C25     : 176.908189
 C20     -C21     -C26     -O27     :  -1.804053
 C21     -C20     -C19     -H56     :  -1.167268
 C21     -C22     -C23     -C24     :   1.241559
 C21     -C22     -C23     -H57     :-176.275674
 C21     -C22     -O29     -C30     : 164.048999
 C21     -C26     -C25     -C24     :   0.137764
 C21     -C26     -C25     -H59     : 176.279676
 C21     -C26     -O27     -C28     :-175.544166
 C22     -C21     -C26     -C25     :   2.195393
 C22     -C21     -C26     -O27     :-176.516850
 C22     -C23     -C24     -C25     :   1.189470
 C22     -C23     -C24     -H58     :-177.918494
 C22     -O29     -C30     -H63     : -55.368098
 C22     -O29     -C30     -H64     :-173.501882
 C22     -O29     -C30     -H65     :  68.256581
 C23     -C22     -C21     -C26     :  -2.892692
 C23     -C22     -O29     -C30     : -17.263028
 C23     -C24     -C25     -C26     :  -1.872391
 C23     -C24     -C25     -H59     :-178.052929
 C24     -C23     -C22     -O29     :-177.375611
 C24     -C25     -C26     -O27     : 178.735594
 C25     -C24     -C23     -H57     : 178.723569
 C25     -C26     -O27     -C28     :   5.785165
 C26     -C21     -C22     -O29     : 175.838421
 C26     -C25     -C24     -H58     : 177.236503
 C26     -O27     -C28     -H60     : 178.556959
 C26     -O27     -C28     -H61     :  59.849315
 C26     -O27     -C28     -H62     : -63.298094
 O27     -C26     -C25     -H59     :  -5.122494
 O29     -C22     -C23     -H57     :   5.107156
 H31     -C3      -C6      -H32     :-179.565548
 H31     -C3      -C6      -H33     : -61.398195
 H31     -C3      -C10     -H40     :  60.504996
 H31     -C3      -C10     -H41     : 179.497063
 H32     -C6      -C7      -H34     : 173.783646
 H32     -C6      -C7      -H35     :  57.690397
 H33     -C6      -C7      -H34     :  57.369069
 H33     -C6      -C7      -H35     : -58.724180
 H34     -C7      -C8      -H36     :-173.501907
 H34     -C7      -C8      -H37     : -56.909575
 H35     -C7      -C8      -H36     : -56.675781
 H35     -C7      -C8      -H37     :  59.916551
 H36     -C8      -C9      -H38     : 174.143149
 H36     -C8      -C9      -H39     :  56.851228
 H37     -C8      -C9      -H38     :  57.229423
 H37     -C8      -C9      -H39     : -60.062498
 H38     -C9      -C10     -H40     : -56.493209
 H38     -C9      -C10     -H41     :-174.824272
 H39     -C9      -C10     -H40     :  59.591475
 H39     -C9      -C10     -H41     : -58.739588
 H42     -C4      -C11     -H43     :  63.364321
 H42     -C4      -C11     -H44     : 179.672282
 H42     -C4      -C15     -H51     : 179.915962
 H42     -C4      -C15     -H52     : -63.318613
 H43     -C11     -C12     -H45     :  56.996516
 H43     -C11     -C12     -H46     : -59.416198
 H44     -C11     -C12     -H45     : -59.876753
 H44     -C11     -C12     -H46     :-176.289467
 H45     -C12     -C13     -H47     : -60.905446
 H45     -C12     -C13     -H48     :  56.300857
 H46     -C12     -C13     -H47     :  55.819537
 H46     -C12     -C13     -H48     : 173.025840
 H47     -C13     -C14     -H49     :  60.336325
 H47     -C13     -C14     -H50     : -56.243340
 H48     -C13     -C14     -H49     : -56.832318
 H48     -C13     -C14     -H50     :-173.411983
 H49     -C14     -C15     -H51     :  60.694001
 H49     -C14     -C15     -H52     : -56.290076
 H50     -C14     -C15     -H51     : 177.027700
 H50     -C14     -C15     -H52     :  60.043624
 H53     -C16     -C17     -H54     :   0.715947
 H54     -C17     -C18     -H55     :   0.394465
 H55     -C18     -C19     -H56     :  -0.194931
 H57     -C23     -C24     -H58     :  -0.384394
 H58     -C24     -C25     -H59     :   1.055964
 
  nuclear repulsion energy.......    3611.218118312 hartrees
  
  Detected an organometallic with only one TM atom. 
  
  
 
  Will use High-Quality Initial guess for organometallics
       including d-d repulsion (iguess=30)
 
 Non-default options chosen:
   SCF calculation type: DFT(b3pw91-d3)              
   DFT=Becke_3_Parameter/HF+Slater+Becke88+PW91+PW-GGAIIC (B3PW91-D3)
   Geometry will be optimized in redundant internal coordinates
   Solvation energy will be computed using PBF
     -solute cavity energy will not be included
     -surface area terms will not be included
   Vibrational frequencies and related properties will be computed
      from analytic second derivatives
   IR intensities will be computed
   Thermochemical properties will be computed
   Scaling standard convergence criteria by a factor of   5.00
   Solvent: benzene                                                         
   Internal dielectric constant:    1.000
   Continuum dielectric constant:   2.283
   Solvent probe molecule radius:   2.600
  
 Non-default print settings:
     11=  2
  
 Temporary integer options set:
     21= -1  73=  2
  
  atom       vdw   vdw2    cov     mass  grid  daf  charge   basis
  P1        2.147  2.074  1.060   30.974    Y    Y      Y    6-31g*
  Pd2       1.450  1.450  1.280  105.903    Y    Y      Y    lacv3p*
  C3        1.949  1.900  0.770   12.000    Y    Y      Y    6-31g*
  C4        1.949  1.900  0.770   12.000    Y    Y      Y    6-31g*
  C5        1.949  1.900  0.770   12.000    Y    Y      Y    6-31g*
  C6        1.949  1.900  0.770   12.000    Y    Y      Y    6-31g*
  C7        1.949  1.900  0.770   12.000    Y    Y      Y    6-31g*
  C8        1.949  1.900  0.770   12.000    Y    Y      Y    6-31g*
  C9        1.949  1.900  0.770   12.000    Y    Y      Y    6-31g*
  C10       1.949  1.900  0.770   12.000    Y    Y      Y    6-31g*
  C11       1.949  1.900  0.770   12.000    Y    Y      Y    6-31g*
  C12       1.949  1.900  0.770   12.000    Y    Y      Y    6-31g*
  C13       1.949  1.900  0.770   12.000    Y    Y      Y    6-31g*
  C14       1.949  1.900  0.770   12.000    Y    Y      Y    6-31g*
  C15       1.949  1.900  0.770   12.000    Y    Y      Y    6-31g*
  C16       1.949  1.900  0.770   12.000    Y    Y      Y    6-31g*
  C17       1.949  1.900  0.770   12.000    Y    Y      Y    6-31g*
  C18       1.949  1.900  0.770   12.000    Y    Y      Y    6-31g*
  C19       1.949  1.900  0.770   12.000    Y    Y      Y    6-31g*
  C20       1.949  1.900  0.770   12.000    Y    Y      Y    6-31g*
  C21       1.949  1.900  0.770   12.000    Y    Y      Y    6-31g*
  C22       1.949  1.900  0.770   12.000    Y    Y      Y    6-31g*
  C23       1.949  1.900  0.770   12.000    Y    Y      Y    6-31g*
  C24       1.949  1.900  0.770   12.000    Y    Y      Y    6-31g*
  C25       1.949  1.900  0.770   12.000    Y    Y      Y    6-31g*
  C26       1.949  1.900  0.770   12.000    Y    Y      Y    6-31g*
  O27       1.702  1.600  0.730   15.995    Y    Y      Y    6-31g*
  C28       1.949  1.900  0.770   12.000    Y    Y      Y    6-31g*
  O29       1.702  1.600  0.730   15.995    Y    Y      Y    6-31g*
  C30       1.949  1.900  0.770   12.000    Y    Y      Y    6-31g*
  H31       1.597  1.150  0.320    1.008    Y    Y      Y    6-31g*
  H32       1.597  1.150  0.320    1.008    Y    Y      Y    6-31g*
  H33       1.597  1.150  0.320    1.008    Y    Y      Y    6-31g*
  H34       1.597  1.150  0.320    1.008    Y    Y      Y    6-31g*
  H35       1.597  1.150  0.320    1.008    Y    Y      Y    6-31g*
  H36       1.597  1.150  0.320    1.008    Y    Y      Y    6-31g*
  H37       1.597  1.150  0.320    1.008    Y    Y      Y    6-31g*
  H38       1.597  1.150  0.320    1.008    Y    Y      Y    6-31g*
  H39       1.597  1.150  0.320    1.008    Y    Y      Y    6-31g*
  H40       1.597  1.150  0.320    1.008    Y    Y      Y    6-31g*
  H41       1.597  1.150  0.320    1.008    Y    Y      Y    6-31g*
  H42       1.597  1.150  0.320    1.008    Y    Y      Y    6-31g*
  H43       1.597  1.150  0.320    1.008    Y    Y      Y    6-31g*
  H44       1.597  1.150  0.320    1.008    Y    Y      Y    6-31g*
  H45       1.597  1.150  0.320    1.008    Y    Y      Y    6-31g*
  H46       1.597  1.150  0.320    1.008    Y    Y      Y    6-31g*
  H47       1.597  1.150  0.320    1.008    Y    Y      Y    6-31g*
  H48       1.597  1.150  0.320    1.008    Y    Y      Y    6-31g*
  H49       1.597  1.150  0.320    1.008    Y    Y      Y    6-31g*
  H50       1.597  1.150  0.320    1.008    Y    Y      Y    6-31g*
  H51       1.597  1.150  0.320    1.008    Y    Y      Y    6-31g*
  H52       1.597  1.150  0.320    1.008    Y    Y      Y    6-31g*
  H53       1.597  1.150  0.320    1.008    Y    Y      Y    6-31g*
  H54       1.597  1.150  0.320    1.008    Y    Y      Y    6-31g*
  H55       1.597  1.150  0.320    1.008    Y    Y      Y    6-31g*
  H56       1.597  1.150  0.320    1.008    Y    Y      Y    6-31g*
  H57       1.597  1.150  0.320    1.008    Y    Y      Y    6-31g*
  H58       1.597  1.150  0.320    1.008    Y    Y      Y    6-31g*
  H59       1.597  1.150  0.320    1.008    Y    Y      Y    6-31g*
  H60       1.597  1.150  0.320    1.008    Y    Y      Y    6-31g*
  H61       1.597  1.150  0.320    1.008    Y    Y      Y    6-31g*
  H62       1.597  1.150  0.320    1.008    Y    Y      Y    6-31g*
  H63       1.597  1.150  0.320    1.008    Y    Y      Y    6-31g*
  H64       1.597  1.150  0.320    1.008    Y    Y      Y    6-31g*
  H65       1.597  1.150  0.320    1.008    Y    Y      Y    6-31g*
 
  atom      formal  2spin      esp    mulk    frag
  P1           0       0        Y    0.000       0
  Pd2          0       0        Y    0.000       0
  
  end of program pre
   
 Time(pre)  user:        2.0  user+sys:        2.0  wallclock:        2.2
  
  start of program onee
  
  smallest eigenvalue of S:    4.250E-04
  number of canonical orbitals.....          509
  end of program onee
   
 Time(onee)  user:        1.2  user+sys:        1.2  wallclock:        1.2
  
  start of program hfig
  
  initial wavefunction generated automatically from atomic wavefunctions
  Only one possible d-orb occupation 
  Skip d-d repulsion considerations 
 
  Irreducible     Total no   No of occupied orbitals 
  representation  orbitals   Shell_1  Shell_2    ...
  No Symm          509        120
  ------------------------
  Orbital occupation/shell    1.000
 
  end of program hfig
   
 Time(hfig)  user:        0.4  user+sys:        0.4  wallclock:        0.5
  
  start of program probe
  
  end of program probe
   
 Time(probe)  user:        0.2  user+sys:        0.2  wallclock:        0.2
  
  start of program grid
  
   grid     grid set  grid #  grid sym
  ------    --------  ------  --------
  coarse        0        0        1
  medium        2        1        1
  fine          0        0        1
  ultrafine     4        2        1
  charge       -1        3        1
  gradient      4        2        1
  density       0        0        1
  DFT-fine    -11        4        1
  DFT-med.    -10        5        1
  DFT-grad    -12        6        1
  DFT-der2     -8        7        1
  DFT-cphf     -9        8        1
  LMP2-enrg     4        2        1
  LMP2-grad     2        1        1
  DFT-cphf2   -15        9        1
  PBF-dens      0        0        1
  plotting      0        0        1
  Rel-grad    -17        0        1
  
  number of gridpoints: 
     atom        P1      Pd2       C3       C4       C5       C6       C7
  grid # 1      609      410       82       80       95       92       92
  grid # 2      429      397      331      331      392      278      280
  grid # 3       10      476        6        6       16        6        6
  grid # 4     8714     8714     8714     8714     8714     8714     8714
  grid # 5     1192     1192     1192     1192     1192     1192     1192
  grid # 6     9132     9132     5922     5922     5922     5922     5922
  grid # 7    23034    32968    13950    13950    13950    13950    13950
  grid # 8      722     1150      748      748      748      748      748
  grid # 9      366     2198      394      394      394      394      394
   
  number of gridpoints: 
     atom        C8       C9      C10      C11      C12      C13      C14
  grid # 1       92       92       91       90       92       92       92
  grid # 2      279      277      281      282      282      282      282
  grid # 3        6        6        6        6        6        6        6
  grid # 4     8714     8714     8714     8714     8714     8714     8714
  grid # 5     1192     1192     1192     1192     1192     1192     1192
  grid # 6     5922     5922     5922     5922     5922     5922     5922
  grid # 7    13950    13950    13950    13950    13950    13950    13950
  grid # 8      748      748      748      748      748      748      748
  grid # 9      394      394      394      394      394      394      394
   
  number of gridpoints: 
     atom       C15      C16      C17      C18      C19      C20      C21
  grid # 1       92       93       95       97       95      100      100
  grid # 2      283      322      325      324      328      360      364
  grid # 3        6       10       28       44       29       16       10
  grid # 4     8714     8714     8714     8714     8714     8714     8714
  grid # 5     1192     1192     1192     1192     1192     1192     1192
  grid # 6     5922     5922     5922     5922     5922     5922     5922
  grid # 7    13950    13950    13950    13950    13950    13950    13950
  grid # 8      748      748      748      748      748      748      748
  grid # 9      394      394      394      394      394      394      394
   
  number of gridpoints: 
     atom       C22      C23      C24      C25      C26      O27      C28
  grid # 1       92       96       96       96       92      118       76
  grid # 2      347      323      328      325      349      457      225
  grid # 3       19       33       33       34       24       63        6
  grid # 4     8714     8714     8714     8714     8714     8714     8714
  grid # 5     1192     1192     1192     1192     1192     1192     1192
  grid # 6     5922     5922     5922     5922     5922     5922     5922
  grid # 7    13950    13950    13950    13950    13950    23382    13950
  grid # 8      748      748      748      748      748      774      748
  grid # 9      394      394      394      394      394      416      394
   
  number of gridpoints: 
     atom       O29      C30      H31      H32      H33      H34      H35
  grid # 1      119       76      101      107      107      108      112
  grid # 2      459      228      429      434      439      445      455
  grid # 3       78        6       63      151      162      183      326
  grid # 4     8714     8714     8714     8714     8714     8714     8714
  grid # 5     1192     1192     1192     1192     1192     1192     1192
  grid # 6     5922     5922     5922     5922     5922     5922     5922
  grid # 7    23382    13950    15206    15206    15206    15206    15206
  grid # 8      774      748      786      786      786      786      786
  grid # 9      416      394      420      420      420      420      420
   
  number of gridpoints: 
     atom       H36      H37      H38      H39      H40      H41      H42
  grid # 1      110      112      110      112      105      104      101
  grid # 2      454      459      448      456      441      433      421
  grid # 3      269      331      242      328      168      119       65
  grid # 4     8714     8714     8714     8714     8714     8714     8714
  grid # 5     1192     1192     1192     1192     1192     1192     1192
  grid # 6     5922     5922     5922     5922     5922     5922     5922
  grid # 7    15206    15206    15206    15206    15206    15206    15206
  grid # 8      786      786      786      786      786      786      786
  grid # 9      420      420      420      420      420      420      420
   
  number of gridpoints: 
     atom       H43      H44      H45      H46      H47      H48      H49
  grid # 1      103      106      112      110      112      110      112
  grid # 2      427      443      458      452      458      456      458
  grid # 3      123      167      325      250      332      268      326
  grid # 4     8714     8714     8714     8714     8714     8714     8714
  grid # 5     1192     1192     1192     1192     1192     1192     1192
  grid # 6     5922     5922     5922     5922     5922     5922     5922
  grid # 7    15206    15206    15206    15206    15206    15206    15206
  grid # 8      786      786      786      786      786      786      786
  grid # 9      420      420      420      420      420      420      420
   
  number of gridpoints: 
     atom       H50      H51      H52      H53      H54      H55      H56
  grid # 1      110      110      107      106      118      118      116
  grid # 2      451      443      435      428      467      469      457
  grid # 3      259      186      157      107      409      428      341
  grid # 4     8714     8714     8714     8714     8714     8714     8714
  grid # 5     1192     1192     1192     1192     1192     1192     1192
  grid # 6     5922     5922     5922     5922     5922     5922     5922
  grid # 7    15206    15206    15206    15206    15206    15206    15206
  grid # 8      786      786      786      786      786      786      786
  grid # 9      420      420      420      420      420      420      420
   
  number of gridpoints: 
     atom       H57      H58      H59      H60      H61      H62      H63
  grid # 1      111      118      110      107      110      111      112
  grid # 2      446      466      442      451      445      448      450
  grid # 3      257      412      248      279      233      324      285
  grid # 4     8714     8714     8714     8714     8714     8714     8714
  grid # 5     1192     1192     1192     1192     1192     1192     1192
  grid # 6     5922     5922     5922     5922     5922     5922     5922
  grid # 7    15206    15206    15206    15206    15206    15206    15206
  grid # 8      786      786      786      786      786      786      786
  grid # 9      420      420      420      420      420      420      420
   
  number of gridpoints: 
     atom       H64      H65    total
  grid # 1      111      110     7473
  grid # 2      463      448    25425
  grid # 3      391      319     9840
  grid # 4     8714     8714   566410
  grid # 5     1192     1192    77480
  grid # 6     5922     5922   391350
  grid # 7    15206    15206   997676
  grid # 8      786      786    50378
  grid # 9      420      420    28340
   
  end of program grid
   
 Time(grid)  user:      113.0  user+sys:      113.0  wallclock:      113.4
  
  start of program rwr
  
  end of program rwr
   
 Time(rwr)  user:        5.7  user+sys:        5.7  wallclock:        6.3
  
  start of program scf
  
 number of electrons..........        240
 number of alpha electrons....        120
 number of beta electrons.....        120
 number of orbitals, total....        509
 number of doubly-occ'd orbs..        120
 number of open shell orbs....          0
 number of occupied orbitals..        120
 number of virtual orbitals...        389
 number of hamiltonians.......          1
 number of shells.............          1
 SCF type: DFT=Becke_3_Parameter/HF+Slater+Becke88+PW91+PW-GGAIIC (B3PW91-D3)
 Energy computed with NOPS off.
 Convergence Criterion:
    Energy (econv):       1.00E-05
    RMS density (dconv):  5.00E-06
  
       i  u  d  i  g                   
       t  p  i  c  r                                 RMS    maximum
       e  d  i  u  i                       energy  density   DIIS  
       r  t  s  t  d       total energy    change  change    error 
  
etot    1  N  N  5  M   -1626.31731801714           2.2E-03  1.8E-01
etot    2  Y  Y  6  M   -1628.88981930033  2.6E+00  3.0E-03  1.1E-01
etot    3  Y  Y  6  M   -1629.63522347879  7.5E-01  1.3E-03  4.0E-02
etot    4  N  Y  2  U   -1629.90876079833  2.7E-01  8.7E-04  3.0E-02
etot    5  Y  Y  6  M   -1629.94677758387  3.8E-02  5.9E-04  1.7E-02
etot    6  N  Y  2  U   -1629.95001634121  3.2E-03  3.7E-04  1.1E-02
etot    7  Y  Y  6  M   -1629.95439512044  4.4E-03  6.1E-05  3.6E-03
etot    8  Y  Y  6  M   -1629.95528164215  8.9E-04  1.6E-05  4.9E-04
etot    9  N  Y  2  U   -1629.95620345967  9.2E-04  1.1E-05  3.6E-04
etot   10  N  Y  2  U   -1629.95621058834  7.1E-06  6.8E-06  1.0E-04
etot   11  N  Y  2  U   -1629.95621143149  8.4E-07  3.9E-06  5.3E-05
etot   12  N  N  2  U   -1629.95621194205  5.1E-07  0.0E+00  0.0E+00
 
  Computing the dispersion energy correction and its gradients...
  
  
 Energy components, in hartrees:
   (A)  Nuclear repulsion............    3611.21811831181
   (E)  Total one-electron terms.....   -9465.43028797812
   (F)    Electron-nuclear...........  -11005.61054237441
   (H)    Kinetic....................    1540.18025439628
   (I)  Total two-electron terms.....    4224.25595772426
   (J)    Coulomb....................    4431.23414525989
   (K)    Exchange+Correlation.......    -206.97818753563
   (L)  Electronic energy............   -5241.17433025386  (E+I)
   (N0) D3 correction................      -0.10494413816
   (N)  Total energy.................   -1630.06115608021  (A+L+N0)
   (O)  Gas phase energy.............   -1630.06115608021
  
 SCFE: SCF energy: DFT(b3pw91-d3)     -1630.06115608021 hartrees   iterations:  12
  
 
 HOMO energy:    -0.15212
 LUMO energy:    -0.02482
 
  Orbital energies (hartrees): 
   -77.05521   -19.16278   -19.15883   -10.23101   -10.22979   -10.21939
   -10.21661   -10.18450   -10.17820   -10.17460   -10.17279   -10.17167
   -10.17131   -10.17037   -10.16976   -10.16917   -10.16648   -10.16372
   -10.16363   -10.15948   -10.15881   -10.15871   -10.15859   -10.15721
   -10.15699   -10.15538   -10.15487   -10.15413   -10.15240    -6.55355
    -4.71167    -4.71115    -4.70857    -3.23446    -1.97354    -1.95226
    -1.95074    -1.06035    -1.05800    -0.85709    -0.83888    -0.82578
    -0.81919    -0.77542    -0.75670    -0.74824    -0.73642    -0.73101
    -0.72723    -0.72678    -0.72639    -0.70036    -0.68180    -0.63989
    -0.61834    -0.60271    -0.59551    -0.59527    -0.59203    -0.57998
    -0.57602    -0.55251    -0.54658    -0.53598    -0.52698    -0.49816
    -0.49404    -0.48079    -0.47056    -0.46826    -0.46536    -0.46105
    -0.46063    -0.44412    -0.43865    -0.43679    -0.43407    -0.43113
    -0.42866    -0.42383    -0.41960    -0.41184    -0.41011    -0.40116
    -0.39354    -0.38562    -0.38000    -0.37468    -0.37001    -0.36911
    -0.36531    -0.36082    -0.35724    -0.35040    -0.34447    -0.34233
    -0.33928    -0.33628    -0.33241    -0.32967    -0.32846    -0.32716
    -0.31719    -0.31218    -0.30881    -0.30492    -0.29763    -0.28940
    -0.28517    -0.27805    -0.27304    -0.24264    -0.24021    -0.22072
    -0.21517    -0.19363    -0.19230    -0.17188    -0.17173    -0.15212
    -0.02482    -0.01592    -0.00477     0.00821     0.01823     0.02293
     0.03226     0.06550     0.07296     0.07907
 
  end of program scf
   
 Time(scf)  user:      172.7  user+sys:      172.7  wallclock:      175.5
  
  start of program der1a
  
  end of program der1a
   
 Time(der1a)  user:        3.7  user+sys:        3.7  wallclock:        3.8
  
  start of program rwr
  
  end of program rwr
   
 Time(rwr)  user:        6.6  user+sys:        6.6  wallclock:        8.4
  
  start of program der1b
  
   
  forces (hartrees/bohr) : total     
   
 atom  label           x              y              z
 ---- --------   -------------  -------------  -------------
    1 P1         -3.726737E-03  -1.748654E-03  -2.209512E-03
    2 Pd2        -1.292022E-03   4.372438E-03  -2.128912E-03
    3 C3          8.591718E-04   3.034513E-04   5.979283E-04
    4 C4          3.757675E-03   1.371648E-04  -5.925317E-03
    5 C5         -1.969333E-05   1.660097E-03  -3.848370E-03
    6 C6          1.627261E-03  -1.357986E-04  -7.860632E-04
    7 C7         -9.336939E-05   9.675169E-04  -3.199040E-05
    8 C8         -1.674448E-04  -5.009884E-04  -1.380080E-03
    9 C9          2.600750E-04  -1.036337E-03   2.928899E-04
   10 C10         4.474459E-04   2.127936E-03  -1.814980E-03
   11 C11         1.767509E-05   5.706301E-04  -3.152292E-03
   12 C12         5.947007E-04  -8.391213E-04  -4.272820E-04
   13 C13         1.051038E-04   1.102145E-04   9.612982E-05
   14 C14        -1.266007E-03  -5.747238E-04   1.282239E-05
   15 C15         4.001347E-03   1.611249E-03   4.240532E-05
   16 C16        -1.317573E-03   4.316395E-03   9.157159E-04
   17 C17         8.209528E-04  -3.791885E-04   3.853311E-03
   18 C18         2.380688E-03  -3.589798E-03   2.871326E-03
   19 C19         1.388916E-03  -2.600709E-03   8.518293E-04
   20 C20        -1.281851E-03  -1.337354E-03  -7.655229E-03
   21 C21         3.929676E-05   2.372765E-03   3.987755E-03
   22 C22         1.474046E-03   2.812818E-04  -4.456882E-03
   23 C23         2.339353E-03  -3.412103E-03  -8.019742E-04
   24 C24        -6.799000E-04  -2.729584E-03  -2.817623E-03
   25 C25        -1.834657E-03  -4.831905E-03  -4.188603E-04
   26 C26        -5.264193E-04  -4.141662E-04  -5.238539E-03
   27 O27        -2.981909E-04   3.499713E-04   1.315772E-02
   28 C28        -4.933682E-03  -4.876244E-04  -4.379812E-03
   29 O29         4.622439E-03  -1.556706E-03   1.104951E-02
   30 C30         1.497984E-03   2.013241E-03  -5.559535E-03
   31 H31        -2.300106E-03  -1.834853E-03  -5.002851E-03
   32 H32         2.540536E-03   3.909498E-03   4.826012E-03
   33 H33         2.864012E-03  -5.153711E-03   1.644053E-03
   34 H34        -2.419481E-03  -4.204520E-03  -2.741335E-03
   35 H35        -5.289183E-04  -1.825654E-03   6.460607E-03
   36 H36         1.839974E-03   4.439708E-03   4.267925E-03
   37 H37        -6.412408E-03  -8.014438E-04   1.891897E-03
   38 H38        -1.425566E-03  -2.931425E-03  -3.995608E-03
   39 H39        -2.912356E-03   5.359712E-03  -1.086992E-03
   40 H40        -1.174461E-03  -2.792122E-04  -4.154327E-03
   41 H41         2.408448E-03   4.749595E-03   4.473828E-03
   42 H42        -4.274798E-03  -5.062902E-04   5.348182E-03
   43 H43        -6.406232E-03   8.146827E-04  -7.534751E-04
   44 H44         2.319027E-03  -1.058290E-03  -3.765913E-03
   45 H45        -1.191947E-03   4.567608E-03  -3.734180E-03
   46 H46        -3.171757E-03   1.826979E-03   5.752411E-03
   47 H47         2.139625E-03   5.763492E-03   3.220256E-03
   48 H48         2.677082E-03  -4.411992E-04  -4.470435E-03
   49 H49         6.170464E-03  -6.325156E-04   1.204875E-03
   50 H50        -2.373049E-03   1.761116E-03   6.648014E-03
   51 H51         5.258261E-04  -1.101272E-03  -3.329069E-03
   52 H52         1.183405E-03  -4.863687E-03   4.349520E-03
   53 H53        -1.165725E-03   5.501371E-03   2.656258E-03
   54 H54         1.370112E-03   1.283148E-03   6.371577E-03
   55 H55         2.969976E-03  -4.796710E-03   3.715690E-03
   56 H56         1.102939E-03  -5.356305E-03  -2.728368E-03
   57 H57         4.402659E-03   1.376655E-03  -3.962026E-03
   58 H58        -1.368622E-03  -4.966175E-04  -5.719813E-03
   59 H59        -5.924647E-03   6.566110E-04  -1.507499E-03
   60 H60        -3.570174E-03   7.764541E-05   5.796501E-03
   61 H61        -7.860030E-05   4.349163E-03  -3.520391E-03
   62 H62        -4.549664E-04  -7.296080E-03  -1.569124E-03
   63 H63        -1.981471E-03   4.511211E-03  -1.371653E-03
   64 H64         5.014771E-03   1.883781E-03   3.508946E-03
   65 H65         1.821971E-03  -6.901709E-03  -2.967449E-03
 -------------   -------------  -------------  -------------
     total        1.012124E-03  -2.629927E-03   4.521285E-04
   
  end of program der1b
   
 Time(der1b)  user:       58.2  user+sys:       58.2  wallclock:       58.6
  
  start of program geopt
  
 ----------------------------------------------------------------------------
  Geometry optimization step   1
  Total energy:     -1630.06115608021 hartrees
 ----------------------------------------------------------------------------
  
  
  Level shifts adjusted to satisfy step-size constraints
   Step size:    0.3006551
   Cos(theta):   0.8439933
   Final level shift:  -4.0350734E-02
  
  gradient maximum:        3.2100E-02 .  (  2.2500E-03 )
  gradient rms:            6.3655E-03 .  (  1.5000E-03 )
  displacement maximum:    6.5620E-02 .  (  9.0000E-03 )
  displacement rms:        1.3828E-02 .  (  6.0000E-03 )
  
  predicted energy change:  -1.1658E-02
  step size:     0.20557
  trust radius:  0.30000
  
  molecular structure not yet converged...
  
  center of mass moved by:
     x:    -6.4520E-02     y:     5.9565E-02     z:    -5.3416E-02
  
  new geometry: 
                                   angstroms
  atom               x                 y                 z
  P1           -0.0256533161      0.0420940349     -0.0298693136 
  Pd2          -0.1124732262      0.1703122744      2.1737797822 
  C3            1.7487746984      0.1005140017     -0.7044500679 
  C4           -0.7927498172     -1.5389723059     -0.7468242241 
  C5           -0.8273438945      1.4069183805     -0.9879119165 
  C6            1.9419773835      0.4404747358     -2.1882231058 
  C7            3.4336267175      0.6129577559     -2.5177500096 
  C8            4.2521991829     -0.6221366091     -2.1291522633 
  C9            4.0350366084     -0.9798712376     -0.6560572134 
  C10           2.5438589633     -1.1628873823     -0.3356297415 
  C11          -0.4978726915     -2.7292896890      0.1887959523 
  C12          -1.0012086846     -4.0465342163     -0.4179766475 
  C13          -2.5027162560     -3.9847568755     -0.7190955445 
  C14          -2.8328362075     -2.7723055248     -1.5960677587 
  C15          -2.3139855962     -1.4677369775     -0.9766290277 
  C16          -1.1513610296      1.2340090445     -2.3456277281 
  C17          -1.7478306998      2.2487377064     -3.0888673636 
  C18          -2.0301428894      3.4728380561     -2.4794555730 
  C19          -1.6967340182      3.6601190406     -1.1426986491 
  C20          -1.0935970365      2.6439934277     -0.3870357035 
  C21          -0.7398429154      2.9427599119      1.0254530258 
  C22          -1.7444936416      3.0799700595      1.9968038435 
  C23          -1.4217562289      3.3935171225      3.3225524057 
  C24          -0.0859930267      3.5871673740      3.6633416516 
  C25           0.9309817618      3.4846303670      2.7171188164 
  C26           0.5953873074      3.1540525136      1.3990409048 
  O27           1.5006010454      3.0148429595      0.3839301337 
  C28           2.8772283293      3.0984969029      0.7187744115 
  O29          -3.0174149317      2.8962558539      1.5440265850 
  C30          -4.0337941891      2.6971781212      2.5149346568 
  H31           2.1622958124      0.9308358602     -0.1094890369 
  H32           1.5267412105     -0.3677513521     -2.8163519541 
  H33           1.4042583673      1.3607756711     -2.4484860511 
  H34           3.8173886132      1.4900194811     -1.9676468014 
  H35           3.5550135527      0.8369102913     -3.5898366153 
  H36           3.9407205351     -1.4744146488     -2.7587683017 
  H37           5.3216258759     -0.4542275319     -2.3344809902 
  H38           4.4384621115     -0.1756827089     -0.0173133373 
  H39           4.5883495960     -1.8966210761     -0.3972137882 
  H40           2.4167009796     -1.3821835528      0.7344311251 
  H41           2.1597854213     -2.0234740519     -0.9089247726 
  H42          -0.2861267822     -1.7230058810     -1.7138952869 
  H43           0.5717124669     -2.8029573407      0.4189710905 
  H44          -1.0051966075     -2.5379498932      1.1482003897 
  H45          -0.7823862502     -4.8785159876      0.2700606573 
  H46          -0.4478985588     -4.2544424113     -1.3514693636 
  H47          -2.8397332157     -4.9156801893     -1.2027102930 
  H48          -3.0557324912     -3.8995415630      0.2316814461 
  H49          -3.9203124075     -2.6999884994     -1.7587301492 
  H50          -2.3746519259     -2.9070731449     -2.5925082966 
  H51          -2.8003254488     -1.2970024882     -0.0026770103 
  H52          -2.5897111723     -0.6190013074     -1.6138884484 
  H53          -0.9217231573      0.2903497959     -2.8383120078 
  H54          -1.9883179521      2.0811844562     -4.1396015125 
  H55          -2.5012688563      4.2785285639     -3.0435293371 
  H56          -1.9007233967      4.6131224127     -0.6542589477 
  H57          -2.1925819068      3.4536964663      4.0865194051 
  H58           0.1723981187      3.8109957814      4.6985279695 
  H59           1.9667508508      3.6096997589      3.0199381640 
  H60           3.4161088889      2.9340570666     -0.2208699394 
  H61           3.1554252737      2.3202957175      1.4455825711 
  H62           3.1363500021      4.0942765175      1.1142757462 
  H63          -3.7810874322      1.8594814197      3.1819108021 
  H64          -4.9367579436      2.4501994247      1.9459749346 
  H65          -4.2206014662      3.6097006854      3.1052192136 
   
 
  bond lengths (angstroms):
 
 P1      -Pd2     :   2.209083      P1      -C3      :   1.899228
 P1      -C4      :   1.897955      P1      -C5      :   1.850216
 C3      -C6      :   1.534432      C3      -C10     :   1.537651
 C3      -H31     :   1.102004      C4      -C11     :   1.542463
 C4      -C15     :   1.540144      C4      -H42     :   1.107141
 C5      -C16     :   1.406512      C5      -C20     :   1.400820
 C6      -C7      :   1.537321      C6      -H32     :   1.104625
 C6      -H33     :   1.097193      C7      -C8      :   1.531838
 C7      -H34     :   1.104139      C7      -H35     :   1.101934
 C8      -C9      :   1.531386      C8      -H36     :   1.104452
 C8      -H37     :   1.101829      C9      -C10     :   1.536157
 C9      -H38     :   1.103388      C9      -H39     :   1.101629
 C10     -H40     :   1.099677      C10     -H41     :   1.103082
 C11     -C12     :   1.535139      C11     -H43     :   1.096549
 C11     -H44     :   1.102019      C12     -C13     :   1.532649
 C12     -H45     :   1.101577      C12     -H46     :   1.104892
 C13     -C14     :   1.532350      C13     -H47     :   1.101854
 C13     -H48     :   1.103207      C14     -C15     :   1.534539
 C14     -H49     :   1.101950      C14     -H50     :   1.104984
 C15     -H51     :   1.101934      C15     -H52     :   1.096575
 C16     -C17     :   1.392069      C16     -H53     :   1.089020
 C17     -C18     :   1.396247      C17     -H54     :   1.090849
 C18     -C19     :   1.390379      C18     -H55     :   1.090539
 C19     -C20     :   1.402609      C19     -H56     :   1.090138
 C20     -C21     :   1.486448      C21     -C22     :   1.404162
 C21     -C26     :   1.402516      C22     -C23     :   1.400029
 C22     -O29     :   1.363483      C23     -C24     :   1.392085
 C23     -H57     :   1.086940      C24     -C25     :   1.392871
 C24     -H58     :   1.090172      C25     -C26     :   1.399727
 C25     -H59     :   1.086351      C26     -O27     :   1.367202
 O27     -C28     :   1.419233      C28     -H60     :   1.095611
 C28     -H61     :   1.100564      C28     -H62     :   1.102335
 O29     -C30     :   1.419620      C30     -H63     :   1.100206
 C30     -H64     :   1.095471      C30     -H65     :   1.102738
 
  bond angles:
 
 C3      -P1      -Pd2     : 112.907631  C4      -P1      -Pd2     : 114.160138
 C4      -P1      -C3      : 105.608547  C5      -P1      -Pd2     : 117.173278
 C5      -P1      -C3      : 101.432733  C5      -P1      -C4      : 104.109179
 C6      -C3      -P1      : 117.898912  C10     -C3      -P1      : 111.877970
 C10     -C3      -C6      : 110.418440  H31     -C3      -P1      : 100.486372
 H31     -C3      -C6      : 107.931766  H31     -C3      -C10     : 107.190634
 C11     -C4      -P1      : 109.660904  C15     -C4      -P1      : 114.648007
 C15     -C4      -C11     : 108.362375  H42     -C4      -P1      : 106.468275
 H42     -C4      -C11     : 108.305252  H42     -C4      -C15     : 109.228326
 C16     -C5      -P1      : 120.595281  C20     -C5      -P1      : 120.775677
 C20     -C5      -C16     : 118.609859  C7      -C6      -C3      : 110.750745
 H32     -C6      -C3      : 109.902762  H32     -C6      -C7      : 108.962137
 H33     -C6      -C3      : 110.701799  H33     -C6      -C7      : 109.303497
 H33     -C6      -H32     : 107.133597  C8      -C7      -C6      : 111.941385
 H34     -C7      -C6      : 108.636890  H34     -C7      -C8      : 109.168273
 H35     -C7      -C6      : 109.769263  H35     -C7      -C8      : 110.598032
 H35     -C7      -H34     : 106.558752  C9      -C8      -C7      : 110.891260
 H36     -C8      -C7      : 109.078786  H36     -C8      -C9      : 109.154364
 H37     -C8      -C7      : 110.396431  H37     -C8      -C9      : 110.640048
 H37     -C8      -H36     : 106.564219  C10     -C9      -C8      : 111.477584
 H38     -C9      -C8      : 109.557483  H38     -C9      -C10     : 108.723400
 H39     -C9      -C8      : 110.437972  H39     -C9      -C10     : 109.840659
 H39     -C9      -H38     : 106.670030  C9      -C10     -C3      : 110.733070
 H40     -C10     -C3      : 109.722204  H40     -C10     -C9      : 109.814581
 H41     -C10     -C3      : 109.652898  H41     -C10     -C9      : 108.815795
 H41     -C10     -H40     : 108.052211  C12     -C11     -C4      : 111.083738
 H43     -C11     -C4      : 111.447045  H43     -C11     -C12     : 110.190086
 H44     -C11     -C4      : 107.823252  H44     -C11     -C12     : 110.007706
 H44     -C11     -H43     : 106.138432  C13     -C12     -C11     : 111.363502
 H45     -C12     -C11     : 109.636919  H45     -C12     -C13     : 110.350658
 H46     -C12     -C11     : 109.342109  H46     -C12     -C13     : 109.402345
 H46     -C12     -H45     : 106.624915  C14     -C13     -C12     : 110.817330
 H47     -C13     -C12     : 110.599078  H47     -C13     -C14     : 110.573461
 H48     -C13     -C12     : 108.958623  H48     -C13     -C14     : 108.912239
 H48     -C13     -H47     : 106.870109  C15     -C14     -C13     : 111.641556
 H49     -C14     -C13     : 110.426772  H49     -C14     -C15     : 109.722734
 H50     -C14     -C13     : 109.284276  H50     -C14     -C15     : 109.116965
 H50     -C14     -H49     : 106.504890  C14     -C15     -C4      : 110.785717
 H51     -C15     -C4      : 108.132697  H51     -C15     -C14     : 109.832707
 H52     -C15     -C4      : 111.769020  H52     -C15     -C14     : 109.779142
 H52     -C15     -H51     : 106.424074  C17     -C16     -C5      : 121.633473
 H53     -C16     -C5      : 119.647574  H53     -C16     -C17     : 118.714366
 C18     -C17     -C16     : 119.515982  H54     -C17     -C16     : 119.786809
 H54     -C17     -C18     : 120.697142  C19     -C18     -C17     : 119.290407
 H55     -C18     -C17     : 120.617466  H55     -C18     -C19     : 120.091012
 C20     -C19     -C18     : 121.568004  H56     -C19     -C18     : 120.242120
 H56     -C19     -C20     : 118.189849  C19     -C20     -C5      : 119.367257
 C21     -C20     -C5      : 122.674685  C21     -C20     -C19     : 117.948331
 C22     -C21     -C20     : 120.445062  C26     -C21     -C20     : 120.661512
 C26     -C21     -C22     : 118.827122  C23     -C22     -C21     : 120.798027
 O29     -C22     -C21     : 115.155413  O29     -C22     -C23     : 124.044869
 C24     -C23     -C22     : 118.957855  H57     -C23     -C22     : 120.963325
 H57     -C23     -C24     : 120.047160  C25     -C24     -C23     : 121.603908
 H58     -C24     -C23     : 119.238591  H58     -C24     -C25     : 119.152048
 C26     -C25     -C24     : 118.818624  H59     -C25     -C24     : 119.887196
 H59     -C25     -C26     : 121.216463  C25     -C26     -C21     : 120.975175
 O27     -C26     -C21     : 114.658959  O27     -C26     -C25     : 124.365447
 C28     -O27     -C26     : 117.454263  H60     -C28     -O27     : 105.420128
 H61     -C28     -O27     : 111.058417  H61     -C28     -H60     : 109.628993
 H62     -C28     -O27     : 111.463245  H62     -C28     -H60     : 109.127600
 H62     -C28     -H61     : 110.022166  C30     -O29     -C22     : 117.398779
 H63     -C30     -O29     : 110.912302  H64     -C30     -O29     : 105.458615
 H64     -C30     -H63     : 109.422132  H65     -C30     -O29     : 111.798089
 H65     -C30     -H63     : 110.149171  H65     -C30     -H64     : 108.962362
 
  torsional angles:
 
 P1      -C3      -C6      -C7      : 173.029134
 P1      -C3      -C6      -H32     : -66.524537
 P1      -C3      -C6      -H33     :  51.624110
 P1      -C3      -C10     -C9      :-169.291263
 P1      -C3      -C10     -H40     : -47.909753
 P1      -C3      -C10     -H41     :  70.617844
 P1      -C4      -C11     -C12     :-175.210314
 P1      -C4      -C11     -H43     : -51.920467
 P1      -C4      -C11     -H44     :  64.183265
 P1      -C4      -C15     -C14     : 178.258640
 P1      -C4      -C15     -H51     : -61.332752
 P1      -C4      -C15     -H52     :  55.484383
 P1      -C5      -C16     -C17     :-179.630519
 P1      -C5      -C16     -H53     :  -0.419790
 P1      -C5      -C20     -C19     : 179.703980
 P1      -C5      -C20     -C21     :   0.862579
 Pd2     -P1      -C3      -C6      :-162.075593
 Pd2     -P1      -C3      -C10     :  68.282195
 Pd2     -P1      -C3      -H31     : -45.184979
 Pd2     -P1      -C4      -C11     : -36.522184
 Pd2     -P1      -C4      -C15     :  85.618706
 Pd2     -P1      -C4      -H42     :-153.484730
 Pd2     -P1      -C5      -C16     :-162.067121
 Pd2     -P1      -C5      -C20     :  19.548226
 C3      -P1      -C4      -C11     :  88.107450
 C3      -P1      -C4      -C15     :-149.751659
 C3      -P1      -C4      -H42     : -28.855095
 C3      -P1      -C5      -C16     :  74.551585
 C3      -P1      -C5      -C20     :-103.833068
 C3      -C6      -C7      -C8      :  55.680370
 C3      -C6      -C7      -H34     : -64.945591
 C3      -C6      -C7      -H35     : 178.898109
 C3      -C10     -C9      -C8      : -56.609672
 C3      -C10     -C9      -H38     :  64.266906
 C3      -C10     -C9      -H39     :-179.354595
 C4      -P1      -C3      -C6      :  72.516264
 C4      -P1      -C3      -C10     : -57.125948
 C4      -P1      -C3      -H31     :-170.593122
 C4      -P1      -C5      -C16     : -34.952870
 C4      -P1      -C5      -C20     : 146.662477
 C4      -C11     -C12     -C13     : -57.364745
 C4      -C11     -C12     -H45     :-179.780072
 C4      -C11     -C12     -H46     :  63.656328
 C4      -C15     -C14     -C13     :  57.598703
 C4      -C15     -C14     -H49     :-179.641520
 C4      -C15     -C14     -H50     : -63.302758
 C5      -P1      -C3      -C6      : -35.827897
 C5      -P1      -C3      -C10     :-165.470109
 C5      -P1      -C3      -H31     :  81.062717
 C5      -P1      -C4      -C11     :-165.487373
 C5      -P1      -C4      -C15     : -43.346482
 C5      -P1      -C4      -H42     :  77.550082
 C5      -C16     -C17     -C18     :   0.228675
 C5      -C16     -C17     -H54     :-179.864574
 C5      -C20     -C19     -C18     :  -0.421940
 C5      -C20     -C19     -H56     : 179.637411
 C5      -C20     -C21     -C22     :-109.769826
 C5      -C20     -C21     -C26     :  73.225995
 C6      -C3      -C10     -C9      :  57.275019
 C6      -C3      -C10     -H40     : 178.656530
 C6      -C3      -C10     -H41     : -62.815873
 C6      -C7      -C8      -C9      : -54.499058
 C6      -C7      -C8      -H36     :  65.741311
 C6      -C7      -C8      -H37     :-177.486762
 C7      -C6      -C3      -C10     : -56.655262
 C7      -C6      -C3      -H31     :  60.212544
 C7      -C8      -C9      -C10     :  54.866719
 C7      -C8      -C9      -H38     : -65.520984
 C7      -C8      -C9      -H39     : 177.268771
 C8      -C7      -C6      -H32     : -65.324292
 C8      -C7      -C6      -H33     : 177.905887
 C8      -C9      -C10     -H40     :-177.936695
 C8      -C9      -C10     -H41     :  63.980241
 C9      -C8      -C7      -H34     :  65.817641
 C9      -C8      -C7      -H35     :-177.247353
 C9      -C10     -C3      -H31     : -60.051198
 C10     -C3      -C6      -H32     :  63.791067
 C10     -C3      -C6      -H33     :-178.060286
 C10     -C9      -C8      -H36     : -65.328674
 C10     -C9      -C8      -H37     : 177.713584
 C11     -C4      -C15     -C14     : -58.897936
 C11     -C4      -C15     -H51     :  61.510672
 C11     -C4      -C15     -H52     : 178.327807
 C11     -C12     -C13     -C14     :  54.009154
 C11     -C12     -C13     -H47     : 177.001949
 C11     -C12     -C13     -H48     : -65.809441
 C12     -C11     -C4      -C15     :  58.971760
 C12     -C11     -C4      -H42     : -59.407455
 C12     -C13     -C14     -C15     : -54.271140
 C12     -C13     -C14     -H49     :-176.627956
 C12     -C13     -C14     -H50     :  66.532782
 C13     -C12     -C11     -H43     : 178.627361
 C13     -C12     -C11     -H44     :  61.942771
 C13     -C14     -C15     -H51     : -61.792887
 C13     -C14     -C15     -H52     :-178.479895
 C14     -C13     -C12     -H45     : 176.012241
 C14     -C13     -C12     -H46     : -66.976675
 C14     -C15     -C4      -H42     :  58.893508
 C15     -C4      -C11     -H43     :-177.738394
 C15     -C4      -C11     -H44     : -61.634662
 C15     -C14     -C13     -H47     :-177.278751
 C15     -C14     -C13     -H48     :  65.575204
 C16     -C5      -C20     -C19     :   1.287825
 C16     -C5      -C20     -C21     :-177.553576
 C16     -C17     -C18     -C19     :   0.665048
 C16     -C17     -C18     -H55     :-179.718914
 C17     -C16     -C5      -C20     :  -1.211407
 C17     -C18     -C19     -C20     :  -0.571895
 C17     -C18     -C19     -H56     : 179.367552
 C18     -C17     -C16     -H53     :-178.989201
 C18     -C19     -C20     -C21     : 178.474057
 C19     -C18     -C17     -H54     :-179.240835
 C19     -C20     -C21     -C22     :  71.373194
 C19     -C20     -C21     -C26     :-105.630986
 C20     -C5      -C16     -H53     : 177.999322
 C20     -C19     -C18     -H55     : 179.810005
 C20     -C21     -C22     -C23     :-178.429994
 C20     -C21     -C22     -O29     :   1.115631
 C20     -C21     -C26     -C25     : 177.608870
 C20     -C21     -C26     -O27     :  -2.165602
 C21     -C20     -C19     -H56     :  -1.466592
 C21     -C22     -C23     -C24     :   0.901179
 C21     -C22     -C23     -H57     :-177.053008
 C21     -C22     -O29     -C30     : 164.947269
 C21     -C26     -C25     -C24     :   0.706575
 C21     -C26     -C25     -H59     : 177.496674
 C21     -C26     -O27     -C28     :-174.554332
 C22     -C21     -C26     -C25     :   0.556900
 C22     -C21     -C26     -O27     :-179.217573
 C22     -C23     -C24     -C25     :   0.408929
 C22     -C23     -C24     -H58     :-178.734228
 C22     -O29     -C30     -H63     : -54.854638
 C22     -O29     -C30     -H64     :-173.214419
 C22     -O29     -C30     -H65     :  68.510407
 C23     -C22     -C21     -C26     :  -1.371451
 C23     -C22     -O29     -C30     : -15.523765
 C23     -C24     -C25     -C26     :  -1.203033
 C23     -C24     -C25     -H59     :-178.036837
 C24     -C23     -C22     -O29     :-178.602463
 C24     -C25     -C26     -O27     :-179.541726
 C25     -C24     -C23     -H57     : 178.382307
 C25     -C26     -O27     -C28     :   5.679922
 C26     -C21     -C22     -O29     : 178.174174
 C26     -C25     -C24     -H58     : 177.940847
 C26     -O27     -C28     -H60     : 178.454452
 C26     -O27     -C28     -H61     :  59.794348
 C26     -O27     -C28     -H62     : -63.271916
 O27     -C26     -C25     -H59     :  -2.751627
 O29     -C22     -C23     -H57     :   3.443351
 H31     -C3      -C6      -H32     :-179.341127
 H31     -C3      -C6      -H33     : -61.192480
 H31     -C3      -C10     -H40     :  61.330313
 H31     -C3      -C10     -H41     : 179.857910
 H32     -C6      -C7      -H34     : 174.049747
 H32     -C6      -C7      -H35     :  57.893447
 H33     -C6      -C7      -H34     :  57.279927
 H33     -C6      -C7      -H35     : -58.876374
 H34     -C7      -C8      -H36     :-173.941990
 H34     -C7      -C8      -H37     : -57.170064
 H35     -C7      -C8      -H36     : -57.006984
 H35     -C7      -C8      -H37     :  59.764943
 H36     -C8      -C9      -H38     : 174.283623
 H36     -C8      -C9      -H39     :  57.073377
 H37     -C8      -C9      -H38     :  57.325881
 H37     -C8      -C9      -H39     : -59.884364
 H38     -C9      -C10     -H40     : -57.060117
 H38     -C9      -C10     -H41     :-175.143181
 H39     -C9      -C10     -H40     :  59.318382
 H39     -C9      -C10     -H41     : -58.764682
 H42     -C4      -C11     -H43     :  63.882392
 H42     -C4      -C11     -H44     : 179.986123
 H42     -C4      -C15     -H51     : 179.302115
 H42     -C4      -C15     -H52     : -63.880749
 H43     -C11     -C12     -H45     :  56.212034
 H43     -C11     -C12     -H46     : -60.351566
 H44     -C11     -C12     -H45     : -60.472556
 H44     -C11     -C12     -H46     :-177.036156
 H45     -C12     -C13     -H47     : -60.994964
 H45     -C12     -C13     -H48     :  56.193645
 H46     -C12     -C13     -H47     :  56.016120
 H46     -C12     -C13     -H48     : 173.204729
 H47     -C13     -C14     -H49     :  60.364433
 H47     -C13     -C14     -H50     : -56.474829
 H48     -C13     -C14     -H49     : -56.781611
 H48     -C13     -C14     -H50     :-173.620873
 H49     -C14     -C15     -H51     :  60.966891
 H49     -C14     -C15     -H52     : -55.720118
 H50     -C14     -C15     -H51     : 177.305653
 H50     -C14     -C15     -H52     :  60.618644
 H53     -C16     -C17     -H54     :   0.917550
 H54     -C17     -C18     -H55     :   0.375204
 H55     -C18     -C19     -H56     :  -0.250547
 H57     -C23     -C24     -H58     :  -0.760850
 H58     -C24     -C25     -H59     :   1.107043
 
  nuclear repulsion energy.......    3679.990920727 hartrees
  -------------------------------------------------
 /  end of geometry optimization iteration   1   /
 -------------------------------------------------
   
  end of program geopt
   
 Time(geopt)  user:        0.3  user+sys:        0.3  wallclock:        0.3
  
  start of program onee
  
  smallest eigenvalue of S:    3.882E-04
  number of canonical orbitals.....          509
  end of program onee
   
 Time(onee)  user:        1.2  user+sys:        1.2  wallclock:        1.2
  
  start of program probe
  
  end of program probe
   
 Time(probe)  user:        0.2  user+sys:        0.2  wallclock:        0.2
  
  start of program grid
  
   grid     grid set  grid #  grid sym
  ------    --------  ------  --------
  coarse        0        0        1
  medium        2        1        1
  fine          0        0        1
  ultrafine     4        2        1
  charge       -1        3        1
  gradient      4        2        1
  density       0        0        1
  DFT-fine    -11        4        1
  DFT-med.    -10        5        1
  DFT-grad    -12        6        1
  DFT-der2     -8        7        1
  DFT-cphf     -9        8        1
  LMP2-enrg     4        2        1
  LMP2-grad     2        1        1
  DFT-cphf2   -15        9        1
  PBF-dens      0        0        1
  plotting      0        0        1
  Rel-grad    -17        0        1
  
  number of gridpoints: 
     atom        P1      Pd2       C3       C4       C5       C6       C7
  grid # 1      607      404       82       80       95       92       92
  grid # 2      425      390      329      329      385      277      277
  grid # 3        9      444        6        6       14        6        6
  grid # 4     8714     8714     8714     8714     8714     8714     8714
  grid # 5     1192     1192     1192     1192     1192     1192     1192
  grid # 6     9132     9132     5922     5922     5922     5922     5922
  grid # 7    23034    32968    13950    13950    13950    13950    13950
  grid # 8      722     1150      748      748      748      748      748
  grid # 9      366     2198      394      394      394      394      394
   
  number of gridpoints: 
     atom        C8       C9      C10      C11      C12      C13      C14
  grid # 1       92       92       91       90       92       92       92
  grid # 2      278      277      278      278      280      278      278
  grid # 3        6        6        6        6        6        6        6
  grid # 4     8714     8714     8714     8714     8714     8714     8714
  grid # 5     1192     1192     1192     1192     1192     1192     1192
  grid # 6     5922     5922     5922     5922     5922     5922     5922
  grid # 7    13950    13950    13950    13950    13950    13950    13950
  grid # 8      748      748      748      748      748      748      748
  grid # 9      394      394      394      394      394      394      394
   
  number of gridpoints: 
     atom       C15      C16      C17      C18      C19      C20      C21
  grid # 1       92       93       95       97       96       98       99
  grid # 2      280      322      323      324      327      361      359
  grid # 3        6       10       29       45       30       15       11
  grid # 4     8714     8714     8714     8714     8714     8714     8714
  grid # 5     1192     1192     1192     1192     1192     1192     1192
  grid # 6     5922     5922     5922     5922     5922     5922     5922
  grid # 7    13950    13950    13950    13950    13950    13950    13950
  grid # 8      748      748      748      748      748      748      748
  grid # 9      394      394      394      394      394      394      394
   
  number of gridpoints: 
     atom       C22      C23      C24      C25      C26      O27      C28
  grid # 1       91       95       95       95       92      117       76
  grid # 2      346      322      328      322      345      448      226
  grid # 3       19       32       30       32       24       58        6
  grid # 4     8714     8714     8714     8714     8714     8714     8714
  grid # 5     1192     1192     1192     1192     1192     1192     1192
  grid # 6     5922     5922     5922     5922     5922     5922     5922
  grid # 7    13950    13950    13950    13950    13950    23382    13950
  grid # 8      748      748      748      748      748      774      748
  grid # 9      394      394      394      394      394      416      394
   
  number of gridpoints: 
     atom       O29      C30      H31      H32      H33      H34      H35
  grid # 1      119       76       97      107      107      106      112
  grid # 2      454      228      411      436      436      433      455
  grid # 3       77        6       23      153      158      150      325
  grid # 4     8714     8714     8714     8714     8714     8714     8714
  grid # 5     1192     1192     1192     1192     1192     1192     1192
  grid # 6     5922     5922     5922     5922     5922     5922     5922
  grid # 7    23382    13950    15206    15206    15206    15206    15206
  grid # 8      774      748      786      786      786      786      786
  grid # 9      416      394      420      420      420      420      420
   
  number of gridpoints: 
     atom       H36      H37      H38      H39      H40      H41      H42
  grid # 1      110      112      109      112      106      104      102
  grid # 2      454      457      445      456      441      432      422
  grid # 3      266      331      221      327      170      120       70
  grid # 4     8714     8714     8714     8714     8714     8714     8714
  grid # 5     1192     1192     1192     1192     1192     1192     1192
  grid # 6     5922     5922     5922     5922     5922     5922     5922
  grid # 7    15206    15206    15206    15206    15206    15206    15206
  grid # 8      786      786      786      786      786      786      786
  grid # 9      420      420      420      420      420      420      420
   
  number of gridpoints: 
     atom       H43      H44      H45      H46      H47      H48      H49
  grid # 1      103      105      112      110      112      110      112
  grid # 2      427      441      457      451      456      454      457
  grid # 3      126      161      324      250      329      267      324
  grid # 4     8714     8714     8714     8714     8714     8714     8714
  grid # 5     1192     1192     1192     1192     1192     1192     1192
  grid # 6     5922     5922     5922     5922     5922     5922     5922
  grid # 7    15206    15206    15206    15206    15206    15206    15206
  grid # 8      786      786      786      786      786      786      786
  grid # 9      420      420      420      420      420      420      420
   
  number of gridpoints: 
     atom       H50      H51      H52      H53      H54      H55      H56
  grid # 1      110      109      106      107      118      118      116
  grid # 2      450      441      434      427      465      468      457
  grid # 3      256      182      159      121      410      427      342
  grid # 4     8714     8714     8714     8714     8714     8714     8714
  grid # 5     1192     1192     1192     1192     1192     1192     1192
  grid # 6     5922     5922     5922     5922     5922     5922     5922
  grid # 7    15206    15206    15206    15206    15206    15206    15206
  grid # 8      786      786      786      786      786      786      786
  grid # 9      420      420      420      420      420      420      420
   
  number of gridpoints: 
     atom       H57      H58      H59      H60      H61      H62      H63
  grid # 1      111      117      111      104      108      111      111
  grid # 2      446      466      443      440      438      450      451
  grid # 3      259      408      252      200      191      320      271
  grid # 4     8714     8714     8714     8714     8714     8714     8714
  grid # 5     1192     1192     1192     1192     1192     1192     1192
  grid # 6     5922     5922     5922     5922     5922     5922     5922
  grid # 7    15206    15206    15206    15206    15206    15206    15206
  grid # 8      786      786      786      786      786      786      786
  grid # 9      420      420      420      420      420      420      420
   
  number of gridpoints: 
     atom       H64      H65    total
  grid # 1      111      110     7445
  grid # 2      462      448    25281
  grid # 3      391      321     9568
  grid # 4     8714     8714   566410
  grid # 5     1192     1192    77480
  grid # 6     5922     5922   391350
  grid # 7    15206    15206   997676
  grid # 8      786      786    50378
  grid # 9      420      420    28340
   
  end of program grid
   
 Time(grid)  user:      112.9  user+sys:      112.9  wallclock:      113.3
  
  start of program rwr
  
  end of program rwr
   
 Time(rwr)  user:        5.9  user+sys:        5.9  wallclock:        6.7
  
[...]
    H46      X    -0.00003  0.00001  0.00003 -0.00000 -0.00000 -0.00003
    H46      Y     0.00002  0.00002  0.00002 -0.00001 -0.00005  0.00009
    H46      Z     0.00022  0.00004 -0.00014 -0.00005 -0.00002  0.00015
    H47      X     0.00007  0.00005 -0.00017 -0.00009  0.00017 -0.00016
    H47      Y     0.00015  0.00006 -0.00039 -0.00017  0.00043 -0.00045
    H47      Z     0.00008  0.00004 -0.00017 -0.00009  0.00018 -0.00018
    H48      X    -0.00004  0.00000  0.00001  0.00001 -0.00000 -0.00004
    H48      Y    -0.00001  0.00000  0.00002  0.00001 -0.00001 -0.00001
    H48      Z     0.00015 -0.00007 -0.00002 -0.00003 -0.00002  0.00031
    H49      X    -0.00003  0.00131 -0.00036 -0.00011  0.00034 -0.00021
    H49      Y    -0.00000  0.00005 -0.00001 -0.00000  0.00000  0.00003
    H49      Z    -0.00000 -0.00018  0.00006  0.00002 -0.00006  0.00002
    H50      X    -0.00002  0.00004  0.00008  0.00001 -0.00006 -0.00002
    H50      Y     0.00001 -0.00000  0.00002 -0.00001 -0.00005  0.00012
    H50      Z     0.00018 -0.00036 -0.00044 -0.00010  0.00025  0.00012
    H51      X    -0.00007 -0.00009 -0.00007  0.00006  0.00011 -0.00013
    H51      Y    -0.00001  0.00005 -0.00006  0.00002  0.00011 -0.00020
    H51      Z     0.00026 -0.00048  0.00054 -0.00020 -0.00084  0.00125
    H52      X    -0.00001  0.00113  0.00107 -0.00007 -0.00152  0.00211
    H52      Y     0.00004 -0.00249 -0.00131  0.00011  0.00194 -0.00272
    H52      Z    -0.00003  0.00140  0.00057 -0.00005 -0.00076  0.00101
    H53      X    -0.00001 -0.00006  0.01071 -0.00009 -0.01480  0.02374
    H53      Y    -0.00068 -0.00096  0.24323 -0.00235 -0.34138  0.58257
    H53      Z    -0.00030 -0.00041  0.11240 -0.00102 -0.15709  0.26335
    H54      X     0.00005 -0.00007 -0.20859  0.00071  0.14203  0.05452
    H54      Y     0.00001 -0.00003 -0.08826  0.00033  0.06383  0.01877
    H54      Z     0.00009 -0.00015 -0.64016  0.00213  0.43706  0.16621
    H55      X    -0.00027 -0.00029  0.14868  0.00073  0.12622 -0.09596
    H55      Y     0.00092  0.00082 -0.44645 -0.00218 -0.38515  0.28444
    H55      Z    -0.00061 -0.00052  0.30456  0.00148  0.25657 -0.19754
    H56      X     0.00005 -0.00003  0.00992  0.00020  0.02202  0.02383
    H56      Y     0.00054  0.00031  0.23668  0.00462  0.51942  0.52944
    H56      Z     0.00017  0.00011  0.10478  0.00200  0.23088  0.23942
    H57      X    -0.00048  0.01704 -0.00037  0.19775 -0.00090  0.00052
    H57      Y    -0.00011  0.00412 -0.00009  0.03985 -0.00023  0.00003
    H57      Z     0.00069 -0.01766  0.00040 -0.23291  0.00118 -0.00049
    H58      X     0.00252  0.00235 -0.00011  0.27951 -0.00196 -0.00032
    H58      Y    -0.00020 -0.00036  0.00002 -0.03009  0.00023  0.00003
    H58      Z     0.00723  0.00737 -0.00033  0.83932 -0.00589 -0.00097
    H59      X    -0.02425 -0.00034  0.00055 -0.17016  0.00122  0.00001
    H59      Y    -0.00679 -0.00006  0.00016 -0.04713  0.00032  0.00002
    H59      Z    -0.00446  0.00006  0.00012 -0.04620  0.00040  0.00008
    H60      X    -0.36783 -0.00745 -0.00039  0.00375 -0.00006  0.00008
    H60      Y    -0.11746 -0.00238 -0.00014  0.00133 -0.00005 -0.00006
    H60      Z     0.81460  0.01648  0.00084 -0.00963  0.00016 -0.00010
    H61      X     0.09601  0.00182 -0.00023 -0.00169 -0.00038 -0.00049
    H61      Y    -0.17525 -0.00337  0.00028  0.00353  0.00051  0.00077
    H61      Z     0.08632  0.00161 -0.00022 -0.00181 -0.00033 -0.00052
    H62      X     0.02063  0.00035 -0.00003 -0.00017 -0.00003  0.00000
    H62      Y     0.17257  0.00312  0.00008 -0.00389 -0.00002  0.00022
    H62      Z     0.09378  0.00162  0.00003 -0.00243  0.00001  0.00019
    H63      X    -0.00099  0.04232 -0.00003 -0.00030 -0.00002 -0.00013
    H63      Y     0.00389 -0.17172  0.00019  0.00175  0.00025  0.00050
    H63      Z    -0.00051  0.01961 -0.00008  0.00041 -0.00008 -0.00015
    H64      X    -0.01566  0.78468  0.00064 -0.01051  0.00014  0.00019
    H64      Y     0.00025 -0.01262 -0.00001  0.00058 -0.00001 -0.00006
    H64      Z    -0.00920  0.46047  0.00035 -0.00675  0.00008  0.00010
    H65      X     0.00062 -0.03051  0.00001  0.00062  0.00002  0.00002
    H65      Y    -0.00228  0.10994  0.00004 -0.00635 -0.00002  0.00007
    H65      Z    -0.00348  0.16549 -0.00001 -0.01015 -0.00003  0.00011
  
  vibration #          187      188      189
                  -------- -------- --------
  frequencies      3212.63  3216.88  3235.40
  intensities        20.81     3.82     6.65
  reduc. mass         0.24     0.74     0.81
  force const         1.46     4.49     5.03
    P1       X    -0.00001 -0.00001 -0.00001
    P1       Y    -0.00010 -0.00000  0.00001
    P1       Z    -0.00005  0.00001  0.00001
    Pd2      X     0.00000 -0.00001  0.00001
    Pd2      Y    -0.00000 -0.00001  0.00001
    Pd2      Z     0.00000  0.00001  0.00000
    C3       X    -0.00001 -0.00001  0.00000
    C3       Y     0.00000 -0.00001 -0.00000
    C3       Z    -0.00004  0.00000  0.00001
    C4       X     0.00006 -0.00000  0.00001
    C4       Y    -0.00006 -0.00000 -0.00000
    C4       Z    -0.00026 -0.00001  0.00000
    C5       X     0.00050  0.00001 -0.00002
    C5       Y    -0.00026 -0.00003  0.00003
    C5       Z     0.00138  0.00003 -0.00003
    C6       X    -0.00028 -0.00001 -0.00001
    C6       Y     0.00030 -0.00001  0.00001
    C6       Z    -0.00034 -0.00001 -0.00001
    C7       X     0.00002  0.00000 -0.00000
    C7       Y    -0.00004 -0.00002 -0.00002
    C7       Z    -0.00002 -0.00001 -0.00000
    C8       X     0.00002  0.00001 -0.00001
    C8       Y    -0.00000 -0.00001 -0.00001
    C8       Z    -0.00001 -0.00000 -0.00000
    C9       X     0.00002  0.00001 -0.00002
    C9       Y    -0.00000 -0.00004 -0.00008
    C9       Z     0.00000  0.00001 -0.00001
    C10      X    -0.00003  0.00000  0.00001
    C10      Y    -0.00007 -0.00003 -0.00004
    C10      Z    -0.00004 -0.00002 -0.00006
    C11      X     0.00006 -0.00001 -0.00003
    C11      Y     0.00000 -0.00000 -0.00000
    C11      Z     0.00007  0.00001  0.00000
    C12      X    -0.00001  0.00000 -0.00000
    C12      Y     0.00000 -0.00001  0.00001
    C12      Z    -0.00003  0.00001 -0.00000
    C13      X    -0.00001 -0.00000  0.00000
    C13      Y    -0.00002 -0.00000  0.00001
    C13      Z    -0.00002  0.00001  0.00000
    C14      X    -0.00002 -0.00001  0.00001
    C14      Y    -0.00001 -0.00000  0.00000
    C14      Z     0.00000  0.00000  0.00000
    C15      X    -0.00009  0.00000 -0.00001
    C15      Y     0.00020 -0.00001  0.00001
    C15      Z    -0.00009  0.00002 -0.00001
    C16      X    -0.00127 -0.00002  0.00001
    C16      Y    -0.04375 -0.00056  0.00018
    C16      Z    -0.01831 -0.00024  0.00008
    C17      X    -0.01268 -0.00015  0.00004
    C17      Y    -0.00597 -0.00008  0.00002
    C17      Z    -0.03913 -0.00047  0.00013
    C18      X    -0.01166 -0.00016  0.00007
    C18      Y     0.03578  0.00050 -0.00018
    C18      Z    -0.02372 -0.00034  0.00013
    C19      X     0.00212  0.00002 -0.00002
    C19      Y     0.03419  0.00055 -0.00018
    C19      Z     0.01722  0.00027 -0.00011
    C20      X     0.00055 -0.00004 -0.00003
    C20      Y    -0.00081 -0.00003 -0.00000
    C20      Z     0.00141  0.00005  0.00006
    C21      X    -0.00006  0.00031  0.00047
    C21      Y     0.00007  0.00016  0.00014
    C21      Z    -0.00010 -0.00033  0.00004
    C22      X    -0.00010 -0.00125  0.00025
    C22      Y    -0.00000  0.00030 -0.00003
    C22      Z    -0.00004 -0.00276  0.00036
    C23      X     0.00074 -0.05081  0.00659
    C23      Y     0.00016 -0.01115  0.00157
    C23      Z    -0.00078  0.05857 -0.00590
    C24      X    -0.00020  0.01011 -0.00457
    C24      Y     0.00001  0.00002  0.00149
    C24      Z    -0.00051  0.02344 -0.02084
    C25      X    -0.00018 -0.01218 -0.07561
    C25      Y    -0.00005 -0.00309 -0.02131
    C25      Z     0.00001 -0.00479 -0.01886
    C26      X     0.00009  0.00013  0.00041
    C26      Y     0.00002 -0.00000 -0.00027
    C26      Z    -0.00015  0.00048  0.00320
    O27      X    -0.00005 -0.00001 -0.00012
    O27      Y    -0.00003  0.00000  0.00001
    O27      Z     0.00006 -0.00006 -0.00037
    C28      X     0.00007 -0.00005 -0.00034
    C28      Y     0.00007  0.00004  0.00003
    C28      Z    -0.00008 -0.00066 -0.00216
    O29      X     0.00006  0.00006  0.00002
    O29      Y    -0.00001 -0.00005  0.00000
    O29      Z    -0.00000  0.00034 -0.00004
    C30      X    -0.00014  0.00080 -0.00000
    C30      Y     0.00000  0.00050 -0.00005
    C30      Z    -0.00004  0.00224 -0.00006
    H31      X     0.00028  0.00004 -0.00013
    H31      Y     0.00047  0.00021  0.00004
    H31      Z     0.00010 -0.00000 -0.00002
    H32      X    -0.00022  0.00003  0.00001
    H32      Y    -0.00053  0.00018 -0.00003
    H32      Z    -0.00008  0.00002 -0.00001
    H33      X     0.00318  0.00004  0.00011
    H33      Y    -0.00309 -0.00004 -0.00009
    H33      Z     0.00378  0.00004  0.00018
    H34      X     0.00004  0.00003  0.00002
    H34      Y     0.00014  0.00012  0.00017
    H34      Z    -0.00004 -0.00001 -0.00000
    H35      X    -0.00026 -0.00004  0.00002
    H35      Y     0.00025  0.00005  0.00001
    H35      Z     0.00076  0.00016  0.00004
    H36      X     0.00002  0.00002  0.00002
    H36      Y     0.00006  0.00013  0.00020
    H36      Z     0.00002  0.00002  0.00006
    H37      X    -0.00019 -0.00007  0.00015
    H37      Y    -0.00007 -0.00002  0.00001
    H37      Z     0.00013  0.00002 -0.00003
    H38      X    -0.00001  0.00008  0.00021
    H38      Y    -0.00002  0.00032  0.00087
    H38      Z     0.00001  0.00002  0.00003
    H39      X    -0.00024 -0.00013  0.00013
    H39      Y     0.00012  0.00010 -0.00008
    H39      Z    -0.00012 -0.00013  0.00008
    H40      X    -0.00009 -0.00005 -0.00024
    H40      Y     0.00031  0.00002  0.00018
    H40      Z     0.00107  0.00021  0.00062
    H41      X     0.00010  0.00005  0.00008
    H41      Y     0.00054  0.00031  0.00034
    H41      Z    -0.00005  0.00002  0.00006
    H42      X    -0.00045  0.00001 -0.00001
    H42      Y    -0.00136 -0.00001  0.00000
    H42      Z     0.00698  0.00005 -0.00007
    H43      X    -0.00012  0.00012  0.00027
    H43      Y    -0.00006 -0.00002 -0.00001
    H43      Z     0.00001 -0.00004 -0.00006
    H44      X     0.00009 -0.00001 -0.00001
    H44      Y    -0.00034  0.00004  0.00001
    H44      Z    -0.00050  0.00000  0.00001
    H45      X     0.00004 -0.00003  0.00005
    H45      Y     0.00011  0.00009 -0.00014
    H45      Z     0.00002 -0.00003  0.00006
    H46      X    -0.00004  0.00001  0.00000
    H46      Y     0.00007 -0.00001  0.00000
    H46      Z     0.00034 -0.00006 -0.00005
    H47      X     0.00013  0.00002 -0.00005
    H47      Y     0.00016  0.00005 -0.00011
    H47      Z     0.00011  0.00002 -0.00006
    H48      X    -0.00003  0.00002  0.00001
    H48      Y    -0.00003  0.00001  0.00001
    H48      Z     0.00016 -0.00009 -0.00001
    H49      X     0.00058  0.00013 -0.00006
    H49      Y     0.00006  0.00001 -0.00000
    H49      Z    -0.00011 -0.00002  0.00001
    H50      X    -0.00006  0.00000  0.00000
    H50      Y     0.00009 -0.00001 -0.00000
    H50      Z     0.00015 -0.00007 -0.00003
    H51      X    -0.00000  0.00004  0.00001
    H51      Y    -0.00016 -0.00001  0.00002
    H51      Z     0.00050 -0.00015  0.00004
    H52      X     0.00145 -0.00007  0.00009
    H52      Y    -0.00202  0.00011 -0.00014
    H52      Z     0.00074 -0.00007  0.00007
    H53      X     0.01919  0.00026 -0.00010
    H53      Y     0.48922  0.00632 -0.00213
    H53      Z     0.21897  0.00286 -0.00103
    H54      X     0.13757  0.00163 -0.00048
    H54      Y     0.05952  0.00071 -0.00021
    H54      Z     0.42278  0.00502 -0.00141
    H55      X     0.12803  0.00182 -0.00069
    H55      Y    -0.38714 -0.00540  0.00201
    H55      Z     0.26187  0.00368 -0.00142
    H56      X    -0.01788 -0.00032  0.00006
    H56      Y    -0.38536 -0.00599  0.00170
    H56      Z    -0.17580 -0.00273  0.00088
    H57      X    -0.00798  0.58369 -0.06375
    H57      Y    -0.00156  0.11772 -0.01315
    H57      Z     0.00898 -0.67100  0.07107
    H58      X     0.00188 -0.09092  0.06717
    H58      Y    -0.00018  0.00720 -0.00827
    H58      Z     0.00555 -0.26188  0.20967
    H59      X     0.00154  0.15126  0.86280
    H59      Y     0.00046  0.04180  0.24035
    H59      Z     0.00024  0.03998  0.21703
    H60      X    -0.00058 -0.00177 -0.00476
    H60      Y    -0.00014 -0.00066 -0.00202
    H60      Z     0.00119  0.00501  0.01615
    H61      X     0.00009  0.00167  0.00575
    H61      Y    -0.00023 -0.00344 -0.01232
    H61      Z     0.00010  0.00195  0.00765
    H62      X    -0.00011  0.00019  0.00053
    H62      Y    -0.00038  0.00333  0.01273
    H62      Z    -0.00033  0.00225  0.00948
    H63      X    -0.00001 -0.00147 -0.00006
    H63      Y    -0.00016  0.00555  0.00016
    H63      Z    -0.00000  0.00028 -0.00010
    H64      X     0.00141 -0.01259  0.00025
    H64      Y    -0.00002  0.00124 -0.00013
    H64      Z     0.00083 -0.00901  0.00028
    H65      X     0.00005  0.00053  0.00009
    H65      Y    -0.00001 -0.01275  0.00060
    H65      Z    -0.00015 -0.02115  0.00111
  
  Number of imaginary frequencies:   0
   
  Writing vibrational animation data to L1_PL145.vib
  Writing IR vibrational spectrum data to L1_PL145_vib.spm
  rotational symmetry number:  1

  rotational temperatures (K):      0.007385      0.006213      0.005288
   
  The Quasi-Harmonic approximation will be applied to compute
  vibrational constributions to thermodynamic properties.
  Frequencies will be adjusted to a minimum value of  100.00 cm^-1.

  vibrational temperatures:
       mode:      1        2        3        4        5        6
  temp. (K):   143.88   143.88   143.88   143.88   143.88   143.88
   
       mode:      7        8        9       10       11       12
  temp. (K):   143.88   143.88   143.88   143.88   144.79   157.30
   
       mode:     13       14       15       16       17       18
  temp. (K):   180.19   206.09   227.10   231.73   238.94   255.03
   
       mode:     19       20       21       22       23       24
  temp. (K):   284.06   288.96   318.91   325.85   351.94   369.17
   
       mode:     25       26       27       28       29       30
  temp. (K):   380.95   393.54   404.82   429.53   447.87   473.08
   
       mode:     31       32       33       34       35       36
  temp. (K):   487.48   493.02   532.82   560.85   589.08   604.29
   
       mode:     37       38       39       40       41       42
  temp. (K):   619.91   639.92   647.03   674.49   683.21   695.21
   
       mode:     43       44       45       46       47       48
  temp. (K):   730.52   759.43   765.31   782.53   810.60   836.30
   
       mode:     49       50       51       52       53       54
  temp. (K):   885.20   895.59   974.21  1020.99  1044.80  1051.37
   
       mode:     55       56       57       58       59       60
  temp. (K):  1094.30  1099.60  1112.53  1124.24  1128.34  1165.35
   
       mode:     61       62       63       64       65       66
  temp. (K):  1168.61  1182.40  1205.78  1213.02  1257.71  1264.12
   
       mode:     67       68       69       70       71       72
  temp. (K):  1291.93  1310.26  1317.48  1320.86  1326.54  1338.26
   
       mode:     73       74       75       76       77       78
  temp. (K):  1359.15  1363.99  1364.32  1404.10  1452.82  1458.73
   
       mode:     79       80       81       82       83       84
  temp. (K):  1474.31  1482.75  1523.41  1530.01  1533.79  1550.79
   
       mode:     85       86       87       88       89       90
  temp. (K):  1561.67  1565.25  1580.00  1597.19  1598.10  1608.22
   
       mode:     91       92       93       94       95       96
  temp. (K):  1610.23  1615.53  1632.57  1659.75  1665.10  1671.23
   
       mode:     97       98       99      100      101      102
  temp. (K):  1694.32  1701.37  1734.76  1739.39  1747.79  1748.36
   
       mode:    103      104      105      106      107      108
  temp. (K):  1755.59  1759.37  1762.47  1812.90  1832.99  1844.42
   
       mode:    109      110      111      112      113      114
  temp. (K):  1871.61  1876.43  1881.38  1889.11  1894.94  1900.66
   
       mode:    115      116      117      118      119      120
  temp. (K):  1905.43  1906.83  1919.55  1929.10  1937.06  1977.65
   
       mode:    121      122      123      124      125      126
  temp. (K):  1978.94  1980.20  1996.08  2005.67  2009.29  2011.23
   
       mode:    127      128      129      130      131      132
  temp. (K):  2013.20  2018.17  2019.97  2021.77  2101.73  2130.64
   
       mode:    133      134      135      136      137      138
  temp. (K):  2142.08  2153.82  2162.76  2165.50  2169.70  2171.22
   
       mode:    139      140      141      142      143      144
  temp. (K):  2172.68  2175.28  2176.02  2177.35  2181.30  2185.79
   
       mode:    145      146      147      148      149      150
  temp. (K):  2189.35  2190.06  2195.62  2202.55  2205.39  2206.63
   
       mode:    151      152      153      154      155      156
  temp. (K):  2303.70  2339.35  2348.09  2385.53  4328.59  4349.57
   
       mode:    157      158      159      160      161      162
  temp. (K):  4352.73  4353.30  4356.94  4358.12  4360.15  4361.58
   
       mode:    163      164      165      166      167      168
  temp. (K):  4363.43  4364.61  4367.56  4374.20  4380.98  4386.44
   
       mode:    169      170      171      172      173      174
  temp. (K):  4429.36  4431.92  4433.27  4434.47  4435.91  4437.32
   
       mode:    175      176      177      178      179      180
  temp. (K):  4443.90  4447.55  4450.32  4456.41  4459.83  4464.36
   
       mode:    181      182      183      184      185      186
  temp. (K):  4541.97  4544.45  4577.54  4593.17  4596.46  4613.00
   
       mode:    187      188      189
  temp. (K):  4622.25  4628.37  4655.01
   
   
  Thermodynamic properties calculated assuming an ideal gas

  In the table below, the units for temperature
  are kelvins, the units for U, H, and G are
  kcal/mol and the units for Cv and S are cal/(mol K)

  The zero point energy (ZPE):    354.500 kcal/mol
  is not included in U, H, or G in the table below
  
 
  =============================================================================
  Thermodynamic properties for P = 1.00E+00 atm, calculated at   1 temperatures


  T =   298.15 K, P = 1.00E+00 atm
   
                  U         Cv          S          H          G        ln(Q)
              =========  =========  =========  =========  =========  =========
  trans.          0.889      2.981     44.610      1.481    -11.819   19.94869
  rot.            0.889      2.981     36.236      0.889     -9.915   16.73461
  vib.           16.422    109.642     99.837     16.422    -13.344   22.52202
  elec.           0.000      0.000      0.000      0.000      0.000    0.00000
  ----------------------------------------------------------------------------
  total          18.200    115.603    180.683     18.792    -35.078   59.20533
   
   Total internal energy, Utot(SCFE + ZPE + U):   -1629.493394 hartrees
   Total enthalpy, Htot (Utot + nRT), with n=1:   -1629.492449 hartrees
    Total Gibbs free energy, Gtot (Htot - T*S):   -1629.578298 hartrees
   
  end of program freq
   
 Time(freq)  user:        2.5  user+sys:        2.5  wallclock:        6.5
  
  start of program post
  
  Writing input files for PBF
  end of program post
   
 Time(post)  user:        2.0  user+sys:        2.0  wallclock:        2.7

 Total cpu seconds     user:   26200.769   user+sys:   26200.769
  
 Total elapsed time:    26590 seconds

Job L1_PL145 completed on bp1-compute092.data.bp.acrc.priv at Sat Mar 23 10:14:51 2024
