Job L_Ar_OtBu_PL145 started on bp1-compute194 at Tue Nov 25 15:43:29 2025
jobid: bp1-compute194-0-6925ce79

  +--------------------------------------------------------------------+
  |  Jaguar version 12.5, release 138                                  |
  |                                                                    |
  |  Copyright Schrodinger, Inc.                                       |
  |  All Rights Reserved.                                              |
  |                                                                    |
  |  The following have contributed to Jaguar (listed alphabetically): |
  |  Ty Balduf, Mike Beachy, Chandler Bennett, Art Bochevarov,         |
  |  Dale Braden, Yixiang Cao, Alan Chien, Chris Cortis,               |
  |  Rich Friesner, Jim Furness, Bill Goddard, Hod Greeley,            |
  |  Tom Hughes, Leif Jacobson, Jean-Marc Langlois, Daniel Levine,     |
  |  Rob Murphy, Dean Philipp, Tom Pollard, Murco Ringnalda,           |
  |  Daniel Mainz, Pablo Videla, Mark Watson, Haoyu Yu.                |
  |                                                                    |
  |  Use of this program should be acknowledged in publications as:    |
  |                                                                    |
  |  Jaguar, version 12.5, Schrodinger, Inc., New York, NY, 2024.      |
  |                                                                    |
  |  A. D. Bochevarov, E. Harder, T. F. Hughes, J. R. Greenwood,       |
  |  D. A. Braden, D. M. Philipp, D. Rinaldo, M. D. Halls,             |
  |  J. Zhang, R. A. Friesner, "Jaguar: A High-Performance Quantum     |
  |  Chemistry Software Program with Strengths in Life and Materials   |
  |  Sciences", Int. J. Quantum Chem., 2013, 113(18), 2110-2142.       |
  +--------------------------------------------------------------------+
  
  start of program pre
  
  Job name: L_Ar_OtBu_PL145
  Executables used: /software/local/apps/schrodinger2024-3/jaguar-v12.5/bin/Linux-x86_64
  Temporary files : /tmp/ar21627/L_Ar_OtBu_PL145#bp1-compute194-0-6925ce79
  Basis file : using default basis file from /software/local/apps/schrodinger2024-3
  Maestro file (input):  L_Ar_OtBu_PL145.mae
  Maestro file (output): L_Ar_OtBu_PL145.01.mae
  
 Contents of input file: &gen and (if present) &atomic sections only
 ----------------Contents start----------------
&gen
dftname=b3pw91-d3
basis=6-31G*
numd=5
ip11=2
iaccg=3
isolv=2
igeopt=1
solvent=benzene
ifreq=1
&
&atomic
atom basis
Pd2 lacv3p*
&
 -----------------Contents end-----------------
 
  PS calculation requested. Using PS version of 6-31g*
  basis set:               non_standard                    
  net molecular charge:    0
  multiplicity:            1
  
  Using up to  18 threads per process
  
  This run will use ECP on 1 atom
  number of basis functions....          705
  
 Input geometry:
                                   angstroms
  atom               x                 y                 z
  P1            0.0000000000      0.0000000000      0.0000000000 
  Pd2           0.0000000000      0.0000000000      2.2309134475 
  C73           4.7174414970      0.0000000000      2.6365210529 
  C74           3.9679141459      1.1676304042      2.5777949999 
  C75           2.5931499981      1.0664783399      2.3541702154 
  C76           1.9728188263     -0.1880262448      2.2215952450 
  C77           2.7634311203     -1.3405362759      2.2592840013 
  C78           4.1402749909     -1.2517697469      2.4761470206 
  F79           6.0478210637      0.0864498506      2.8428955990 
  H80           4.4576606319      2.1313204713      2.6914694317 
  H81           2.0101698538      1.9849889320      2.2869529738 
  H82           2.3247534292     -2.3211416194      2.1254607125 
  H83           4.7646282139     -2.1405875640      2.5116765630 
  C3            0.8517579712      1.5842325892     -0.5291023518 
  C4            0.9645240451     -1.3912721816     -0.8099899102 
  C5           -1.6552249407      0.0524187702     -0.8069233128 
  C6            0.5415312585      2.0391528395     -1.9615239719 
  C7            1.1705746556      3.4137776030     -2.2277122683 
  C8            2.6734036272      3.4258376327     -1.9448722316 
  C9            2.9639184126      2.9453760828     -0.5229199821 
  C10           2.3657924555      1.5574784779     -0.2788697055 
  C11           2.1915606059     -1.7766729991      0.0428816970 
  C12           3.1028496640     -2.7359235178     -0.7312009837 
  C13           2.3478216612     -3.9966228847     -1.1592000634 
  C14           1.0787061895     -3.6396492282     -1.9372965941 
  C15           0.1882061324     -2.6785816827     -1.1403113857 
  C16          -1.7019159815     -0.2718422869     -2.1749450418 
  C17          -2.8963004339     -0.2774685354     -2.8860910106 
  C18          -4.0852205418      0.0445645708     -2.2335048908 
  C19          -4.0510434636      0.3957865192     -0.8891157409 
  C20          -2.8546282862      0.4239971398     -0.1551993775 
  C21          -2.9473454126      0.8749903944      1.2609923625 
  C22          -3.6595876735      0.1213549953      2.2155813099 
  C23          -3.7445085022      0.5451314547      3.5449950500 
  C24          -3.1696764088      1.7617571500      3.9031347613 
  C25          -2.5340091798      2.5698903217      2.9692101064 
  C26          -2.4281460947      2.1243104918      1.6479371639 
  O27          -1.8474435593      2.8438084260      0.6529275943 
  C28          -1.4163668795      4.1664708689      0.9459065770 
  O29          -4.2546219286     -1.0086366365      1.7481468509 
  C30          -4.8748638268     -1.8807372950      2.6782643066 
  H31           0.4115888904      2.3084771946      0.1631139186 
  H32           0.9405191558      1.3113338989     -2.6844459106 
  H33          -0.5395598282      2.0969372125     -2.1189612244 
  H34           0.6784301399      4.1554805981     -1.5827022377 
  H35           0.9672483859      3.7151581109     -3.2633087776 
  H36           3.1820466595      2.7627157154     -2.6613248991 
  H37           3.0823434600      4.4320285385     -2.1044202467 
  H38           2.5350638772      3.6451777581      0.2081131823 
  H39           4.0449717922      2.9181433298     -0.3367979031 
  H40           2.5727814909      1.2459495104      0.7499057587 
  H41           2.8443811947      0.8394531150     -0.9602339607 
  H42           1.3262249815     -0.9487492583     -1.7531724322 
  H43           2.7570670372     -0.9013767222      0.3693421252 
  H44           1.8298058768     -2.2686116979      0.9542879198 
  H45           3.9688635841     -2.9992956552     -0.1103379773 
  H46           3.4993428828     -2.2224376931     -1.6207175223 
  H47           2.9962448704     -4.6489224270     -1.7585719155 
  H48           2.0667671918     -4.5670536877     -0.2614061606 
  H49           0.5108792693     -4.5469827258     -2.1809803299 
  H50           1.3529157471     -3.1738417345     -2.8967487109 
  H51          -0.1122339838     -3.1584296780     -0.2031029128 
  H52          -0.7334821833     -2.4753998185     -1.6922500563 
  H53          -0.7850961098     -0.5133821766     -2.7054545793 
  H54          -2.8940330121     -0.5326592645     -3.9434204293 
  H55          -5.0308044154      0.0359479902     -2.7709010552 
  H56          -4.9704660898      0.6668532490     -0.3768368925 
  H57          -4.2558489492     -0.0526310380      4.2913136343 
  H58          -3.2247658938      2.0907802458      4.9384179891 
  H59          -2.0828713315      3.5041015288      3.2793332710 
  H60          -1.0730852843      4.5801519247     -0.0045782145 
  H61          -0.5909955156      4.1628340679      1.6675048680 
  H62          -2.2465707320      4.7772613771      1.3251536287 
  H63          -4.1574401864     -2.2381350319      3.4281098046 
  H64          -5.2373343781     -2.7296686493      2.0942711466 
  H65          -5.7264637464     -1.3984924531      3.1777615096 
  O3           -0.0327999077     -0.2657265772      4.3137415049 
  C105          0.4644875224      0.5808227558      5.3128822524 
  C106         -0.3708122586      0.2785419354      6.5684105024 
  C107          1.9401843581      0.2992697586      5.6555837729 
  C108          0.2770298389      2.0611501392      4.9502521490 
  H109         -0.0144728216      0.8393540763      7.4426340297 
  H110         -1.4123529958      0.5444312858      6.3833384778 
  H111         -0.3251466514     -0.7931591494      6.7940886678 
  H112          0.5786884214      2.7280447180      5.7699223577 
  H113          0.8722007921      2.3124932762      4.0658131902 
  H114         -0.7778155424      2.2444520796      4.7146055672 
  H115          2.2374995148      0.8191055790      6.5769206349 
  H116          2.0748346913     -0.7780324622      5.8041215146 
  H117          2.6127958773      0.6140497774      4.8564082705 
   
  principal moments of inertia:
        amu*angstrom^2:              5610.54560              6630.29392              8198.82662
                g*cm^2:          9.31652899E-37          1.10098607E-36          1.36144702E-36
   
  rotational constants:
               cm^(-1):      0.00300463      0.00254252      0.00205610
                   GHz:      0.09007662      0.07622272      0.06164041
   
  Molecular weight:     684.24 amu
   
  Stoichiometry: PdC36PH48O3F
  Molecular Point Group: C1      
  Point Group used: C1
  
 
Number of optimization coordinates:   307
Number of independent coordinates:    307
Number of non-redundant coordinates:  264
Number of frozen coordinates:           0
Number of harmonic constraints:         0
 
Number of geometric degrees of freedom:   264
Maximum geometric degrees of freedom:     264
 " " " " " excluding dummy atoms:         264
 
 
  bond lengths (angstroms):
 
 P1      -Pd2     :   2.230913      P1      -C3      :   1.874896
 P1      -C4      :   1.876707      P1      -C5      :   1.842184
 Pd2     -C76     :   1.981781      Pd2     -O3      :   2.099966
 C73     -C74     :   1.388741      C73     -C78     :   1.387721
 C73     -F79     :   1.349064      C74     -C75     :   1.396501
 C74     -H80     :   1.086955      C75     -C76     :   1.405763
 C75     -H81     :   1.089975      C76     -C77     :   1.398130
 C77     -C78     :   1.396642      C77     -H82     :   1.082559
 C78     -H83     :   1.086773      C3      -C6      :   1.534609
 C3      -C10     :   1.534807      C3      -H31     :   1.094277
 C4      -C11     :   1.543225      C4      -C15     :   1.539139
 C4      -H42     :   1.102836      C5      -C16     :   1.406701
 C5      -C20     :   1.414702      C6      -C7      :   1.534974
 C6      -H32     :   1.100694      C6      -H33     :   1.094022
 C7      -C8      :   1.529261      C7      -H34     :   1.099258
 C7      -H35     :   1.097557      C8      -C9      :   1.528787
 C8      -H36     :   1.100796      C8      -H37     :   1.097774
 C9      -C10     :   1.530874      C9      -H38     :   1.099112
 C9      -H39     :   1.097296      C10     -H40     :   1.094657
 C10     -H41     :   1.099484      C11     -C12     :   1.532910
 C11     -H43     :   1.092024      C11     -H44     :   1.097056
 C12     -C13     :   1.530560      C12     -H45     :   1.097641
 C12     -H46     :   1.100961      C13     -C14     :   1.530855
 C13     -H47     :   1.097813      C13     -H48     :   1.100189
 C14     -C15     :   1.533567      C14     -H49     :   1.097754
 C14     -H50     :   1.101234      C15     -H51     :   1.094933
 C15     -H52     :   1.093357      C16     -C17     :   1.390077
 C16     -H53     :   1.086435      C17     -C18     :   1.393953
 C17     -H54     :   1.087692      C18     -C19     :   1.389931
 C18     -H55     :   1.087657      C19     -C20     :   1.403866
 C19     -H56     :   1.086851      C20     -C21     :   1.489158
 C21     -C22     :   1.409431      C21     -C26     :   1.407158
 C22     -C23     :   1.397905      C22     -O29     :   1.359942
 C23     -C24     :   1.392435      C23     -H57     :   1.084334
 C24     -C25     :   1.389017      C24     -H58     :   1.087705
 C25     -C26     :   1.398396      C25     -H59     :   1.082798
 C26     -O27     :   1.358284      O27     -C28     :   1.421654
 C28     -H60     :   1.091969      C28     -H61     :   1.096337
 C28     -H62     :   1.098240      O29     -C30     :   1.417878
 C30     -H63     :   1.097587      C30     -H64     :   1.092299
 C30     -H65     :   1.098763      O3      -C105    :   1.400794
 C105    -C106    :   1.538002      C105    -C107    :   1.540908
 C105    -C108    :   1.535581      C106    -H109    :   1.098069
 C106    -H110    :   1.090759      C106    -H111    :   1.096157
 C107    -H115    :   1.098857      C107    -H116    :   1.095798
 C107    -H117    :   1.090951      C108    -H112    :   1.098911
 C108    -H113    :   1.095278      C108    -H114    :   1.096279
 
  bond angles:
 
 C3      -P1      -Pd2     : 106.391768  C4      -P1      -Pd2     : 115.569253
 C4      -P1      -C3      : 105.731250  C5      -P1      -Pd2     : 115.977956
 C5      -P1      -C3      : 105.101807  C5      -P1      -C4      : 107.087263
 C76     -Pd2     -P1      :  89.730598  O3      -Pd2     -P1      : 172.674917
 O3      -Pd2     -C76     :  90.470205  C78     -C73     -C74     : 121.941550
 F79     -C73     -C74     : 119.001505  F79     -C73     -C78     : 119.053875
 C75     -C74     -C73     : 118.501893  H80     -C74     -C73     : 119.856791
 H80     -C74     -C75     : 121.635866  C76     -C75     -C74     : 120.940605
 H81     -C75     -C74     : 118.383320  H81     -C75     -C76     : 120.675918
 C75     -C76     -Pd2     : 110.742561  C77     -C76     -Pd2     : 129.866729
 C77     -C76     -C75     : 118.917618  C78     -C77     -C76     : 120.614327
 H82     -C77     -C76     : 120.944807  H82     -C77     -C78     : 118.440435
 C77     -C78     -C73     : 119.031424  H83     -C78     -C73     : 119.670329
 H83     -C78     -C77     : 121.295644  C6      -C3      -P1      : 114.964594
 C10     -C3      -P1      : 112.793337  C10     -C3      -C6      : 110.901780
 H31     -C3      -P1      : 101.419269  H31     -C3      -C6      : 108.236627
 H31     -C3      -C10     : 107.770480  C11     -C4      -P1      : 110.809153
 C15     -C4      -P1      : 116.964847  C15     -C4      -C11     : 108.105890
 H42     -C4      -P1      : 103.899081  H42     -C4      -C11     : 108.184825
 H42     -C4      -C15     : 108.510926  C16     -C5      -P1      : 116.695269
 C20     -C5      -P1      : 124.572951  C20     -C5      -C16     : 118.712608
 C7      -C6      -C3      : 110.151108  H32     -C6      -C3      : 110.105960
 H32     -C6      -C7      : 109.251412  H33     -C6      -C3      : 110.471785
 H33     -C6      -C7      : 109.433172  H33     -C6      -H32     : 107.374274
 C8      -C7      -C6      : 112.192083  H34     -C7      -C6      : 108.603536
 H34     -C7      -C8      : 109.033617  H35     -C7      -C6      : 109.488313
 H35     -C7      -C8      : 110.756492  H35     -C7      -H34     : 106.584484
 C9      -C8      -C7      : 110.872766  H36     -C8      -C7      : 109.205369
 H36     -C8      -C9      : 109.161945  H37     -C8      -C7      : 110.268897
 H37     -C8      -C9      : 110.637203  H37     -C8      -H36     : 106.584223
 C10     -C9      -C8      : 111.036126  H38     -C9      -C8      : 110.144428
 H38     -C9      -C10     : 108.587550  H39     -C9      -C8      : 110.657556
 H39     -C9      -C10     : 109.595930  H39     -C9      -H38     : 106.701934
 C9      -C10     -C3      : 110.097937  H40     -C10     -C3      : 110.164588
 H40     -C10     -C9      : 109.509079  H41     -C10     -C3      : 109.861058
 H41     -C10     -C9      : 108.856603  H41     -C10     -H40     : 108.315770
 C12     -C11     -C4      : 110.480054  H43     -C11     -C4      : 112.135162
 H43     -C11     -C12     : 110.162632  H44     -C11     -C4      : 107.994765
 H44     -C11     -C12     : 109.569247  H44     -C11     -H43     : 106.369106
 C13     -C12     -C11     : 111.308402  H45     -C12     -C11     : 109.484509
 H45     -C12     -C13     : 110.471246  H46     -C12     -C11     : 109.282638
 H46     -C12     -C13     : 109.626628  H46     -C12     -H45     : 106.545304
 C14     -C13     -C12     : 111.039980  H47     -C13     -C12     : 110.531456
 H47     -C13     -C14     : 110.531024  H48     -C13     -C12     : 108.959150
 H48     -C13     -C14     : 108.898445  H48     -C13     -H47     : 106.758853
 C15     -C14     -C13     : 111.307811  H49     -C14     -C13     : 110.420994
 H49     -C14     -C15     : 109.449986  H50     -C14     -C13     : 109.575092
 H50     -C14     -C15     : 109.407966  H50     -C14     -H49     : 106.559424
 C14     -C15     -C4      : 110.047718  H51     -C15     -C4      : 108.737896
 H51     -C15     -C14     : 109.239736  H52     -C15     -C4      : 112.216242
 H52     -C15     -C14     : 110.097153  H52     -C15     -H51     : 106.393026
 C17     -C16     -C5      : 121.801133  H53     -C16     -C5      : 119.875344
 H53     -C16     -C17     : 118.318329  C18     -C17     -C16     : 119.498697
 H54     -C17     -C16     : 119.766417  H54     -C17     -C18     : 120.734884
 C19     -C18     -C17     : 119.355067  H55     -C18     -C17     : 120.554882
 H55     -C18     -C19     : 120.084469  C20     -C19     -C18     : 122.119491
 H56     -C19     -C18     : 119.875694  H56     -C19     -C20     : 118.003328
 C19     -C20     -C5      : 118.451721  C21     -C20     -C5      : 124.780787
 C21     -C20     -C19     : 116.755999  C22     -C21     -C20     : 120.905724
 C26     -C21     -C20     : 120.491986  C26     -C21     -C22     : 118.355750
 C23     -C22     -C21     : 120.844093  O29     -C22     -C21     : 115.633306
 O29     -C22     -C23     : 123.517210  C24     -C23     -C22     : 118.973084
 H57     -C23     -C22     : 121.069663  H57     -C23     -C24     : 119.954861
 C25     -C24     -C23     : 121.623413  H58     -C24     -C23     : 119.222318
 H58     -C24     -C25     : 119.153199  C26     -C25     -C24     : 118.982581
 H59     -C25     -C24     : 120.004243  H59     -C25     -C26     : 120.929549
 C25     -C26     -C21     : 120.982811  O27     -C26     -C21     : 115.251982
 O27     -C26     -C25     : 123.760872  C28     -O27     -C26     : 118.131437
 H60     -C28     -O27     : 105.569250  H61     -C28     -O27     : 111.151464
 H61     -C28     -H60     : 109.724349  H62     -C28     -O27     : 111.061859
 H62     -C28     -H60     : 109.118995  H62     -C28     -H61     : 110.100161
 C30     -O29     -C22     : 118.489521  H63     -C30     -O29     : 111.254448
 H64     -C30     -O29     : 105.811442  H64     -C30     -H63     : 109.213526
 H65     -C30     -O29     : 111.549275  H65     -C30     -H63     : 109.812696
 H65     -C30     -H64     : 109.084651  C105    -O3      -Pd2     : 128.713744
 C106    -C105    -O3      : 105.705021  C107    -C105    -O3      : 112.841871
 C107    -C105    -C106    : 107.617180  C108    -C105    -O3      : 111.765779
 C108    -C105    -C106    : 108.418066  C108    -C105    -C107    : 110.216880
 H109    -C106    -C105    : 111.919221  H110    -C106    -C105    : 109.401162
 H110    -C106    -H109    : 108.690658  H111    -C106    -C105    : 109.730673
 H111    -C106    -H109    : 108.777906  H111    -C106    -H110    : 108.242487
 H115    -C107    -C105    : 111.048107  H116    -C107    -C105    : 109.114701
 H116    -C107    -H115    : 108.553124  H117    -C107    -C105    : 112.012146
 H117    -C107    -H115    : 108.113053  H117    -C107    -H116    : 107.890948
 H112    -C108    -C105    : 112.047636  H113    -C108    -C105    : 110.217128
 H113    -C108    -H112    : 108.293231  H114    -C108    -C105    : 109.233007
 H114    -C108    -H112    : 108.843958  H114    -C108    -H113    : 108.114458
 
  torsional angles:
 
 P1      -Pd2     -C76     -C75     :  95.890448
 P1      -Pd2     -C76     -C77     : -92.237857
 P1      -Pd2     -O3      -C105    : 159.104693
 P1      -C3      -C6      -C7      : 174.002361
 P1      -C3      -C6      -H32     : -65.444550
 P1      -C3      -C6      -H33     :  52.985724
 P1      -C3      -C10     -C9      :-171.130534
 P1      -C3      -C10     -H40     : -50.253223
 P1      -C3      -C10     -H41     :  68.995196
 P1      -C4      -C11     -C12     :-170.270117
 P1      -C4      -C11     -H43     : -46.961884
 P1      -C4      -C11     -H44     :  69.911681
 P1      -C4      -C15     -C14     : 173.489225
 P1      -C4      -C15     -H51     : -66.894170
 P1      -C4      -C15     -H52     :  50.522833
 P1      -C5      -C16     -C17     : 179.428905
 P1      -C5      -C16     -H53     :  -1.414308
 P1      -C5      -C20     -C19     :-178.873238
 P1      -C5      -C20     -C21     :   2.402837
 Pd2     -P1      -C3      -C6      :-159.436473
 Pd2     -P1      -C3      -C10     :  72.063980
 Pd2     -P1      -C3      -H31     : -42.936289
 Pd2     -P1      -C4      -C11     : -33.149469
 Pd2     -P1      -C4      -C15     :  91.347537
 Pd2     -P1      -C4      -H42     :-149.124368
 Pd2     -P1      -C5      -C16     :-164.985683
 Pd2     -P1      -C5      -C20     :  16.632712
 Pd2     -C76     -C75     -C74     : 170.141560
 Pd2     -C76     -C75     -H81     :  -9.712085
 Pd2     -C76     -C77     -C78     :-168.888286
 Pd2     -C76     -C77     -H82     :  10.869083
 Pd2     -O3      -C105    -C106    : 153.758024
 Pd2     -O3      -C105    -C107    : -88.881636
 Pd2     -O3      -C105    -C108    :  36.004757
 C73     -C74     -C75     -C76     :   1.444065
 C73     -C74     -C75     -H81     :-178.699010
 C73     -C78     -C77     -C76     :  -0.846113
 C73     -C78     -C77     -H82     : 179.390544
 C74     -C73     -C78     -C77     :  -0.490129
 C74     -C73     -C78     -H83     : 178.930686
 C74     -C75     -C76     -C77     :  -2.736539
 C75     -C74     -C73     -C78     :   0.191530
 C75     -C74     -C73     -F79     : 179.547885
 C75     -C76     -Pd2     -O3      : -91.432038
 C75     -C76     -C77     -C78     :   2.423332
 C75     -C76     -C77     -H82     :-177.819299
 C76     -Pd2     -P1      -C3      : -67.179759
 C76     -Pd2     -P1      -C4      :  49.823356
 C76     -Pd2     -P1      -C5      : 176.369550
 C76     -Pd2     -O3      -C105    :  67.559644
 C76     -C75     -C74     -H80     :-179.406768
 C76     -C77     -C78     -H83     : 179.742825
 C77     -C76     -Pd2     -O3      :  80.439657
 C77     -C76     -C75     -H81     : 177.409816
 C77     -C78     -C73     -F79     :-179.846158
 C78     -C73     -C74     -H80     :-178.973211
 F79     -C73     -C74     -H80     :   0.383144
 F79     -C73     -C78     -H83     :  -0.425342
 H80     -C74     -C75     -H81     :   0.450158
 H82     -C77     -C78     -H83     :  -0.020518
 C3      -P1      -Pd2     -O3      :-158.772134
 C3      -P1      -C4      -C11     :  84.223863
 C3      -P1      -C4      -C15     :-151.279131
 C3      -P1      -C4      -H42     : -31.751036
 C3      -P1      -C5      -C16     :  77.843875
 C3      -P1      -C5      -C20     :-100.537731
 C3      -C6      -C7      -C8      :  54.959676
 C3      -C6      -C7      -H34     : -65.633853
 C3      -C6      -C7      -H35     : 178.352279
 C3      -C10     -C9      -C8      : -57.734200
 C3      -C10     -C9      -H38     :  63.505503
 C3      -C10     -C9      -H39     : 179.709760
 C4      -P1      -Pd2     -O3      : -41.769019
 C4      -P1      -C3      -C6      :  77.179218
 C4      -P1      -C3      -C10     : -51.320329
 C4      -P1      -C3      -H31     :-166.320598
 C4      -P1      -C5      -C16     : -34.288319
 C4      -P1      -C5      -C20     : 147.330076
 C4      -C11     -C12     -C13     : -57.556002
 C4      -C11     -C12     -H45     :-179.982088
 C4      -C11     -C12     -H46     :  63.670726
 C4      -C15     -C14     -C13     :  58.540036
 C4      -C15     -C14     -H49     :-179.121434
 C4      -C15     -C14     -H50     : -62.705572
 C5      -P1      -Pd2     -O3      :  84.777175
 C5      -P1      -C3      -C6      : -35.911790
 C5      -P1      -C3      -C10     :-164.411337
 C5      -P1      -C3      -H31     :  80.588393
 C5      -P1      -C4      -C11     :-164.075364
 C5      -P1      -C4      -C15     : -39.578358
 C5      -P1      -C4      -H42     :  79.949738
 C5      -C16     -C17     -C18     :  -0.059374
 C5      -C16     -C17     -H54     : 179.955111
 C5      -C20     -C19     -C18     :  -1.433803
 C5      -C20     -C19     -H56     : 179.010621
 C5      -C20     -C21     -C22     :-115.826474
 C5      -C20     -C21     -C26     :  69.971448
 C6      -C3      -C10     -C9      :  58.287031
 C6      -C3      -C10     -H40     : 179.164342
 C6      -C3      -C10     -H41     : -61.587239
 C6      -C7      -C8      -C9      : -54.740098
 C6      -C7      -C8      -H36     :  65.579689
 C6      -C7      -C8      -H37     :-177.622860
 C7      -C6      -C3      -C10     : -56.560435
 C7      -C6      -C3      -H31     :  61.461776
 C7      -C8      -C9      -C10     :  55.853951
 C7      -C8      -C9      -H38     : -64.467021
 C7      -C8      -C9      -H39     : 177.793298
 C8      -C7      -C6      -H32     : -66.105902
 C8      -C7      -C6      -H33     : 176.595817
 C8      -C9      -C10     -H40     :-179.003932
 C8      -C9      -C10     -H41     :  62.746988
 C9      -C8      -C7      -H34     :  65.604301
 C9      -C8      -C7      -H35     :-177.418148
 C9      -C10     -C3      -H31     : -60.018144
 C10     -C3      -C6      -H32     :  63.992654
 C10     -C3      -C6      -H33     :-177.577073
 C10     -C9      -C8      -H36     : -64.491656
 C10     -C9      -C8      -H37     : 178.523376
 C11     -C4      -C15     -C14     : -60.658480
 C11     -C4      -C15     -H51     :  58.958124
 C11     -C4      -C15     -H52     : 176.375128
 C11     -C12     -C13     -C14     :  53.880730
 C11     -C12     -C13     -H47     : 176.926968
 C11     -C12     -C13     -H48     : -66.058295
 C12     -C11     -C4      -C15     :  60.338133
 C12     -C11     -C4      -H42     : -56.983792
 C12     -C13     -C14     -C15     : -54.451981
 C12     -C13     -C14     -H49     :-176.228149
 C12     -C13     -C14     -H50     :  66.695938
 C13     -C12     -C11     -H43     : 177.999116
 C13     -C12     -C11     -H44     :  61.309642
 C13     -C14     -C15     -H51     : -60.770893
 C13     -C14     -C15     -H52     :-177.258384
 C14     -C13     -C12     -H45     : 175.735870
 C14     -C13     -C12     -H46     : -67.144781
 C14     -C15     -C4      -H42     :  56.453159
 C15     -C4      -C11     -H43     :-176.353633
 C15     -C4      -C11     -H44     : -59.480068
 C15     -C14     -C13     -H47     :-177.498467
 C15     -C14     -C13     -H48     :  65.523165
 C16     -C5      -C20     -C19     :   2.775368
 C16     -C5      -C20     -C21     :-175.948557
 C16     -C17     -C18     -C19     :   1.467567
 C16     -C17     -C18     -H55     :-179.391134
 C17     -C16     -C5      -C20     :  -2.090492
 C17     -C18     -C19     -C20     :  -0.715417
 C17     -C18     -C19     -H56     : 178.832055
 C18     -C17     -C16     -H53     :-179.228821
 C18     -C19     -C20     -C21     : 177.392447
 C19     -C18     -C17     -H54     :-178.547063
 C19     -C20     -C21     -C22     :  65.430001
 C19     -C20     -C21     -C26     :-108.772077
 C20     -C5      -C16     -H53     : 177.066296
 C20     -C19     -C18     -H55     :-179.860829
 C20     -C21     -C22     -C23     : 179.926222
 C20     -C21     -C22     -O29     :  -0.889473
 C20     -C21     -C26     -C25     : 178.676238
 C20     -C21     -C26     -O27     :  -0.593920
 C21     -C20     -C19     -H56     :  -2.163129
 C21     -C22     -C23     -C24     :   3.167964
 C21     -C22     -C23     -H57     :-177.395006
 C21     -C22     -O29     -C30     : 173.878199
 C21     -C26     -C25     -C24     :  -0.353033
 C21     -C26     -C25     -H59     : 176.321628
 C21     -C26     -O27     -C28     : 174.133558
 C22     -C21     -C26     -C25     :   4.328723
 C22     -C21     -C26     -O27     :-174.941435
 C22     -C23     -C24     -C25     :   0.981140
 C22     -C23     -C24     -H58     :-179.398357
 C22     -O29     -C30     -H63     : -58.894716
 C22     -O29     -C30     -H64     :-177.393793
 C22     -O29     -C30     -H65     :  64.104028
 C23     -C22     -C21     -C26     :  -5.750630
 C23     -C22     -O29     -C30     :  -6.961806
 C23     -C24     -C25     -C26     :  -2.376193
 C23     -C24     -C25     -H59     :-179.082332
 C24     -C23     -C22     -O29     :-175.949942
 C24     -C25     -C26     -O27     : 178.852969
 C25     -C24     -C23     -H57     :-178.462309
 C25     -C26     -O27     -C28     :  -5.113811
 C26     -C21     -C22     -O29     : 173.433676
 C26     -C25     -C24     -H58     : 178.003047
 C26     -O27     -C28     -H60     :-174.910178
 C26     -O27     -C28     -H61     :  66.178215
 C26     -O27     -C28     -H62     : -56.768843
 O27     -C26     -C25     -H59     :  -4.472370
 O29     -C22     -C23     -H57     :   3.487088
 H31     -C3      -C6      -H32     :-177.985135
 H31     -C3      -C6      -H33     : -59.554861
 H31     -C3      -C10     -H40     :  60.859167
 H31     -C3      -C10     -H41     :-179.892414
 H32     -C6      -C7      -H34     : 173.300569
 H32     -C6      -C7      -H35     :  57.286702
 H33     -C6      -C7      -H34     :  56.002288
 H33     -C6      -C7      -H35     : -60.011579
 H34     -C7      -C8      -H36     :-174.075913
 H34     -C7      -C8      -H37     : -57.278461
 H35     -C7      -C8      -H36     : -57.098362
 H35     -C7      -C8      -H37     :  59.699090
 H36     -C8      -C9      -H38     : 175.187372
 H36     -C8      -C9      -H39     :  57.447691
 H37     -C8      -C9      -H38     :  58.202404
 H37     -C8      -C9      -H39     : -59.537277
 H38     -C9      -C10     -H40     : -57.764228
 H38     -C9      -C10     -H41     :-176.013309
 H39     -C9      -C10     -H40     :  58.440029
 H39     -C9      -C10     -H41     : -59.809052
 H42     -C4      -C11     -H43     :  66.324441
 H42     -C4      -C11     -H44     :-176.801993
 H42     -C4      -C15     -H51     : 176.069763
 H42     -C4      -C15     -H52     : -66.513233
 H43     -C11     -C12     -H45     :  55.573030
 H43     -C11     -C12     -H46     : -60.774156
 H44     -C11     -C12     -H45     : -61.116444
 H44     -C11     -C12     -H46     :-177.463630
 H45     -C12     -C13     -H47     : -61.217892
 H45     -C12     -C13     -H48     :  55.796845
 H46     -C12     -C13     -H47     :  55.901457
 H46     -C12     -C13     -H48     : 172.916194
 H47     -C13     -C14     -H49     :  60.725365
 H47     -C13     -C14     -H50     : -56.350548
 H48     -C13     -C14     -H49     : -56.253003
 H48     -C13     -C14     -H50     :-173.328916
 H49     -C14     -C15     -H51     :  61.567638
 H49     -C14     -C15     -H52     : -54.919853
 H50     -C14     -C15     -H51     : 177.983500
 H50     -C14     -C15     -H52     :  61.496009
 H53     -C16     -C17     -H54     :   0.785665
 H54     -C17     -C18     -H55     :   0.594236
 H55     -C18     -C19     -H56     :  -0.313358
 H57     -C23     -C24     -H58     :   1.158194
 H58     -C24     -C25     -H59     :   1.296909
 O3      -C105    -C106    -H109    : 175.794383
 O3      -C105    -C106    -H110    : -63.679101
 O3      -C105    -C106    -H111    :  54.934236
 O3      -C105    -C107    -H115    :-167.768189
 O3      -C105    -C107    -H116    : -48.151558
 O3      -C105    -C107    -H117    :  71.241942
 O3      -C105    -C108    -H112    : 174.640472
 O3      -C105    -C108    -H113    : -64.694059
 O3      -C105    -C108    -H114    :  53.952009
 C106    -C105    -C107    -H115    : -51.541110
 C106    -C105    -C107    -H116    :  68.075521
 C106    -C105    -C107    -H117    :-172.530979
 C106    -C105    -C108    -H112    :  58.526247
 C106    -C105    -C108    -H113    : 179.191716
 C106    -C105    -C108    -H114    : -62.162215
 C107    -C105    -C106    -H109    :  54.972245
 C107    -C105    -C106    -H110    : 175.498761
 C107    -C105    -C106    -H111    : -65.887901
 C107    -C105    -C108    -H112    : -59.026999
 C107    -C105    -C108    -H113    :  61.638470
 C107    -C105    -C108    -H114    :-179.715462
 C108    -C105    -C106    -H109    : -64.230444
 C108    -C105    -C106    -H110    :  56.296072
 C108    -C105    -C106    -H111    : 174.909409
 C108    -C105    -C107    -H115    :  66.506211
 C108    -C105    -C107    -H116    :-173.877158
 C108    -C105    -C107    -H117    : -54.483659
 
  nuclear repulsion energy.......          6307.720978958 hartrees
  
  Detected an organometallic with only one TM atom. 
  
  Oxidation state on metal       2 is     2
  Formal multiplet on metal      2 is     1
  Formal charge on ligand        3 is    -1
  Formal multiplet on ligand     3 is     1
  Formal charge on ligand        4 is    -1
  Formal multiplet on ligand     4 is     1
  
 
  Will use High-Quality Initial guess for organometallics
       including d-d repulsion (iguess=30)
 
 Non-default options chosen:
   SCF calculation type: DFT(b3pw91-d3)              
   DFT=Becke_3_Parameter/HF+Slater+Becke88+PW91+PW-GGAIIC (B3PW91-D3)
   Geometry will be optimized in redundant internal coordinates
   Solvation energy will be computed using PBF
     -solute cavity energy will not be included
     -surface area terms will not be included
   Vibrational frequencies and related properties will be computed
      from analytic second derivatives
   IR intensities will be computed
   Thermochemical properties will be computed
   Maximum number of geometry steps: 100
   Scaling standard convergence criteria by a factor of   5.00
   Solvent: benzene                                                         
   Internal dielectric constant:    1.000
   Continuum dielectric constant:   2.283
   Solvent probe molecule radius:   2.600
  
 Non-default print settings:
     11=  2
  
 Temporary integer options set:
     21= -1  73=  2
  
  atom       vdw   vdw2    cov     mass  grid  daf  charge   basis
  P1        2.147  2.074  1.060   30.974    Y    Y      Y    ps_6-31g*
  Pd2       1.450  1.450  1.280  105.903    Y    Y      Y    lacv3p*
  C73       1.949  1.900  0.770   12.000    Y    Y      Y    ps_6-31g*
  C74       1.949  1.900  0.770   12.000    Y    Y      Y    ps_6-31g*
  C75       1.949  1.900  0.770   12.000    Y    Y      Y    ps_6-31g*
  C76       1.949  1.900  0.770   12.000    Y    Y      Y    ps_6-31g*
  C77       1.949  1.900  0.770   12.000    Y    Y      Y    ps_6-31g*
  C78       1.949  1.900  0.770   12.000    Y    Y      Y    ps_6-31g*
  F79       1.736  1.682  0.720   18.998    Y    Y      Y    ps_6-31g*
  H80       1.597  1.150  0.320    1.008    Y    Y      Y    ps_6-31g*
  H81       1.597  1.150  0.320    1.008    Y    Y      Y    ps_6-31g*
  H82       1.597  1.150  0.320    1.008    Y    Y      Y    ps_6-31g*
  H83       1.597  1.150  0.320    1.008    Y    Y      Y    ps_6-31g*
  C3        1.949  1.900  0.770   12.000    Y    Y      Y    ps_6-31g*
  C4        1.949  1.900  0.770   12.000    Y    Y      Y    ps_6-31g*
  C5        1.949  1.900  0.770   12.000    Y    Y      Y    ps_6-31g*
  C6        1.949  1.900  0.770   12.000    Y    Y      Y    ps_6-31g*
  C7        1.949  1.900  0.770   12.000    Y    Y      Y    ps_6-31g*
  C8        1.949  1.900  0.770   12.000    Y    Y      Y    ps_6-31g*
  C9        1.949  1.900  0.770   12.000    Y    Y      Y    ps_6-31g*
  C10       1.949  1.900  0.770   12.000    Y    Y      Y    ps_6-31g*
  C11       1.949  1.900  0.770   12.000    Y    Y      Y    ps_6-31g*
  C12       1.949  1.900  0.770   12.000    Y    Y      Y    ps_6-31g*
  C13       1.949  1.900  0.770   12.000    Y    Y      Y    ps_6-31g*
  C14       1.949  1.900  0.770   12.000    Y    Y      Y    ps_6-31g*
  C15       1.949  1.900  0.770   12.000    Y    Y      Y    ps_6-31g*
  C16       1.949  1.900  0.770   12.000    Y    Y      Y    ps_6-31g*
  C17       1.949  1.900  0.770   12.000    Y    Y      Y    ps_6-31g*
  C18       1.949  1.900  0.770   12.000    Y    Y      Y    ps_6-31g*
  C19       1.949  1.900  0.770   12.000    Y    Y      Y    ps_6-31g*
  C20       1.949  1.900  0.770   12.000    Y    Y      Y    ps_6-31g*
  C21       1.949  1.900  0.770   12.000    Y    Y      Y    ps_6-31g*
  C22       1.949  1.900  0.770   12.000    Y    Y      Y    ps_6-31g*
  C23       1.949  1.900  0.770   12.000    Y    Y      Y    ps_6-31g*
  C24       1.949  1.900  0.770   12.000    Y    Y      Y    ps_6-31g*
  C25       1.949  1.900  0.770   12.000    Y    Y      Y    ps_6-31g*
  C26       1.949  1.900  0.770   12.000    Y    Y      Y    ps_6-31g*
  O27       1.702  1.600  0.730   15.995    Y    Y      Y    ps_6-31g*
  C28       1.949  1.900  0.770   12.000    Y    Y      Y    ps_6-31g*
  O29       1.702  1.600  0.730   15.995    Y    Y      Y    ps_6-31g*
  C30       1.949  1.900  0.770   12.000    Y    Y      Y    ps_6-31g*
  H31       1.597  1.150  0.320    1.008    Y    Y      Y    ps_6-31g*
  H32       1.597  1.150  0.320    1.008    Y    Y      Y    ps_6-31g*
  H33       1.597  1.150  0.320    1.008    Y    Y      Y    ps_6-31g*
  H34       1.597  1.150  0.320    1.008    Y    Y      Y    ps_6-31g*
  H35       1.597  1.150  0.320    1.008    Y    Y      Y    ps_6-31g*
  H36       1.597  1.150  0.320    1.008    Y    Y      Y    ps_6-31g*
  H37       1.597  1.150  0.320    1.008    Y    Y      Y    ps_6-31g*
  H38       1.597  1.150  0.320    1.008    Y    Y      Y    ps_6-31g*
  H39       1.597  1.150  0.320    1.008    Y    Y      Y    ps_6-31g*
  H40       1.597  1.150  0.320    1.008    Y    Y      Y    ps_6-31g*
  H41       1.597  1.150  0.320    1.008    Y    Y      Y    ps_6-31g*
  H42       1.597  1.150  0.320    1.008    Y    Y      Y    ps_6-31g*
  H43       1.597  1.150  0.320    1.008    Y    Y      Y    ps_6-31g*
  H44       1.597  1.150  0.320    1.008    Y    Y      Y    ps_6-31g*
  H45       1.597  1.150  0.320    1.008    Y    Y      Y    ps_6-31g*
  H46       1.597  1.150  0.320    1.008    Y    Y      Y    ps_6-31g*
  H47       1.597  1.150  0.320    1.008    Y    Y      Y    ps_6-31g*
  H48       1.597  1.150  0.320    1.008    Y    Y      Y    ps_6-31g*
  H49       1.597  1.150  0.320    1.008    Y    Y      Y    ps_6-31g*
  H50       1.597  1.150  0.320    1.008    Y    Y      Y    ps_6-31g*
  H51       1.597  1.150  0.320    1.008    Y    Y      Y    ps_6-31g*
  H52       1.597  1.150  0.320    1.008    Y    Y      Y    ps_6-31g*
  H53       1.597  1.150  0.320    1.008    Y    Y      Y    ps_6-31g*
  H54       1.597  1.150  0.320    1.008    Y    Y      Y    ps_6-31g*
  H55       1.597  1.150  0.320    1.008    Y    Y      Y    ps_6-31g*
  H56       1.597  1.150  0.320    1.008    Y    Y      Y    ps_6-31g*
  H57       1.597  1.150  0.320    1.008    Y    Y      Y    ps_6-31g*
  H58       1.597  1.150  0.320    1.008    Y    Y      Y    ps_6-31g*
  H59       1.597  1.150  0.320    1.008    Y    Y      Y    ps_6-31g*
  H60       1.597  1.150  0.320    1.008    Y    Y      Y    ps_6-31g*
  H61       1.597  1.150  0.320    1.008    Y    Y      Y    ps_6-31g*
  H62       1.597  1.150  0.320    1.008    Y    Y      Y    ps_6-31g*
  H63       1.597  1.150  0.320    1.008    Y    Y      Y    ps_6-31g*
  H64       1.597  1.150  0.320    1.008    Y    Y      Y    ps_6-31g*
  H65       1.597  1.150  0.320    1.008    Y    Y      Y    ps_6-31g*
  O3        1.702  1.600  0.730   15.995    Y    Y      Y    ps_6-31g*
  C105      1.949  1.900  0.770   12.000    Y    Y      Y    ps_6-31g*
  C106      1.949  1.900  0.770   12.000    Y    Y      Y    ps_6-31g*
  C107      1.949  1.900  0.770   12.000    Y    Y      Y    ps_6-31g*
  C108      1.949  1.900  0.770   12.000    Y    Y      Y    ps_6-31g*
  H109      1.597  1.150  0.320    1.008    Y    Y      Y    ps_6-31g*
  H110      1.597  1.150  0.320    1.008    Y    Y      Y    ps_6-31g*
  H111      1.597  1.150  0.320    1.008    Y    Y      Y    ps_6-31g*
  H112      1.597  1.150  0.320    1.008    Y    Y      Y    ps_6-31g*
  H113      1.597  1.150  0.320    1.008    Y    Y      Y    ps_6-31g*
  H114      1.597  1.150  0.320    1.008    Y    Y      Y    ps_6-31g*
  H115      1.597  1.150  0.320    1.008    Y    Y      Y    ps_6-31g*
  H116      1.597  1.150  0.320    1.008    Y    Y      Y    ps_6-31g*
  H117      1.597  1.150  0.320    1.008    Y    Y      Y    ps_6-31g*
 
  atom      formal  2spin      esp    mulk    frag
  P1           0       0        Y    0.000       0
  Pd2          2       0        Y    0.000       0
  C73         -1       0        Y    0.000       0
  O3          -1       0        Y    0.000       0
  
  end of program pre
   
 Time(pre)  user:       3.253  user+sys:       3.253  wallclock:       1.602
  
  start of program onee
  
  smallest eigenvalue of S:    3.897E-04
  number of canonical orbitals.....          703
  end of program onee
   
 Time(onee)  user:       9.643  user+sys:       9.643  wallclock:       2.102
  
  start of program hfig
  
  initial wavefunction generated automatically from atomic wavefunctions
  Only one state below 0.010000
  Skip d-d repulsion considerations 
 
  Irreducible     Total no   No of occupied orbitals 
  representation  orbitals   Shell_1  Shell_2    ...
  No Symm          703        165
  ------------------------
  Orbital occupation/shell    1.000
 
  end of program hfig
   
 Time(hfig)  user:       3.497  user+sys:       3.497  wallclock:       1.544
  
  start of program probe
  
  end of program probe
   
 Time(probe)  user:       2.235  user+sys:       2.235  wallclock:       0.730
  
  start of program grid
  
   grid     grid set  grid #  grid sym
  ------    --------  ------  --------
  coarse        0        0        1
  medium        2        1        1
  fine          0        0        1
  ultrafine     4        2        1
  charge       -1        3        1
  gradient      4        2        1
  density       0        0        1
  DFT-fine    -11        4        1
  DFT-med.    -10        5        1
  DFT-grad    -12        6        1
  DFT-der2     -8        7        1
  DFT-cphf     -9        8        1
  LMP2-enrg     4        2        1
  LMP2-grad     2        1        1
  DFT-cphf2   -15        9        1
  PBF-dens      0        0        1
  plotting      0        0        1
  Rel-grad    -17        0        1
  
  number of gridpoints: 
     atom           P1         Pd2         C73         C74         C75         C76         C77
  grid # 1         604         357          77          91          89          97          91
  grid # 2         425         320         328         315         292         382         306
  grid # 3          11         261          24           9           6           7          10
  grid # 4        8714        8714        8714        8714        8714        8714        8714
  grid # 5        1192        1192        1192        1192        1192        1192        1192
  grid # 6        9132        9132        5922        5922        5922        5922        5922
  grid # 7       23034       32968       13950       13950       13950       13950       13950
  grid # 8         722        1150         748         748         748         748         748
  grid # 9         366        2198         394         394         394         394         394
   
  number of gridpoints: 
     atom          C78         F79         H80         H81         H82         H83          C3
  grid # 1          92         585         113         103         102         113          81
  grid # 2         319         566         458         423         410         458         326
  grid # 3          16         358         334          70         182         332           6
  grid # 4        8714        8714        8714        8714        8714        8714        8714
  grid # 5        1192        1192        1192        1192        1192        1192        1192
  grid # 6        5922        5922        5922        5922        5922        5922        5922
  grid # 7       13950       23190       15206       15206       15206       15206       13950
  grid # 8         748         770         786         786         786         786         748
  grid # 9         394         420         420         420         420         420         394
   
  number of gridpoints: 
     atom           C4          C5          C6          C7          C8          C9         C10
  grid # 1          80          95          91          92          92          92          91
  grid # 2         330         387         279         276         278         276         278
  grid # 3           6          16           6           6           6           6           6
  grid # 4        8714        8714        8714        8714        8714        8714        8714
  grid # 5        1192        1192        1192        1192        1192        1192        1192
  grid # 6        5922        5922        5922        5922        5922        5922        5922
  grid # 7       13950       13950       13950       13950       13950       13950       13950
  grid # 8         748         748         748         748         748         748         748
  grid # 9         394         394         394         394         394         394         394
   
  number of gridpoints: 
     atom          C11         C12         C13         C14         C15         C16         C17
  grid # 1          90          92          92          92          92          93          95
  grid # 2         279         279         278         279         279         323         323
  grid # 3           6           6           6           6           6          10          28
  grid # 4        8714        8714        8714        8714        8714        8714        8714
  grid # 5        1192        1192        1192        1192        1192        1192        1192
  grid # 6        5922        5922        5922        5922        5922        5922        5922
  grid # 7       13950       13950       13950       13950       13950       13950       13950
  grid # 8         748         748         748         748         748         748         748
  grid # 9         394         394         394         394         394         394         394
   
  number of gridpoints: 
     atom          C18         C19         C20         C21         C22         C23         C24
  grid # 1          97          96         100         100          91          95          95
  grid # 2         324         327         361         360         347         322         326
  grid # 3          44          31          18          12          22          31          31
  grid # 4        8714        8714        8714        8714        8714        8714        8714
  grid # 5        1192        1192        1192        1192        1192        1192        1192
  grid # 6        5922        5922        5922        5922        5922        5922        5922
  grid # 7       13950       13950       13950       13950       13950       13950       13950
  grid # 8         748         748         748         748         748         748         748
  grid # 9         394         394         394         394         394         394         394
   
  number of gridpoints: 
     atom          C25         C26         O27         C28         O29         C30         H31
  grid # 1          96          92         118          75         118          76          98
  grid # 2         322         344         446         228         453         223         417
  grid # 3          27          23          45           6          72           6          23
  grid # 4        8714        8714        8714        8714        8714        8714        8714
  grid # 5        1192        1192        1192        1192        1192        1192        1192
  grid # 6        5922        5922        5922        5922        5922        5922        5922
  grid # 7       13950       13950       23382       13950       23382       13950       15206
  grid # 8         748         748         774         748         774         748         786
  grid # 9         394         394         416         394         416         394         420
   
  number of gridpoints: 
     atom          H32         H33         H34         H35         H36         H37         H38
  grid # 1         107         105         106         112         110         112         107
  grid # 2         435         440         434         455         452         458         440
  grid # 3         153         156         146         322         264         329         190
  grid # 4        8714        8714        8714        8714        8714        8714        8714
  grid # 5        1192        1192        1192        1192        1192        1192        1192
  grid # 6        5922        5922        5922        5922        5922        5922        5922
  grid # 7       15206       15206       15206       15206       15206       15206       15206
  grid # 8         786         786         786         786         786         786         786
  grid # 9         420         420         420         420         420         420         420
   
  number of gridpoints: 
     atom          H39         H40         H41         H42         H43         H44         H45
  grid # 1         111          94         104         102          98          91         109
  grid # 2         452         392         429         421         404         379         444
  grid # 3         271          19         110          59          37          33         224
  grid # 4        8714        8714        8714        8714        8714        8714        8714
  grid # 5        1192        1192        1192        1192        1192        1192        1192
  grid # 6        5922        5922        5922        5922        5922        5922        5922
  grid # 7       15206       15206       15206       15206       15206       15206       15206
  grid # 8         786         786         786         786         786         786         786
  grid # 9         420         420         420         420         420         420         420
   
  number of gridpoints: 
     atom          H46         H47         H48         H49         H50         H51         H52
  grid # 1         110         112         110         112         110         110         105
  grid # 2         447         456         453         456         448         442         436
  grid # 3         241         328         259         324         252         208         161
  grid # 4        8714        8714        8714        8714        8714        8714        8714
  grid # 5        1192        1192        1192        1192        1192        1192        1192
  grid # 6        5922        5922        5922        5922        5922        5922        5922
  grid # 7       15206       15206       15206       15206       15206       15206       15206
  grid # 8         786         786         786         786         786         786         786
  grid # 9         420         420         420         420         420         420         420
   
  number of gridpoints: 
     atom          H53         H54         H55         H56         H57         H58         H59
  grid # 1         106         118         118         115         111         112         108
  grid # 2         427         465         467         456         442         453         432
  grid # 3         114         409         424         320         230         283         178
  grid # 4        8714        8714        8714        8714        8714        8714        8714
  grid # 5        1192        1192        1192        1192        1192        1192        1192
  grid # 6        5922        5922        5922        5922        5922        5922        5922
  grid # 7       15206       15206       15206       15206       15206       15206       15206
  grid # 8         786         786         786         786         786         786         786
  grid # 9         420         420         420         420         420         420         420
   
  number of gridpoints: 
     atom          H60         H61         H62         H63         H64         H65          O3
  grid # 1         106         108         110         111         111         111         121
  grid # 2         443         438         451         451         464         451         492
  grid # 3         224         192         326         291         396         319          86
  grid # 4        8714        8714        8714        8714        8714        8714        8714
  grid # 5        1192        1192        1192        1192        1192        1192        1192
  grid # 6        5922        5922        5922        5922        5922        5922        5922
  grid # 7       15206       15206       15206       15206       15206       15206       23382
  grid # 8         786         786         786         786         786         786         774
  grid # 9         420         420         420         420         420         420         416
   
  number of gridpoints: 
     atom         C105        C106        C107        C108        H109        H110        H111
  grid # 1          92          81          79          81         109         107         109
  grid # 2         329         240         242         241         449         444         453
  grid # 3           6           6           6           6         277         201         315
  grid # 4        8714        8714        8714        8714        8714        8714        8714
  grid # 5        1192        1192        1192        1192        1192        1192        1192
  grid # 6        5922        5922        5922        5922        5922        5922        5922
  grid # 7       13950       13950       13950       13950       15206       15206       15206
  grid # 8         748         748         748         748         786         786         786
  grid # 9         394         394         394         394         420         420         420
   
  number of gridpoints: 
     atom         H112        H113        H114        H115        H116        H117       total
  grid # 1         108         103         101         108         109         106       10317
  grid # 2         453         429         422         450         448         429       34806
  grid # 3         295         107          66         281         280         121       11982
  grid # 4        8714        8714        8714        8714        8714        8714      784260
  grid # 5        1192        1192        1192        1192        1192        1192      107280
  grid # 6        5922        5922        5922        5922        5922        5922      539400
  grid # 7       15206       15206       15206       15206       15206       15206     1381426
  grid # 8         786         786         786         786         786         786       69620
  grid # 9         420         420         420         420         420         420       38576
   
  end of program grid
   
 Time(grid)  user:     504.328  user+sys:     504.328  wallclock:      35.650
  
  start of program rwr
  
  end of program rwr
   
 Time(rwr)  user:      68.793  user+sys:      68.793  wallclock:      31.292
  
  start of program scf
  
 number of electrons..........        330
 number of alpha electrons....        165
 number of beta electrons.....        165
 number of orbitals, total....        703
 number of doubly-occ'd orbs..        165
 number of open shell orbs....          0
 number of occupied orbitals..        165
 number of virtual orbitals...        538
 number of hamiltonians.......          1
 number of shells.............          1
 SCF type: DFT=Becke_3_Parameter/HF+Slater+Becke88+PW91+PW-GGAIIC (B3PW91-D3)
 Energy computed using pseudospectral method.
 Convergence Criterion:
    Energy (econv):       1.00E-05
    RMS density (dconv):  5.00E-06
  
       i  u  d  i  g                   
       t  p  i  c  r                                 RMS    maximum
       e  d  i  u  i                       energy  density   DIIS  
       r  t  s  t  d       total energy    change  change    error 
  
etot    1  N  N  5  M   -2187.98264493889           1.9E-03  1.7E-01
etot    2  Y  Y  6  M   -2191.87348628874  3.9E+00  2.9E-03  1.1E-01
etot    3  Y  Y  6  M   -2193.13187539626  1.3E+00  1.3E-03  6.5E-02
etot    4  N  Y  2  U   -2193.40495687801  2.7E-01  7.8E-04  4.3E-02
etot    5  Y  Y  6  M   -2193.54978626780  1.4E-01  5.1E-04  2.6E-02
etot    6  N  Y  2  U   -2193.56441328425  1.5E-02  5.8E-04  1.4E-02
etot    7  Y  Y  6  M   -2193.56519383832  7.8E-04  1.4E-04  6.6E-03
etot    8  Y  Y  6  M   -2193.57190042288  6.7E-03  4.8E-05  1.6E-03
etot    9  N  Y  2  U   -2193.57312537219  1.2E-03  1.5E-05  2.3E-04
etot   10  N  Y  2  U   -2193.57314567571  2.0E-05  9.1E-06  1.3E-04
etot   11  N  Y  2  U   -2193.57315152400  5.8E-06  3.7E-06  3.5E-05
etot   12  N  N  2  U   -2193.57315226483  7.4E-07  0.0E+00  0.0E+00
 
  Computing the dispersion energy correction and its gradients...
  
  
 Energy components, in hartrees:
   (A)  Nuclear repulsion............    6307.72097895782
   (E)  Total one-electron terms.....  -15612.70347527106
   (F)    Electron-nuclear...........  -17714.37323295550
   (H)    Kinetic....................    2101.66975768444
   (I)  Total two-electron terms.....    7111.40934404841
   (J)    Coulomb....................    7396.78483587143
   (K)    Exchange+Correlation.......    -285.37549182302
   (L)  Electronic energy............   -8501.29413122264  (E+I)
   (N0) D3 correction................      -0.16863894472
   (N)  Total energy.................   -2193.74179120955  (A+L+N0)
   (O)  Gas phase energy.............   -2193.74179120955
  
 SCFE: SCF energy: DFT(b3pw91-d3)     -2193.74179120955 hartrees   iterations:  12
  
 
 HOMO energy:    -0.17699
 LUMO energy:    -0.05050
 
  Orbital energies (hartrees): 
   -77.07593   -24.67489   -19.17727   -19.17107   -19.04375   -10.24383
   -10.24146   -10.24137   -10.22889   -10.22102   -10.20050   -10.19540
   -10.18733   -10.18711   -10.18596   -10.18336   -10.18267   -10.18044
   -10.17968   -10.17943   -10.17639   -10.17100   -10.17069   -10.17049
   -10.16944   -10.16833   -10.16716   -10.16654   -10.16577   -10.16536
   -10.16260   -10.16218   -10.16195   -10.16191   -10.16173   -10.16149
   -10.15197   -10.14863   -10.11385   -10.10921   -10.10179    -6.57737
    -4.73538    -4.73457    -4.73248    -3.33351    -2.06684    -2.06340
    -2.03190    -1.20764    -1.08377    -1.07689    -0.90542    -0.87900
    -0.86248    -0.85767    -0.84316    -0.83926    -0.79357    -0.77948
    -0.76723    -0.76575    -0.75789    -0.74791    -0.74625    -0.74464
    -0.73776    -0.73120    -0.72638    -0.71425    -0.69788    -0.66341
    -0.65088    -0.64267    -0.63605    -0.63497    -0.61760    -0.61597
    -0.60954    -0.59949    -0.59620    -0.59386    -0.59303    -0.56853
    -0.56828    -0.55759    -0.54613    -0.53306    -0.51765    -0.51121
    -0.49642    -0.49314    -0.48929    -0.48822    -0.48341    -0.47944
    -0.47606    -0.47440    -0.46752    -0.46368    -0.45858    -0.45578
    -0.45304    -0.44874    -0.44702    -0.44450    -0.44321    -0.43665
    -0.43365    -0.42807    -0.42693    -0.41732    -0.41632    -0.41537
    -0.41070    -0.40457    -0.40242    -0.39916    -0.39588    -0.39402
    -0.39160    -0.38728    -0.38302    -0.38102    -0.37734    -0.37451
    -0.36834    -0.36217    -0.36079    -0.35972    -0.35290    -0.35215
    -0.34998    -0.34949    -0.34826    -0.34577    -0.34337    -0.33987
    -0.33585    -0.33071    -0.32659    -0.32596    -0.32400    -0.32116
    -0.31240    -0.31106    -0.30680    -0.30591    -0.30280    -0.29710
    -0.29455    -0.29256    -0.29040    -0.28348    -0.26471    -0.26115
    -0.25400    -0.24732    -0.23143    -0.22626    -0.22388    -0.22101
    -0.20461    -0.18700    -0.17699    -0.05050    -0.03320    -0.01962
    -0.00014     0.00054     0.00874     0.01223     0.02736     0.04854
     0.05635
 
  end of program scf
   
 Time(scf)  user:     832.658  user+sys:     832.658  wallclock:      85.784
  
  start of program der1a
  
  end of program der1a
   
 Time(der1a)  user:      18.688  user+sys:      18.688  wallclock:       4.175
  
  start of program rwr
  
  end of program rwr
   
 Time(rwr)  user:     101.910  user+sys:     101.910  wallclock:      39.705
  
  start of program der1b
  
   
  forces (hartrees/bohr) : total     
   
 atom  label           x              y              z
 ---- --------   -------------  -------------  -------------
    1 P1         -1.341028E-03   2.927568E-03   2.823607E-03
    2 Pd2        -9.747942E-04  -1.794499E-02   3.402424E-02
    3 C73         5.119049E-04   5.062961E-03  -2.316429E-03
    4 C74         6.622782E-03  -2.963471E-04   4.035770E-03
    5 C75         3.861169E-03  -1.162758E-02   2.686322E-02
    6 C76        -1.603763E-03   1.584362E-02   3.037827E-02
    7 C77         1.194799E-02   1.110080E-02   5.941038E-02
    8 C78        -1.789648E-03  -1.812314E-03   2.411791E-03
    9 F79        -1.672410E-03  -4.018485E-04  -2.583943E-04
   10 H80        -2.916620E-04  -9.139768E-04  -2.879096E-05
   11 H81         6.032258E-04  -2.667563E-03   6.364752E-03
   12 H82         1.068974E-02   5.036859E-03   3.387688E-02
   13 H83        -6.615641E-04   5.547264E-04   8.997421E-04
   14 C3          8.853741E-04  -3.570399E-03  -7.414767E-03
   15 C4          1.708060E-03   2.199658E-03  -7.378014E-03
   16 C5          9.802350E-04   6.597094E-04  -4.775785E-03
   17 C6          8.819488E-04   3.853212E-03   1.594557E-03
   18 C7         -3.058312E-04  -1.335653E-03  -1.484268E-03
   19 C8          2.289657E-04   2.082177E-03  -2.333492E-04
   20 C9          6.765461E-04  -4.395323E-03  -1.125288E-03
   21 C10        -2.197795E-03   5.045636E-03  -1.886569E-02
   22 C11        -1.317588E-02  -6.919751E-03  -4.747696E-02
   23 C12        -2.323073E-03   1.741813E-04  -2.734964E-04
   24 C13         7.870504E-04   2.389919E-04  -6.361113E-04
   25 C14        -3.682986E-04  -8.629866E-04   1.111284E-03
   26 C15        -3.586238E-04   3.120455E-03  -7.290806E-04
   27 C16        -3.063645E-03   1.039084E-03  -8.757822E-05
   28 C17        -6.302541E-04  -1.315402E-04   3.559972E-04
   29 C18         2.022222E-03   2.189003E-04   6.371452E-04
   30 C19         6.213064E-04   5.057470E-04   3.464777E-04
   31 C20         4.633126E-04  -2.186732E-03  -2.933152E-03
   32 C21         4.342965E-03  -3.209804E-03  -1.216174E-03
   33 C22        -1.060991E-03  -3.478666E-03   1.485178E-03
   34 C23        -1.943472E-04   3.620168E-03   2.271332E-04
   35 C24        -3.273845E-03  -2.556007E-03  -1.515321E-04
   36 C25        -5.163408E-05  -2.527837E-04  -2.256895E-03
   37 C26         1.702520E-03   3.515500E-04   2.854211E-03
   38 O27         9.121070E-04   4.249331E-03  -1.145560E-03
   39 C28        -2.544314E-03  -4.692334E-03  -1.969417E-03
   40 O29         3.804080E-03  -1.202153E-04   5.128054E-04
   41 C30         1.205808E-03   9.030685E-04  -1.181895E-03
   42 H31        -1.424268E-03   1.263565E-03   2.126121E-04
   43 H32         1.067599E-04  -2.968083E-04   5.810906E-04
   44 H33        -4.996736E-04  -8.277953E-05  -3.524842E-04
   45 H34        -2.737106E-04   6.556424E-04   2.863056E-04
   46 H35         2.414182E-04   6.560983E-04  -1.754732E-04
   47 H36         2.212179E-05  -1.239905E-04   5.798336E-04
   48 H37         1.933063E-05   2.790091E-04  -3.546733E-04
   49 H38        -4.923134E-04   2.181353E-03   3.305800E-04
   50 H39         3.146905E-04  -4.637525E-05   4.342981E-04
   51 H40         8.284604E-04   3.276290E-03  -3.156013E-02
   52 H41         1.406390E-04   1.605865E-06  -3.489840E-04
   53 H42        -3.322175E-05  -1.604559E-03  -1.523338E-03
   54 H43        -4.092595E-03  -9.212984E-03  -1.865782E-02
   55 H44        -1.161081E-02  -9.592590E-05  -4.219725E-02
   56 H45         5.687056E-04   3.373175E-04   6.492473E-04
   57 H46         2.274719E-04   9.945039E-05   5.444967E-04
   58 H47        -1.797111E-04  -2.685289E-04   1.478621E-04
   59 H48        -4.164978E-05  -3.284448E-04   7.602087E-05
   60 H49         1.981970E-04  -1.673423E-04  -1.448017E-04
   61 H50        -1.901413E-04   2.429052E-04   4.674749E-04
   62 H51        -1.503168E-03  -7.055880E-04   3.210633E-03
   63 H52        -7.395698E-05  -1.672812E-04   1.314659E-05
   64 H53         3.029892E-04   2.376979E-04   5.667306E-04
   65 H54        -2.861740E-04  -8.881594E-07   2.904853E-04
   66 H55         3.330474E-04  -1.778022E-06   2.569197E-04
   67 H56         2.366174E-04  -1.554056E-04  -7.292938E-05
   68 H57         1.078069E-03   4.839634E-04  -2.412424E-04
   69 H58         1.595677E-04  -5.559384E-04  -7.703111E-04
   70 H59        -1.173924E-03   7.488406E-04  -1.741745E-04
   71 H60         6.157723E-04  -4.947645E-04   4.910641E-04
   72 H61         6.778339E-04   9.573394E-04   8.350574E-04
   73 H62         8.507666E-04  -1.172062E-04   7.385654E-04
   74 H63        -2.579718E-04   3.116071E-04   5.560210E-04
   75 H64         1.939372E-04   5.517156E-04  -2.921520E-04
   76 H65         2.916843E-04  -4.566199E-05   3.065041E-04
   77 O3         -4.003856E-05   5.755750E-03  -2.109490E-02
   78 C105       -2.694897E-03  -1.204232E-03  -1.775167E-04
   79 C106        1.355427E-04  -8.053186E-04   1.018890E-03
   80 C107       -5.922696E-04  -2.053531E-03  -1.075152E-03
   81 C108       -4.405127E-04   8.431507E-04   1.307083E-03
   82 H109       -2.393418E-04   1.522185E-04   2.618089E-05
   83 H110       -4.225477E-03  -1.415671E-04  -1.965518E-04
   84 H111        3.047941E-04   5.553440E-04  -6.005751E-05
   85 H112        4.691836E-04   1.480645E-04  -3.842929E-04
   86 H113       -2.043150E-04   7.043889E-04   2.837035E-04
   87 H114        4.658853E-03  -5.714042E-04   1.561898E-03
   88 H115        6.869487E-06  -7.391082E-05  -5.921043E-04
   89 H116        1.772306E-05   6.352870E-05   1.877482E-04
   90 H117       -1.174471E-05  -2.990801E-04  -1.148398E-03
 -------------   -------------  -------------  -------------
     total       -4.922499E-06   2.971355E-04   6.405357E-04
   
  end of program der1b
   
 Time(der1b)  user:     227.585  user+sys:     227.585  wallclock:      20.803
  
  start of program geopt
  
 ----------------------------------------------------------------------------
  Geometry optimization step  1
  Total energy:     -2193.74179120955 hartrees
 ----------------------------------------------------------------------------
  
  
  Level shifts adjusted to satisfy step-size constraints
   Step size:    0.3000884
   Cos(theta):   0.7185370
   Final level shift:  -2.8599087E-01
  
  gradient maximum:        5.5289E-01 .  (  2.2500E-03 )
  gradient rms:            5.9559E-02 .  (  1.5000E-03 )
  displacement maximum:    6.3794E-02 .  (  9.0000E-03 )
  displacement rms:        1.0800E-02 .  (  6.0000E-03 )
  
  predicted energy change:  -1.0211E-01
  step size:     0.18922
  trust radius:  0.30000
  
  molecular structure not yet converged...
  
  center of mass moved by:
     x:     2.6144E-02     y:     1.9037E-02     z:     5.2289E-02
  
  new geometry: 
                                   angstroms
  atom               x                 y                 z
  P1            0.0391033378     -0.0062875387     -0.0405614130 
  Pd2           0.0102441616      0.0684208898      2.2151755057 
  C73           4.6934232797      0.0142955803      2.9566242330 
  C74           3.9905609430      1.1913332385      2.7512122287 
  C75           2.6301946258      1.1065838121      2.4390594366 
  C76           1.9772198294     -0.1340438346      2.3642302312 
  C77           2.7230851063     -1.2975374499      2.5579442411 
  C78           4.0837958033     -1.2293307988      2.8627062536 
  F79           6.0082860248      0.0790448818      3.2477949661 
  H80           4.5034058744      2.1467477723      2.8187113168 
  H81           2.0806414596      2.0307430782      2.2702381199 
  H82           2.2648425556     -2.2709855905      2.5077891522 
  H83           4.6718606780     -2.1293972269      3.0183151890 
  C3            0.9016458441      1.5599735749     -0.6171469115 
  C4            0.9374182100     -1.3904426758     -0.9414849414 
  C5           -1.6244627644      0.0551453400     -0.8212224168 
  C6            0.5531993310      2.0029277655     -2.0456236807 
  C7            1.1967391592      3.3617653959     -2.3569970229 
  C8            2.7088573470      3.3486620469     -2.1310654958 
  C9            3.0422104687      2.8784976735     -0.7152722413 
  C10           2.4244369407      1.5068690588     -0.4324500045 
  C11           2.1955237303     -1.8438296927     -0.1897225132 
  C12           3.0257071661     -2.7979385680     -1.0512074147 
  C13           2.2082497508     -4.0192353874     -1.4773560534 
  C14           0.9038419184     -3.5974186041     -2.1569210919 
  C15           0.0986985671     -2.6396323136     -1.2681658621 
  C16          -1.7017354132     -0.2287300889     -2.1962855457 
  C17          -2.9140208285     -0.2280632655     -2.8756421656 
  C18          -4.0875710603      0.0569264462     -2.1810369968 
  C19          -4.0209914425      0.3664268617     -0.8282629652 
  C20          -2.8053267131      0.3900210467     -0.1286340052 
  C21          -2.8645695434      0.7929107947      1.3024864176 
  C22          -3.5238981633     -0.0134502755      2.2514109649 
  C23          -3.5974150471      0.3719419917      3.5928568179 
  C24          -3.0676098536      1.6006834454      3.9710021418 
  C25          -2.4775658897      2.4548758295      3.0470798238 
  C26          -2.3804755789      2.0487866818      1.7131897613 
  O27          -1.8535020999      2.8180939290      0.7249040928 
  C28          -1.4588857092      4.1426115817      1.0484666224 
  O29          -4.0796768986     -1.1527143279      1.7634556224 
  C30          -4.6415074357     -2.0744887748      2.6810551173 
  H31           0.4735426713      2.3066263104      0.0601500663 
  H32           0.9169821404      1.2579880595     -2.7695515041 
  H33          -0.5314783126      2.0771910557     -2.1700659696 
  H34           0.7416955820      4.1233495702     -1.7072422485 
  H35           0.9619786943      3.6517872126     -3.3893597908 
  H36           3.1773880632      2.6650730095     -2.8553419804 
  H37           3.1307083496      4.3442863794     -2.3214855621 
  H38           2.6542239093      3.5980874998      0.0208352027 
  H39           4.1286999451      2.8304214432     -0.5678626401 
  H40           2.6677959630      1.2002696180      0.5980516081 
  H41           2.8596183273      0.7721888676     -1.1253122554 
  H42           1.2669424555     -0.9263977310     -1.8865360371 
  H43           2.8091973483     -1.0122963755      0.1440906966 
  H44           1.8776248787     -2.3535629239      0.7168645348 
  H45           3.9188920329     -3.1092919868     -0.4935793323 
  H46           3.3847261138     -2.2623182557     -1.9433892456 
  H47           2.7975455936     -4.6662866450     -2.1401001333 
  H48           1.9666042634     -4.6166418351     -0.5855110554 
  H49           0.2946161642     -4.4783160730     -2.3977705502 
  H50           1.1303412902     -3.1012946046     -3.1134145046 
  H51          -0.1671392916     -3.1408798172     -0.3295324265 
  H52          -0.8450809847     -2.3862856173     -1.7585301994 
  H53          -0.7955774759     -0.4462540410     -2.7546769754 
  H54          -2.9378065318     -0.4511729083     -3.9397842631 
  H55          -5.0474381502      0.0523989769     -2.6920738432 
  H56          -4.9291769849      0.6080310745     -0.2825821233 
  H57          -4.0658826406     -0.2654364607      4.3338045453 
  H58          -3.1155483442      1.9003197794      5.0150213768 
  H59          -2.0609169944      3.3998113359      3.3727564536 
  H60          -1.1570647274      4.5975379482      0.1030393021 
  H61          -0.6130036044      4.1463637126      1.7468045787 
  H62          -2.2962868625      4.7125650245      1.4721571461 
  H63          -3.8938444779     -2.4210322031      3.4061461768 
  H64          -4.9802210872     -2.9213234233      2.0803256403 
  H65          -5.5012122405     -1.6429303168      3.2119054455 
  O3           -0.1549389606     -0.1134193625      4.2845461337 
  C105          0.3122676031      0.7285032708      5.3005142084 
  C106         -0.6366008154      0.4995041474      6.4914012972 
  C107          1.7376816711      0.3565976977      5.7510692500 
  C108          0.2563812764      2.2129213372      4.9121510199 
  H109         -0.3231694785      1.0633932344      7.3799725634 
  H110         -1.6481255510      0.8098593906      6.2176729394 
  H111         -0.6629838399     -0.5669072410      6.7424264101 
  H112          0.5401237106      2.8687498267      5.7469533827 
  H113          0.9327615512      2.4128016564      4.0743088096 
  H114         -0.7599201947      2.4648744973      4.5969451897 
  H115          2.0074430232      0.8784167819      6.6793865522 
  H116          1.7866476656     -0.7230560192      5.9319060968 
  H117          2.4824262731      0.6029992656      4.9922758289 
   
 
  bond lengths (angstroms):
 
 P1      -Pd2     :   2.257158      P1      -C3      :   1.878724
 P1      -C4      :   1.880031      P1      -C5      :   1.838657
 Pd2     -C76     :   1.982978      Pd2     -O3      :   2.083902
 C73     -C74     :   1.386228      C73     -C78     :   1.388190
 C73     -F79     :   1.348272      C74     -C75     :   1.398291
 C74     -H80     :   1.086454      C75     -C76     :   1.403970
 C75     -H81     :   1.088384      C76     -C77     :   1.395549
 C77     -C78     :   1.396089      C77     -H82     :   1.077081
 C78     -H83     :   1.086349      C3      -C6      :   1.535633
 C3      -C10     :   1.534870      C3      -H31     :   1.095214
 C4      -C11     :   1.534124      C4      -C15     :   1.539690
 C4      -H42     :   1.103198      C5      -C16     :   1.406185
 C5      -C20     :   1.409347      C6      -C7      :   1.535427
 C6      -H32     :   1.100611      C6      -H33     :   1.094316
 C7      -C8      :   1.528960      C7      -H34     :   1.099662
 C7      -H35     :   1.097724      C8      -C9      :   1.528610
 C8      -H36     :   1.100632      C8      -H37     :   1.097946
 C9      -C10     :   1.530685      C9      -H38     :   1.100090
 C9      -H39     :   1.097497      C10     -H40     :   1.102343
 C10     -H41     :   1.099634      C11     -C12     :   1.530256
 C11     -H43     :   1.086036      C11     -H44     :   1.087560
 C12     -C13     :   1.530165      C12     -H45     :   1.098030
 C12     -H46     :   1.100805      C13     -C14     :   1.530104
 C13     -H47     :   1.097804      C13     -H48     :   1.100307
 C14     -C15     :   1.534763      C14     -H49     :   1.097791
 C14     -H50     :   1.101054      C15     -H51     :   1.096791
 C15     -H52     :   1.093326      C16     -C17     :   1.389662
 C16     -H53     :   1.086388      C17     -C18     :   1.393167
 C17     -H54     :   1.087539      C18     -C19     :   1.389324
 C18     -H55     :   1.087439      C19     -C20     :   1.402811
 C19     -H56     :   1.086711      C20     -C21     :   1.487930
 C21     -C22     :   1.409039      C21     -C26     :   1.407213
 C22     -C23     :   1.397644      C22     -O29     :   1.358276
 C23     -C24     :   1.390501      C23     -H57     :   1.083843
 C24     -C25     :   1.389759      C24     -H58     :   1.087224
 C25     -C26     :   1.397712      C25     -H59     :   1.082850
 C26     -O27     :   1.358765      O27     -C28     :   1.419423
 C28     -H60     :   1.091736      C28     -H61     :   1.096908
 C28     -H62     :   1.097999      O29     -C30     :   1.416796
 C30     -H63     :   1.097656      C30     -H64     :   1.092123
 C30     -H65     :   1.098698      O3      -C105    :   1.399752
 C105    -C106    :   1.539806      C105    -C107    :   1.540493
 C105    -C108    :   1.535398      C106    -H109    :   1.098075
 C106    -H110    :   1.092900      C106    -H111    :   1.095875
 C107    -H115    :   1.098562      C107    -H116    :   1.095788
 C107    -H117    :   1.091387      C108    -H112    :   1.098870
 C108    -H113    :   1.095181      C108    -H114    :   1.093482
 
  bond angles:
 
 C3      -P1      -Pd2     : 106.558002  C4      -P1      -Pd2     : 120.622707
 C4      -P1      -C3      : 104.320738  C5      -P1      -Pd2     : 114.307960
 C5      -P1      -C3      : 104.905795  C5      -P1      -C4      : 104.682003
 C76     -Pd2     -P1      :  93.385740  O3      -Pd2     -P1      : 172.107323
 O3      -Pd2     -C76     :  89.717778  C78     -C73     -C74     : 121.869133
 F79     -C73     -C74     : 119.057857  F79     -C73     -C78     : 119.071731
 C75     -C74     -C73     : 118.352654  H80     -C74     -C73     : 119.876982
 H80     -C74     -C75     : 121.762615  C76     -C75     -C74     : 121.193723
 H81     -C75     -C74     : 118.319902  H81     -C75     -C76     : 120.478765
 C75     -C76     -Pd2     : 112.031860  C77     -C76     -Pd2     : 128.733912
 C77     -C76     -C75     : 118.734317  C78     -C77     -C76     : 120.696201
 H82     -C77     -C76     : 121.308859  H82     -C77     -C78     : 117.968573
 C77     -C78     -C73     : 119.114766  H83     -C78     -C73     : 119.658471
 H83     -C78     -C77     : 121.224680  C6      -C3      -P1      : 114.947512
 C10     -C3      -P1      : 112.937239  C10     -C3      -C6      : 110.306298
 H31     -C3      -P1      : 101.484538  H31     -C3      -C6      : 106.853091
 H31     -C3      -C10     : 109.693005  C11     -C4      -P1      : 112.000250
 C15     -C4      -P1      : 116.022342  C15     -C4      -C11     : 108.114718
 H42     -C4      -P1      : 104.095904  H42     -C4      -C11     : 107.405689
 H42     -C4      -C15     : 108.797628  C16     -C5      -P1      : 117.268409
 C20     -C5      -P1      : 123.874769  C20     -C5      -C16     : 118.847078
 C7      -C6      -C3      : 110.414820  H32     -C6      -C3      : 109.975504
 H32     -C6      -C7      : 109.091511  H33     -C6      -C3      : 110.503577
 H33     -C6      -C7      : 109.409489  H33     -C6      -H32     : 107.382656
 C8      -C7      -C6      : 112.145509  H34     -C7      -C6      : 108.641794
 H34     -C7      -C8      : 109.139482  H35     -C7      -C6      : 109.566436
 H35     -C7      -C8      : 110.654954  H35     -C7      -H34     : 106.511795
 C9      -C8      -C7      : 110.803991  H36     -C8      -C7      : 109.213341
 H36     -C8      -C9      : 109.003321  H37     -C8      -C7      : 110.278689
 H37     -C8      -C9      : 110.839805  H37     -C8      -H36     : 106.589864
 C10     -C9      -C8      : 111.022428  H38     -C9      -C8      : 109.977158
 H38     -C9      -C10     : 108.673321  H39     -C9      -C8      : 110.717685
 H39     -C9      -C10     : 109.601382  H39     -C9      -H38     : 106.733980
 C9      -C10     -C3      : 110.314883  H40     -C10     -C3      : 109.946498
 H40     -C10     -C9      : 109.442473  H41     -C10     -C3      : 109.872725
 H41     -C10     -C9      : 108.816980  H41     -C10     -H40     : 108.410765
 C12     -C11     -C4      : 110.689262  H43     -C11     -C4      : 112.813539
 H43     -C11     -C12     : 110.112996  H44     -C11     -C4      : 107.895825
 H44     -C11     -C12     : 109.611343  H44     -C11     -H43     : 105.533849
 C13     -C12     -C11     : 111.383070  H45     -C12     -C11     : 109.402343
[...]
    O29      Z     0.00002   0.00000   0.00001  -0.00000  -0.00003  -0.00036
    C30      X     0.00000   0.00001  -0.00000  -0.00003   0.00024   0.00118
    C30      Y     0.00007   0.00000  -0.00005  -0.00000  -0.00017  -0.00071
    C30      Z     0.00001  -0.00002   0.00002   0.00002  -0.00029  -0.00126
    H31      X     0.00044   0.00033  -0.00017  -0.00006   0.00005  -0.00002
    H31      Y    -0.00126  -0.00067   0.00061   0.00026  -0.00006   0.00002
    H31      Z    -0.00140  -0.00080   0.00071   0.00013  -0.00007   0.00002
    H32      X     0.00410  -0.00004  -0.00268  -0.00008   0.00005  -0.00000
    H32      Y    -0.00826   0.00002   0.00551   0.00016  -0.00012  -0.00001
    H32      Z    -0.00921  -0.00001   0.00605   0.00019  -0.00013  -0.00001
    H33      X     0.00015   0.00068   0.00018  -0.00009   0.00003   0.00011
    H33      Y     0.00064  -0.00005  -0.00028  -0.00001   0.00005  -0.00002
    H33      Z     0.00060   0.00009  -0.00046  -0.00001  -0.00003   0.00001
    H34      X     0.00064   0.00007  -0.00032  -0.00004   0.00006   0.00000
    H34      Y    -0.00153  -0.00012   0.00081   0.00007  -0.00026  -0.00000
    H34      Z    -0.00131  -0.00013   0.00065   0.00006  -0.00023  -0.00000
    H35      X    -0.00014   0.00010   0.00028   0.00003   0.00000  -0.00001
    H35      Y     0.00026  -0.00003  -0.00038  -0.00003  -0.00003   0.00001
    H35      Z    -0.00041   0.00017   0.00085   0.00008   0.00001  -0.00004
    H36      X     0.00022   0.00004  -0.00015  -0.00004   0.00008   0.00001
    H36      Y    -0.00018  -0.00004   0.00016   0.00006  -0.00008  -0.00001
    H36      Z    -0.00031  -0.00007   0.00023   0.00007  -0.00011  -0.00001
    H37      X    -0.00020  -0.00005  -0.00001  -0.00001  -0.00004   0.00002
    H37      Y    -0.00048  -0.00038  -0.00013  -0.00004  -0.00009   0.00006
    H37      Z     0.00006   0.00015   0.00005   0.00001   0.00003  -0.00001
    H38      X     0.00011   0.00016  -0.00002  -0.00006   0.00007  -0.00001
    H38      Y    -0.00024  -0.00037   0.00009   0.00010  -0.00016   0.00001
    H38      Z    -0.00026  -0.00043   0.00009   0.00011  -0.00019   0.00001
    H39      X    -0.00017   0.00093  -0.00026  -0.00008   0.00005   0.00007
    H39      Y     0.00004   0.00015  -0.00010  -0.00001  -0.00002   0.00001
    H39      Z    -0.00003  -0.00006   0.00004  -0.00001   0.00000  -0.00000
    H40      X    -0.00037   0.00661   0.00003  -0.00047  -0.00003   0.00003
    H40      Y     0.00019  -0.00522   0.00007   0.00040   0.00004  -0.00003
    H40      Z    -0.00060   0.01460  -0.00011  -0.00119  -0.00007   0.00007
    H41      X     0.00059  -0.00120  -0.00042   0.00010   0.00004   0.00001
    H41      Y    -0.00075   0.00204   0.00055  -0.00020  -0.00007  -0.00002
    H41      Z    -0.00092   0.00275   0.00065  -0.00013  -0.00009  -0.00002
    H42      X    -0.00227   0.00010   0.00165  -0.00005   0.00001  -0.00002
    H42      Y     0.00234  -0.00007  -0.00157   0.00054   0.00001   0.00000
    H42      Z    -0.01880   0.00024   0.01210  -0.00222   0.00006   0.00002
    H43      X     0.00128  -0.00014  -0.00098   0.00407  -0.00011   0.00003
    H43      Y     0.00205  -0.00030  -0.00159   0.00651  -0.00016   0.00005
    H43      Z    -0.00074  -0.00019   0.00059  -0.00228   0.00007  -0.00001
    H44      X    -0.00109   0.00141   0.00057  -0.00274  -0.00000   0.00002
    H44      Y     0.00044  -0.00047  -0.00023   0.00117  -0.00000  -0.00000
    H44      Z    -0.00529   0.01047   0.00263  -0.02033  -0.00002   0.00004
    H45      X    -0.00075   0.00069   0.00012  -0.00027  -0.00009   0.00006
    H45      Y     0.00006  -0.00012   0.00005   0.00008   0.00001  -0.00001
    H45      Z    -0.00020   0.00016   0.00008  -0.00005  -0.00002   0.00001
    H46      X     0.00004   0.00003  -0.00000  -0.00008   0.00001  -0.00000
    H46      Y    -0.00001  -0.00001  -0.00000   0.00024  -0.00000  -0.00000
    H46      Z    -0.00077   0.00024   0.00061  -0.00152   0.00003   0.00000
    H47      X    -0.00010   0.00012  -0.00014   0.00050  -0.00003   0.00003
    H47      Y     0.00019  -0.00020   0.00030  -0.00094   0.00006  -0.00006
    H47      Z     0.00009  -0.00015   0.00016  -0.00074   0.00003  -0.00003
    H48      X    -0.00014  -0.00008   0.00011  -0.00052   0.00000   0.00000
    H48      Y     0.00010   0.00007  -0.00008   0.00046  -0.00000   0.00000
    H48      Z    -0.00064  -0.00047   0.00042  -0.00312  -0.00000   0.00004
    H49      X     0.00046   0.00008  -0.00000   0.00028   0.00001  -0.00005
    H49      Y     0.00084   0.00011   0.00003   0.00046   0.00001  -0.00010
    H49      Z    -0.00034  -0.00001   0.00000  -0.00008  -0.00001   0.00003
    H50      X    -0.00014  -0.00004   0.00010  -0.00024   0.00000   0.00000
    H50      Y    -0.00010   0.00001   0.00003  -0.00005  -0.00000   0.00000
    H50      Z    -0.00197  -0.00031   0.00154  -0.00199   0.00002   0.00003
    H51      X    -0.00029   0.00005   0.00015   0.00027   0.00000   0.00001
    H51      Y     0.00033   0.00007  -0.00015   0.00079  -0.00000  -0.00001
    H51      Z    -0.00359  -0.00049   0.00193  -0.00812  -0.00004   0.00012
    H52      X    -0.00143  -0.00018   0.00084  -0.00318  -0.00017   0.00011
    H52      Y    -0.00007   0.00003  -0.00010   0.00028  -0.00001   0.00002
    H52      Z     0.00029  -0.00012  -0.00019  -0.00125  -0.00004   0.00003
    H53      X     0.52678  -0.00845  -0.38753  -0.00320  -0.00126   0.00067
    H53      Y    -0.10470   0.00165   0.07624   0.00060   0.00025  -0.00016
    H53      Z    -0.37593   0.00597   0.27396   0.00231   0.00094  -0.00055
    H54      X    -0.02460   0.00108   0.04581   0.00031   0.00009  -0.00004
    H54      Y    -0.05983   0.00330   0.13919   0.00088   0.00030  -0.00015
    H54      Z    -0.19884   0.01101   0.46368   0.00295   0.00093  -0.00050
    H55      X     0.37303   0.01269   0.49486   0.00217   0.00164  -0.00100
    H55      Y     0.05790   0.00192   0.07486   0.00032   0.00025  -0.00016
    H55      Z     0.15660   0.00518   0.20161   0.00089   0.00071  -0.00045
    H56      X     0.41327   0.00881   0.30249   0.00032   0.00150  -0.00018
    H56      Y    -0.08304  -0.00178  -0.06135  -0.00009  -0.00028   0.00012
    H56      Z    -0.29773  -0.00636  -0.21980  -0.00028  -0.00113   0.00020
    H57      X     0.00016   0.00010  -0.00029  -0.00028  -0.03558  -0.30100
    H57      Y     0.00020   0.00015  -0.00065  -0.00051  -0.06144  -0.53086
    H57      Z    -0.00034  -0.00021   0.00069   0.00068   0.08483   0.71177
    H58      X    -0.00056  -0.00005  -0.00032  -0.00004   0.04076  -0.03438
    H58      Y     0.00094   0.00009   0.00051   0.00006  -0.06367   0.06246
    H58      Z     0.00193   0.00018   0.00104   0.00013  -0.14160   0.12469
    H59      X     0.00003  -0.00017   0.00038   0.00017  -0.10713   0.01018
    H59      Y     0.00013  -0.00134   0.00301   0.00142  -0.91500   0.08383
    H59      Z    -0.00003  -0.00021   0.00037   0.00021  -0.14255   0.01189
    H60      X     0.00029   0.00025  -0.00049  -0.00018   0.00719  -0.00024
    H60      Y     0.00039   0.00029  -0.00049  -0.00019   0.00529  -0.00009
    H60      Z    -0.00107  -0.00080   0.00140   0.00054  -0.02274   0.00080
    H61      X     0.00024  -0.00003   0.00016   0.00005  -0.01016   0.00023
    H61      Y     0.00009   0.00002  -0.00004  -0.00002  -0.00191  -0.00002
    H61      Z     0.00028   0.00001   0.00011   0.00003  -0.01080   0.00043
    H62      X     0.00066   0.00006   0.00038   0.00004   0.01824  -0.00043
    H62      Y    -0.00032  -0.00000  -0.00027  -0.00004  -0.00792   0.00008
    H62      Z    -0.00021  -0.00000  -0.00018  -0.00003  -0.00603   0.00028
    H63      X    -0.00006   0.00014  -0.00015   0.00014   0.00102   0.00331
    H63      Y    -0.00007   0.00005  -0.00010   0.00001   0.00019   0.00081
    H63      Z     0.00004   0.00007  -0.00009   0.00004   0.00058   0.00153
    H64      X     0.00005   0.00002  -0.00014  -0.00004  -0.00035  -0.00136
    H64      Y    -0.00054  -0.00007   0.00063  -0.00003   0.00226   0.01003
    H64      Z    -0.00023  -0.00002   0.00026  -0.00003   0.00130   0.00635
    H65      X    -0.00003  -0.00017   0.00028   0.00030  -0.00333  -0.01689
    H65      Y    -0.00004  -0.00000  -0.00001  -0.00003   0.00031   0.00288
    H65      Z     0.00003   0.00009  -0.00022  -0.00019   0.00188   0.01010
    O3       X    -0.00001   0.00004   0.00001  -0.00002  -0.00003  -0.00006
    O3       Y    -0.00000   0.00004   0.00000   0.00008  -0.00001  -0.00003
    O3       Z     0.00001   0.00004  -0.00004  -0.00001  -0.00002   0.00009
    C105     X    -0.00001  -0.00005   0.00003   0.00001   0.00005   0.00002
    C105     Y    -0.00001  -0.00009   0.00002  -0.00000   0.00004  -0.00000
    C105     Z    -0.00001  -0.00004   0.00003  -0.00002   0.00004  -0.00003
    C106     X    -0.00003  -0.00002   0.00003   0.00001   0.00003   0.00055
    C106     Y     0.00000  -0.00007  -0.00001  -0.00007   0.00006  -0.00042
    C106     Z    -0.00003  -0.00002   0.00005   0.00002   0.00002   0.00033
    C107     X    -0.00001  -0.00070   0.00001   0.00003   0.00001   0.00004
    C107     Y    -0.00000  -0.00036   0.00001  -0.00042   0.00004   0.00001
    C107     Z     0.00001   0.00053   0.00004  -0.00019   0.00001  -0.00003
    C108     X    -0.00001  -0.00054   0.00002   0.00003  -0.00023   0.00007
    C108     Y    -0.00000   0.00011   0.00001   0.00000   0.00006  -0.00002
    C108     Z    -0.00001   0.00026   0.00005   0.00005  -0.00005  -0.00002
    H109     X     0.00011   0.00017  -0.00020   0.00000  -0.00028  -0.00129
    H109     Y     0.00013   0.00023  -0.00024  -0.00006  -0.00020  -0.00074
    H109     Z     0.00030   0.00065  -0.00061  -0.00011  -0.00060  -0.00198
    H110     X     0.00028  -0.00016  -0.00024  -0.00044   0.00005  -0.00620
    H110     Y    -0.00020   0.00007   0.00017   0.00033   0.00021   0.00476
    H110     Z     0.00009  -0.00006  -0.00005  -0.00015   0.00004  -0.00195
    H111     X     0.00001   0.00041   0.00002   0.00022  -0.00019   0.00049
    H111     Y     0.00007   0.00097   0.00010   0.00054  -0.00094   0.00093
    H111     Z    -0.00003  -0.00023   0.00002  -0.00008   0.00023   0.00001
    H112     X     0.00006   0.00000  -0.00019  -0.00017   0.00009   0.00008
    H112     Y     0.00009   0.00014  -0.00029  -0.00030   0.00007   0.00001
    H112     Z     0.00014   0.00017  -0.00050  -0.00051   0.00023   0.00008
    H113     X     0.00007   0.00405   0.00009   0.00004   0.00062  -0.00055
    H113     Y     0.00000   0.00031   0.00001   0.00005   0.00001  -0.00003
    H113     Z    -0.00007  -0.00410  -0.00004   0.00001  -0.00050   0.00045
    H114     X     0.00006   0.00251  -0.00022  -0.00044   0.00170  -0.00048
    H114     Y    -0.00006  -0.00142   0.00017   0.00037  -0.00077   0.00025
    H114     Z     0.00002   0.00088  -0.00008  -0.00021   0.00073  -0.00036
    H115     X     0.00003  -0.00008  -0.00016   0.00050  -0.00012   0.00007
    H115     Y     0.00002   0.00009  -0.00018   0.00066  -0.00010   0.00004
    H115     Z     0.00006   0.00063  -0.00047   0.00098  -0.00034   0.00012
    H116     X    -0.00001   0.00096   0.00000   0.00134  -0.00008  -0.00001
    H116     Y     0.00000   0.00397  -0.00003   0.00462  -0.00062  -0.00014
    H116     Z    -0.00000  -0.00040   0.00002  -0.00085   0.00010  -0.00000
    H117     X     0.00015   0.00772   0.00005  -0.00238  -0.00009  -0.00068
    H117     Y     0.00001   0.00037   0.00002  -0.00011   0.00003  -0.00002
    H117     Z    -0.00012  -0.00691  -0.00002   0.00237   0.00010   0.00048
  
  Number of imaginary frequencies:   0
   
  Writing vibrational animation data to L_Ar_OtBu_PL145.vib
  Writing IR vibrational spectrum data to L_Ar_OtBu_PL145_vib.spm
  rotational symmetry number:  1

  rotational temperatures (K):      0.004175      0.003893      0.003087
   
  The Quasi-Harmonic approximation will be applied to compute
  vibrational constributions to thermodynamic properties.
  Frequencies will be adjusted to a minimum value of  100.00 cm^-1.

  vibrational temperatures:
       mode:      1        2        3        4        5        6
  temp. (K):   143.88   143.88   143.88   143.88   143.88   143.88
   
       mode:      7        8        9       10       11       12
  temp. (K):   143.88   143.88   143.88   143.88   143.88   143.88
   
       mode:     13       14       15       16       17       18
  temp. (K):   143.88   143.88   143.88   151.51   163.31   169.48
   
       mode:     19       20       21       22       23       24
  temp. (K):   181.45   199.94   206.95   219.12   238.94   239.24
   
       mode:     25       26       27       28       29       30
  temp. (K):   244.98   255.61   273.81   282.48   290.68   298.31
   
       mode:     31       32       33       34       35       36
  temp. (K):   304.56   330.33   354.08   362.92   368.05   378.62
   
       mode:     37       38       39       40       41       42
  temp. (K):   380.32   384.42   397.11   421.18   430.36   435.11
   
       mode:     43       44       45       46       47       48
  temp. (K):   459.63   466.97   473.78   488.73   498.62   506.50
   
       mode:     49       50       51       52       53       54
  temp. (K):   528.33   540.83   556.61   570.77   589.00   591.11
   
       mode:     55       56       57       58       59       60
  temp. (K):   611.43   621.05   633.63   640.83   658.19   674.64
   
       mode:     61       62       63       64       65       66
  temp. (K):   677.40   688.46   702.07   704.18   741.93   751.79
   
       mode:     67       68       69       70       71       72
  temp. (K):   759.20   778.68   791.09   806.55   833.85   846.22
   
       mode:     73       74       75       76       77       78
  temp. (K):   853.76   882.76   913.29   941.21   989.26  1023.94
   
       mode:     79       80       81       82       83       84
  temp. (K):  1039.93  1051.42  1074.19  1089.85  1109.70  1111.76
   
       mode:     85       86       87       88       89       90
  temp. (K):  1126.15  1131.29  1149.15  1157.88  1176.94  1194.79
   
       mode:     91       92       93       94       95       96
  temp. (K):  1199.48  1200.48  1206.24  1212.56  1243.44  1259.73
   
       mode:     97       98       99      100      101      102
  temp. (K):  1264.50  1290.02  1303.59  1307.29  1310.43  1318.98
   
       mode:    103      104      105      106      107      108
  temp. (K):  1323.53  1327.56  1352.89  1360.04  1366.60  1370.07
   
       mode:    109      110      111      112      113      114
  temp. (K):  1375.78  1392.80  1411.05  1424.79  1440.92  1459.16
   
       mode:    115      116      117      118      119      120
  temp. (K):  1470.40  1476.34  1481.59  1484.27  1514.56  1517.75
   
       mode:    121      122      123      124      125      126
  temp. (K):  1523.62  1536.28  1541.38  1545.52  1547.88  1553.48
   
       mode:    127      128      129      130      131      132
  temp. (K):  1567.86  1595.58  1598.57  1600.98  1606.38  1608.39
   
       mode:    133      134      135      136      137      138
  temp. (K):  1616.07  1640.32  1643.74  1663.60  1666.17  1685.61
   
       mode:    139      140      141      142      143      144
  temp. (K):  1700.98  1716.77  1717.27  1741.40  1747.09  1752.96
   
       mode:    145      146      147      148      149      150
  temp. (K):  1758.13  1764.86  1778.01  1778.37  1791.08  1801.76
   
       mode:    151      152      153      154      155      156
  temp. (K):  1808.43  1818.64  1838.48  1841.92  1873.74  1874.93
   
       mode:    157      158      159      160      161      162
  temp. (K):  1878.33  1884.58  1891.93  1895.69  1897.53  1899.07
   
       mode:    163      164      165      166      167      168
  temp. (K):  1911.22  1929.00  1933.22  1938.82  1942.33  1958.29
   
       mode:    169      170      171      172      173      174
  temp. (K):  1975.42  1977.61  1986.38  1995.30  1998.76  2009.94
   
       mode:    175      176      177      178      179      180
  temp. (K):  2015.93  2017.26  2018.43  2021.64  2022.47  2024.45
   
       mode:    181      182      183      184      185      186
  temp. (K):  2028.38  2053.51  2058.56  2124.07  2133.18  2148.61
   
       mode:    187      188      189      190      191      192
  temp. (K):  2154.84  2164.57  2165.48  2167.83  2172.18  2172.80
   
       mode:    193      194      195      196      197      198
  temp. (K):  2173.20  2175.52  2176.42  2177.45  2184.33  2185.96
   
       mode:    199      200      201      202      203      204
  temp. (K):  2187.83  2191.91  2195.47  2196.12  2197.36  2200.26
   
       mode:    205      206      207      208      209      210
  temp. (K):  2204.59  2204.76  2209.37  2211.73  2220.10  2223.75
   
       mode:    211      212      213      214      215      216
  temp. (K):  2350.27  2359.78  2366.09  2373.29  2382.61  2391.93
   
       mode:    217      218      219      220      221      222
  temp. (K):  4343.42  4349.95  4358.17  4358.28  4358.68  4361.80
   
       mode:    223      224      225      226      227      228
  temp. (K):  4363.93  4364.74  4365.05  4367.03  4370.97  4372.15
   
       mode:    229      230      231      232      233      234
  temp. (K):  4384.15  4390.51  4407.75  4414.58  4431.41  4435.53
   
       mode:    235      236      237      238      239      240
  temp. (K):  4436.96  4439.83  4444.18  4448.80  4468.03  4475.60
   
       mode:    241      242      243      244      245      246
  temp. (K):  4477.11  4482.40  4490.09  4491.14  4496.27  4504.19
   
       mode:    247      248      249      250      251      252
  temp. (K):  4507.30  4507.76  4536.13  4551.03  4563.32  4574.44
   
       mode:    253      254      255      256      257      258
  temp. (K):  4577.86  4584.38  4596.80  4600.00  4600.21  4608.48
   
       mode:    259      260      261      262      263      264
  temp. (K):  4615.57  4624.93  4626.10  4632.61  4658.21  4678.05
   
   
  Thermodynamic properties calculated assuming an ideal gas

  In the table below, the units for temperature
  are kelvins, the units for U, H, and G are
  kcal/mol and the units for Cv and S are cal/(mol K)

  The zero point energy (ZPE):    488.105 kcal/mol
  is not included in U, H, or G in the table below
  
 
  =============================================================================
  Thermodynamic properties for P = 1.00E+00 atm, calculated at   1 temperatures


  T =   298.15 K, P = 1.00E+00 atm
   
                  U         Cv          S          H          G        ln(Q)
              =========  =========  =========  =========  =========  =========
  trans.          0.889      2.981     45.451      1.481    -12.070   20.37158
  rot.            0.889      2.981     37.802      0.889    -10.382   17.52259
  vib.           24.297    160.532    147.647     24.297    -19.724   33.28949
  elec.           0.000      0.000      0.000      0.000      0.000    0.00000
  ----------------------------------------------------------------------------
  total          26.075    166.494    230.900     26.667    -42.175   71.18366
   
   Total internal energy, Utot(SCFE + ZPE + U):   -2193.045787 hartrees
   Total enthalpy, Htot (Utot + nRT), with n=1:   -2193.044843 hartrees
    Total Gibbs free energy, Gtot (Htot - T*S):   -2193.154551 hartrees
   
  end of program freq
   
 Time(freq)  user:       0.785  user+sys:       0.785  wallclock:       1.328
  
  start of program post
  
  Writing input files for PBF
  end of program post
   
 Time(post)  user:       0.171  user+sys:       0.171  wallclock:       0.664

 Total cpu seconds     user:  123713.498   user+sys:  123713.498
  
 Total elapsed time:    19027 seconds

Job L_Ar_OtBu_PL145 completed on bp1-compute194 at Tue Nov 25 21:00:36 2025
