Job L_Ar_Br_N_N_trans_PL145 started on bp1-compute122 at Tue Dec  2 13:58:02 2025
jobid: bp1-compute122-0-692ef05d

  +--------------------------------------------------------------------+
  |  Jaguar version 12.5, release 138                                  |
  |                                                                    |
  |  Copyright Schrodinger, Inc.                                       |
  |  All Rights Reserved.                                              |
  |                                                                    |
  |  The following have contributed to Jaguar (listed alphabetically): |
  |  Ty Balduf, Mike Beachy, Chandler Bennett, Art Bochevarov,         |
  |  Dale Braden, Yixiang Cao, Alan Chien, Chris Cortis,               |
  |  Rich Friesner, Jim Furness, Bill Goddard, Hod Greeley,            |
  |  Tom Hughes, Leif Jacobson, Jean-Marc Langlois, Daniel Levine,     |
  |  Rob Murphy, Dean Philipp, Tom Pollard, Murco Ringnalda,           |
  |  Daniel Mainz, Pablo Videla, Mark Watson, Haoyu Yu.                |
  |                                                                    |
  |  Use of this program should be acknowledged in publications as:    |
  |                                                                    |
  |  Jaguar, version 12.5, Schrodinger, Inc., New York, NY, 2024.      |
  |                                                                    |
  |  A. D. Bochevarov, E. Harder, T. F. Hughes, J. R. Greenwood,       |
  |  D. A. Braden, D. M. Philipp, D. Rinaldo, M. D. Halls,             |
  |  J. Zhang, R. A. Friesner, "Jaguar: A High-Performance Quantum     |
  |  Chemistry Software Program with Strengths in Life and Materials   |
  |  Sciences", Int. J. Quantum Chem., 2013, 113(18), 2110-2142.       |
  +--------------------------------------------------------------------+
  
  start of program pre
  
  Job name: L_Ar_Br_N_N_trans_PL145
  Executables used: /software/local/apps/schrodinger2024-3/jaguar-v12.5/bin/Linux-x86_64
  Temporary files : /tmp/ar21627/L_Ar_Br_N_N_trans_PL145#bp1-compute122-0-692ef05d
  Basis file : using default basis file from /software/local/apps/schrodinger2024-3
  Maestro file (input):  L_Ar_Br_N_N_trans_PL145.mae
  Maestro file (output): L_Ar_Br_N_N_trans_PL145.01.mae
  
 Contents of input file: &gen and (if present) &atomic sections only
 ----------------Contents start----------------
&gen
dftname=b3pw91-d3
basis=6-31G*
numd=5
ip11=2
iaccg=3
isolv=2
igeopt=1
solvent=benzene
ifreq=1
&
&atomic
atom basis
Pd2 lacv3p*
Br3 lacv3p*
&
 -----------------Contents end-----------------
 
  PS calculation requested. Using PS version of 6-31g*
  basis set:               non_standard                    
  net molecular charge:    0
  multiplicity:            1
  
  Using up to  18 threads per process
  
  This run will use ECP on            2  atoms
  number of basis functions....          738
  
 Input geometry:
                                   angstroms
  atom               x                 y                 z
  P1            0.0000000000      0.0000000000      0.0000000000 
  Pd2           0.0000000000      0.0000000000      2.2961784832 
  C73           4.7243174153      0.0000000000      2.6034798033 
  C74           4.0995783640      1.2235183802      2.4120153493 
  C75           2.7057078994      1.2632887745      2.3182738801 
  C76           1.9614546848      0.0851334812      2.4062921003 
  C77           2.6143769654     -1.1338539591      2.6230633963 
  C78           4.0057367226     -1.1814600339      2.7190339662 
  F79           6.0718364876     -0.0432510002      2.6879825947 
  H80           4.6975140575      2.1281735329      2.3457734920 
  H82           2.0438509426     -2.0547683030      2.7134860156 
  H83           4.5325965268     -2.1176658405      2.8813143981 
  H14           2.2154469909      2.2223556889      2.1842114402 
  C3           -1.5976762032      0.9194354809     -0.3530664019 
  C4            1.4469472160      0.8200309090     -0.8246551197 
  C5           -0.1227942698     -1.6539116127     -0.7817084985 
  C6           -2.2535159123      0.8195272414     -1.7380966455 
  C7           -3.5803158111      1.5885012603     -1.7647382606 
  C8           -3.3946796832      3.0488918304     -1.3520713677 
  C9           -2.7594363215      3.1406571540      0.0358921951 
  C10          -1.4295273838      2.3846482454      0.0923008183 
  C11           2.6477217262     -0.1406926508     -0.7677366929 
  C12           3.9309803179      0.5988890026     -1.1491275644 
  C13           3.8066728787      1.2288491446     -2.5396128126 
  C14           2.5742196909      2.1335713898     -2.6367069008 
  C15           1.2902844420      1.3893380653     -2.2410932664 
  C16          -0.0942420265     -1.7402391414     -2.1859338602 
  C17          -0.1656959446     -2.9599727924     -2.8484166305 
  C18          -0.2675610750     -4.1362581032     -2.1075534030 
  C19          -0.2634883453     -4.0681256407     -0.7205069744 
  C20          -0.1779951681     -2.8455869953     -0.0313421386 
  C21          -0.1088810417     -2.9672734595      1.4548040562 
  C22           1.0124874308     -3.6019038168      2.0341788743 
  C23           1.0211173386     -3.9414484484      3.3911491588 
  C24          -0.0951046367     -3.6543195976      4.1742011382 
  C25          -1.1968093955     -2.9903987328      3.6484285342 
  C26          -1.1686872466     -2.6150118324      2.3046508472 
  O27          -2.1378367020     -1.8070011416      1.7358511434 
  C28          -3.4522050961     -1.8207043445      2.3133585815 
  O29           2.0437197804     -3.8481336306      1.1862029453 
  C30           3.1975157422     -4.4952338193      1.6941490491 
  H31          -2.2845797011      0.4377042416      0.3606131038 
  H32          -1.5867926796      1.2291282087     -2.5083709216 
  H33          -2.4393702291     -0.2284375313     -1.9930850954 
  H34          -4.2903340653      1.1041425673     -1.0777189736 
  H35          -4.0200349496      1.5202241210     -2.7682816377 
  H36          -2.7444198225      3.5525503312     -2.0833331301 
  H37          -4.3560662362      3.5772847347     -1.3702082156 
  H38          -3.4458136412      2.7119012312      0.7809795752 
  H39          -2.5992078867      4.1875329637      0.3228231734 
  H40          -1.0309719911      2.4116150138      1.1129527262 
  H41          -0.6971254714      2.8890121185     -0.5535187049 
  H42           1.6572137125      1.6583894366     -0.1463613878 
  H43           2.7426640949     -0.5825387843      0.2295509522 
  H44           2.4728123457     -0.9733134638     -1.4635720381 
  H45           4.7831800285     -0.0920653844     -1.1167768702 
  H46           4.1273615676      1.3778071871     -0.3981691995 
  H47           4.7128225218      1.7965803910     -2.7871231022 
  H48           3.7224364026      0.4272282923     -3.2892863058 
  H49           2.4722663499      2.5343901301     -3.6536210715 
  H50           2.7037533238      2.9979413784     -1.9683531867 
  H51           1.1123369525      0.5764912322     -2.9575890521 
  H52           0.4347066652      2.0706898532     -2.3039174502 
  H53          -0.0060251457     -0.8370532008     -2.7778226846 
  H54          -0.1416131827     -2.9876886815     -3.9355465978 
  H55          -0.3360041277     -5.1011505879     -2.6052457379 
  H56          -0.3152477582     -4.9834531779     -0.1368596581 
  H57           1.8792701289     -4.4316016843      3.8387027777 
  H58          -0.0912657818     -3.9260271525      5.2270700908 
  H59          -2.0192357784     -2.6967340504      4.2893173460 
  H60          -4.0848960597     -1.2801910765      1.6076763142 
  H61          -3.4581558334     -1.3060618698      3.2783621028 
  H62          -3.8034696785     -2.8524191472      2.4180019059 
  H63           3.6792532980     -3.9008166657      2.4821052024 
  H64           3.8802354350     -4.5916682606      0.8477898839 
  H65           2.9621700907     -5.4946107091      2.0860716530 
  N118          0.0353474214     -0.4351966094      4.4872874979 
  H119          0.2436832279     -1.4315213237      4.5221066469 
  H120         -0.9521070388     -0.3007102565      4.7065040580 
  C121          0.8751299869      0.3455125117      5.3346142487 
  C122          2.5468213511      1.9584622811      6.8830164847 
  C123          2.1255380915     -0.1273657571      5.7322370151 
  C124          0.4575339656      1.6260176960      5.7068514619 
  C125          1.2932416191      2.4246905267      6.4815618075 
  C126          2.9575186699      0.6818832216      6.5029660926 
  H127          2.4651411662     -1.1060068601      5.4054457261 
  H128         -0.5067481338      1.9910798663      5.3594244377 
  H129          0.9634823385      3.4214693362      6.7675113874 
  H130          3.9359270266      0.3106854677      6.7996254844 
  H131          3.1990758011      2.5884646613      7.4836607829 
  Br3          -2.3699806788      1.2367417650      3.0190376008 
   
  principal moments of inertia:
        amu*angstrom^2:              6899.82204              7887.33025              8968.10297
                g*cm^2:          1.14574226E-36          1.30972184E-36          1.48918835E-36
   
  rotational constants:
               cm^(-1):      0.00244320      0.00213730      0.00187973
                   GHz:      0.07324522      0.06407479      0.05635294
   
  Molecular weight:     783.15 amu
   
  Stoichiometry: PdC38PNH46BrO2F
  Molecular Point Group: C1      
  Point Group used: C1
  
 
Number of optimization coordinates:   311
Number of independent coordinates:    311
Number of non-redundant coordinates:  267
Number of frozen coordinates:           0
Number of harmonic constraints:         0
 
Number of geometric degrees of freedom:   267
Maximum geometric degrees of freedom:     267
 " " " " " excluding dummy atoms:         267
 
 
  bond lengths (angstroms):
 
 P1      -Pd2     :   2.296178      P1      -C3      :   1.876856
 P1      -C4      :   1.856384      P1      -C5      :   1.833459
 Pd2     -C76     :   1.966387      Pd2     -N118    :   2.234190
 Pd2     -Br3     :   2.769271      C73     -C74     :   1.387067
 C73     -C78     :   1.387645      C73     -F79     :   1.350859
 C74     -C75     :   1.397585      C74     -H80     :   1.086424
 C75     -C76     :   1.396320      C75     -H14     :   1.085421
 C76     -C77     :   1.399724      C77     -C78     :   1.395478
 C77     -H82     :   1.087088      C78     -H83     :   1.086461
 C3      -C6      :   1.535714      C3      -C10     :   1.540608
 C3      -H31     :   1.101472      C4      -C11     :   1.538860
 C4      -C15     :   1.534585      C4      -H42     :   1.098699
 C5      -C16     :   1.407166      C5      -C20     :   1.409321
 C6      -C7      :   1.533763      C6      -H32     :   1.098005
 C6      -H33     :   1.094436      C7      -C8      :   1.528887
 C7      -H34     :   1.100329      C7      -H35     :   1.097777
 C8      -C9      :   1.529182      C8      -H36     :   1.100570
 C8      -H37     :   1.097175      C9      -C10     :   1.530813
 C9      -H38     :   1.100046      C9      -H39     :   1.097247
 C10     -H40     :   1.096040      C10     -H41     :   1.099035
 C11     -C12     :   1.529442      C11     -H43     :   1.094909
 C11     -H44     :   1.099108      C12     -C13     :   1.531585
 C12     -H45     :   1.097592      C12     -H46     :   1.099644
 C13     -C14     :   1.531956      C13     -H47     :   1.097582
 C13     -H48     :   1.100773      C14     -C15     :   1.535866
 C14     -H49     :   1.097800      C14     -H50     :   1.100278
 C15     -H51     :   1.098067      C15     -H52     :   1.095537
 C16     -C17     :   1.389870      C16     -H53     :   1.083448
 C17     -C18     :   1.393880      C17     -H54     :   1.087750
 C18     -C19     :   1.388725      C18     -H55     :   1.087842
 C19     -C20     :   1.406008      C19     -H56     :   1.086806
 C20     -C21     :   1.492721      C21     -C22     :   1.412763
 C21     -C26     :   1.403395      C22     -C23     :   1.398833
 C22     -O29     :   1.357620      C23     -C24     :   1.393400
 C23     -H57     :   1.084887      C24     -C25     :   1.389597
 C24     -H58     :   1.087370      C25     -C26     :   1.395509
 C25     -H59     :   1.083219      C26     -O27     :   1.384076
 O27     -C28     :   1.435711      C28     -H60     :   1.091073
 C28     -H61     :   1.093675      C28     -H62     :   1.094885
 O29     -C30     :   1.417037      C30     -H63     :   1.098307
 C30     -H64     :   1.091664      C30     -H65     :   1.098975
 N118    -H119    :   1.018469      N118    -H120    :   1.020396
 N118    -C121    :   1.425729      C121    -C123    :   1.394718
 C121    -C124    :   1.397369      C122    -C125    :   1.396423
 C122    -C126    :   1.393831      C122    -H131    :   1.087710
 C123    -C126    :   1.393233      C123    -H127    :   1.086214
 C124    -C125    :   1.391568      C124    -H128    :   1.088033
 C125    -H129    :   1.088153      C126    -H130    :   1.087694
 
  bond angles:
 
 C3      -P1      -Pd2     : 100.842852  C4      -P1      -Pd2     : 116.373860
 C4      -P1      -C3      : 111.317691  C5      -P1      -Pd2     : 115.236609
 C5      -P1      -C3      : 107.739594  C5      -P1      -C4      : 105.146060
 C76     -Pd2     -P1      :  93.210125  N118    -Pd2     -P1      : 168.730103
 N118    -Pd2     -C76     :  86.430093  Br3     -Pd2     -P1      : 105.131106
 Br3     -Pd2     -C76     : 145.056287  Br3     -Pd2     -N118    :  81.056323
 C78     -C73     -C74     : 121.956890  F79     -C73     -C74     : 119.088928
 F79     -C73     -C78     : 118.953028  C75     -C74     -C73     : 118.918539
 H80     -C74     -C73     : 119.672158  H80     -C74     -C75     : 121.407595
 C76     -C75     -C74     : 120.222235  H14     -C75     -C74     : 118.940828
 H14     -C75     -C76     : 120.835305  C75     -C76     -Pd2     : 124.379628
 C77     -C76     -Pd2     : 115.865697  C77     -C76     -C75     : 119.731769
 C78     -C77     -C76     : 120.361133  H82     -C77     -C76     : 120.386136
 H82     -C77     -C78     : 119.252000  C77     -C78     -C73     : 118.786105
 H83     -C78     -C73     : 119.668772  H83     -C78     -C77     : 121.545121
 C6      -C3      -P1      : 120.087531  C10     -C3      -P1      : 108.579227
 C10     -C3      -C6      : 111.666548  H31     -C3      -P1      : 101.228566
 H31     -C3      -C6      : 106.832905  H31     -C3      -C10     : 107.259867
 C11     -C4      -P1      : 108.420651  C15     -C4      -P1      : 119.625637
 C15     -C4      -C11     : 110.206708  H42     -C4      -P1      : 102.238698
 H42     -C4      -C11     : 107.710630  H42     -C4      -C15     : 107.835763
 C16     -C5      -P1      : 118.649364  C20     -C5      -P1      : 122.573394
 C20     -C5      -C16     : 118.700995  C7      -C6      -C3      : 110.639131
 H32     -C6      -C3      : 110.432538  H32     -C6      -C7      : 109.029932
 H33     -C6      -C3      : 110.178239  H33     -C6      -C7      : 109.215736
 H33     -C6      -H32     : 107.269804  C8      -C7      -C6      : 111.664991
 H34     -C7      -C6      : 109.066307  H34     -C7      -C8      : 109.286659
 H35     -C7      -C6      : 109.341655  H35     -C7      -C8      : 110.780461
 H35     -C7      -H34     : 106.554807  C9      -C8      -C7      : 110.655434
 H36     -C8      -C7      : 109.240244  H36     -C8      -C9      : 109.279324
 H37     -C8      -C7      : 110.436199  H37     -C8      -C9      : 110.493755
 H37     -C8      -H36     : 106.638879  C10     -C9      -C8      : 111.389388
 H38     -C9      -C8      : 109.401480  H38     -C9      -C10     : 108.942486
 H39     -C9      -C8      : 110.809862  H39     -C9      -C10     : 109.553707
 H39     -C9      -H38     : 106.610428  C9      -C10     -C3      : 111.359540
 H40     -C10     -C3      : 109.407796  H40     -C10     -C9      : 109.759474
 H41     -C10     -C3      : 109.835279  H41     -C10     -C9      : 109.308344
 H41     -C10     -H40     : 107.072934  C12     -C11     -C4      : 110.095497
 H43     -C11     -C4      : 110.688620  H43     -C11     -C12     : 110.457821
 H44     -C11     -C4      : 108.986705  H44     -C11     -C12     : 109.996977
 H44     -C11     -H43     : 106.543385  C13     -C12     -C11     : 110.927724
 H45     -C12     -C11     : 109.857926  H45     -C12     -C13     : 110.408099
 H46     -C12     -C11     : 108.788227  H46     -C12     -C13     : 110.068476
 H46     -C12     -H45     : 106.685820  C14     -C13     -C12     : 111.453303
 H47     -C13     -C12     : 110.516505  H47     -C13     -C14     : 110.146091
 H48     -C13     -C12     : 108.964335  H48     -C13     -C14     : 108.986354
 H48     -C13     -H47     : 106.635555  C15     -C14     -C13     : 111.717940
 H49     -C14     -C13     : 110.428960  H49     -C14     -C15     : 109.748340
 H50     -C14     -C13     : 109.313318  H50     -C14     -C15     : 108.821705
 H50     -C14     -H49     : 106.665864  C14     -C15     -C4      : 109.401000
 H51     -C15     -C4      : 110.132482  H51     -C15     -C14     : 109.032338
 H52     -C15     -C4      : 111.308283  H52     -C15     -C14     : 109.677294
 H52     -C15     -H51     : 107.242121  C17     -C16     -C5      : 121.900804
 H53     -C16     -C5      : 119.713946  H53     -C16     -C17     : 118.383300
 C18     -C17     -C16     : 119.406460  H54     -C17     -C16     : 119.841471
 H54     -C17     -C18     : 120.752069  C19     -C18     -C17     : 119.291455
 H55     -C18     -C17     : 120.660102  H55     -C18     -C19     : 120.043158
 C20     -C19     -C18     : 122.167916  H56     -C19     -C18     : 119.664536
 H56     -C19     -C20     : 118.163169  C19     -C20     -C5      : 118.465925
 C21     -C20     -C5      : 126.669835  C21     -C20     -C19     : 114.830250
 C22     -C21     -C20     : 118.794203  C26     -C21     -C20     : 123.193667
 C26     -C21     -C22     : 117.634217  C23     -C22     -C21     : 120.781382
 O29     -C22     -C21     : 115.355862  O29     -C22     -C23     : 123.862498
 C24     -C23     -C22     : 119.353277  H57     -C23     -C22     : 120.979836
 H57     -C23     -C24     : 119.664756  C25     -C24     -C23     : 121.395060
 H58     -C24     -C23     : 119.328945  H58     -C24     -C25     : 119.244853
 C26     -C25     -C24     : 118.481924  H59     -C25     -C24     : 120.505011
 H59     -C25     -C26     : 120.803424  C25     -C26     -C21     : 122.060547
 O27     -C26     -C21     : 115.242831  O27     -C26     -C25     : 122.591983
 C28     -O27     -C26     : 118.044377  H60     -C28     -O27     : 105.425078
 H61     -C28     -O27     : 110.818606  H61     -C28     -H60     : 109.536945
 H62     -C28     -O27     : 109.946737  H62     -C28     -H60     : 110.034796
 H62     -C28     -H61     : 110.936767  C30     -O29     -C22     : 118.516409
 H63     -C30     -O29     : 111.540276  H64     -C30     -O29     : 105.762255
 H64     -C30     -H63     : 109.251593  H65     -C30     -O29     : 111.637834
 H65     -C30     -H63     : 109.283364  H65     -C30     -H64     : 109.274014
 H119    -N118    -Pd2     : 103.139284  H120    -N118    -Pd2     :  99.770894
 H120    -N118    -H119    : 108.635216  C121    -N118    -Pd2     : 119.045649
 C121    -N118    -H119    : 113.258057  C121    -N118    -H120    : 111.725152
 C123    -C121    -N118    : 120.787076  C124    -C121    -N118    : 118.952235
 C124    -C121    -C123    : 120.177041  C126    -C122    -C125    : 119.466318
 H131    -C122    -C125    : 120.244579  H131    -C122    -C126    : 120.288524
 C126    -C123    -C121    : 119.745472  H127    -C123    -C121    : 119.999987
 H127    -C123    -C126    : 120.201911  C125    -C124    -C121    : 119.654426
 H128    -C124    -C121    : 119.160514  H128    -C124    -C125    : 121.160978
 C124    -C125    -C122    : 120.500549  H129    -C125    -C122    : 120.154666
 H129    -C125    -C124    : 119.343576  C123    -C126    -C122    : 120.455125
 H130    -C126    -C122    : 120.214803  H130    -C126    -C123    : 119.328351
 
  torsional angles:
 
 P1      -Pd2     -C76     -C75     :  83.403782
 P1      -Pd2     -C76     -C77     : -98.348125
 P1      -Pd2     -N118    -H119    :   7.356554
 P1      -Pd2     -N118    -H120    :-104.554100
 P1      -Pd2     -N118    -C121    : 133.759319
 P1      -C3      -C6      -C7      : 176.916650
 P1      -C3      -C6      -H32     : -62.277014
 P1      -C3      -C6      -H33     :  56.045091
 P1      -C3      -C10     -C9      :-171.185922
 P1      -C3      -C10     -H40     : -49.675278
 P1      -C3      -C10     -H41     :  67.582359
 P1      -C4      -C11     -C12     :-167.473816
 P1      -C4      -C11     -H43     : -45.062523
 P1      -C4      -C11     -H44     :  71.797693
 P1      -C4      -C15     -C14     : 174.301367
 P1      -C4      -C15     -H51     : -65.874649
 P1      -C4      -C15     -H52     :  52.931904
 P1      -C5      -C16     -C17     : 179.182654
 P1      -C5      -C16     -H53     :  -0.301026
 P1      -C5      -C20     -C19     :-179.625632
 P1      -C5      -C20     -C21     :  -1.864658
 Pd2     -P1      -C3      -C6      :-161.859531
 Pd2     -P1      -C3      -C10     :  67.981564
 Pd2     -P1      -C3      -H31     : -44.715481
 Pd2     -P1      -C4      -C11     :  77.956444
 Pd2     -P1      -C4      -C15     :-154.583313
 Pd2     -P1      -C4      -H42     : -35.642994
 Pd2     -P1      -C5      -C16     :-178.382103
 Pd2     -P1      -C5      -C20     :  -1.601091
 Pd2     -C76     -C75     -C74     : 179.805509
 Pd2     -C76     -C75     -H14     :   0.275094
 Pd2     -C76     -C77     -C78     :-179.893459
 Pd2     -C76     -C77     -H82     :   0.419800
 Pd2     -N118    -C121    -C123    : -98.523635
 Pd2     -N118    -C121    -C124    :  78.156459
 C73     -C74     -C75     -C76     :  -0.498404
 C73     -C74     -C75     -H14     : 179.040852
 C73     -C78     -C77     -C76     :   0.370704
 C73     -C78     -C77     -H82     :-179.939021
 C74     -C73     -C78     -C77     :   0.780447
 C74     -C73     -C78     -H83     :-179.205606
 C74     -C75     -C76     -C77     :   1.620913
 C75     -C74     -C73     -C78     :  -0.717896
 C75     -C74     -C73     -F79     : 179.677110
 C75     -C76     -Pd2     -N118    :-107.880199
 C75     -C76     -Pd2     -Br3     : -39.056315
 C75     -C76     -C77     -C78     :  -1.558504
 C75     -C76     -C77     -H82     : 178.754756
 C76     -Pd2     -P1      -C3      :-147.595043
 C76     -Pd2     -P1      -C4      : -27.056342
 C76     -Pd2     -P1      -C5      :  96.731383
 C76     -Pd2     -N118    -H119    : -81.154649
 C76     -Pd2     -N118    -H120    : 166.934696
 C76     -Pd2     -N118    -C121    :  45.248116
 C76     -C75     -C74     -H80     : 179.978636
 C76     -C77     -C78     -H83     :-179.643515
 C77     -C76     -Pd2     -N118    :  70.367894
 C77     -C76     -Pd2     -Br3     : 139.191778
 C77     -C76     -C75     -H14     :-177.909502
 C77     -C78     -C73     -F79     :-179.614040
 C78     -C73     -C74     -H80     : 178.813514
 F79     -C73     -C74     -H80     :  -0.791480
 F79     -C73     -C78     -H83     :   0.399907
 H80     -C74     -C75     -H14     :  -0.482108
 H82     -C77     -C78     -H83     :   0.046759
 C3      -P1      -Pd2     -N118    : 124.563164
 C3      -P1      -Pd2     -Br3     :   2.362511
 C3      -P1      -C4      -C11     :-167.279211
 C3      -P1      -C4      -C15     : -39.818968
 C3      -P1      -C4      -H42     :  79.121351
 C3      -P1      -C5      -C16     :  69.955821
 C3      -P1      -C5      -C20     :-113.263167
 C3      -C6      -C7      -C8      :  55.903256
 C3      -C6      -C7      -H34     : -64.982280
 C3      -C6      -C7      -H35     : 178.861455
 C3      -C10     -C9      -C8      : -54.980098
 C3      -C10     -C9      -H38     :  65.791135
 C3      -C10     -C9      -H39     :-177.937411
 C4      -P1      -Pd2     -N118    :-114.898135
 C4      -P1      -Pd2     -Br3     : 122.901212
 C4      -P1      -C3      -C6      :  74.066272
 C4      -P1      -C3      -C10     : -56.092634
 C4      -P1      -C3      -H31     :-168.789678
 C4      -P1      -C5      -C16     : -48.861319
 C4      -P1      -C5      -C20     : 127.919693
 C4      -C11     -C12     -C13     : -57.102571
 C4      -C11     -C12     -H45     :-179.449935
 C4      -C11     -C12     -H46     :  64.105898
 C4      -C15     -C14     -C13     :  56.578717
 C4      -C15     -C14     -H49     : 179.411477
 C4      -C15     -C14     -H50     : -64.210464
 C5      -P1      -Pd2     -N118    :   8.889590
 C5      -P1      -Pd2     -Br3     :-113.311063
 C5      -P1      -C3      -C6      : -40.724823
 C5      -P1      -C3      -C10     :-170.883728
 C5      -P1      -C3      -H31     :  76.419227
 C5      -P1      -C4      -C11     : -50.889688
 C5      -P1      -C4      -C15     :  76.570555
 C5      -P1      -C4      -H42     :-164.489126
 C5      -C16     -C17     -C18     :  -0.056828
 C5      -C16     -C17     -H54     : 179.949162
 C5      -C20     -C19     -C18     :   1.331662
 C5      -C20     -C19     -H56     :-179.432764
 C5      -C20     -C21     -C22     :-113.425427
 C5      -C20     -C21     -C26     :  73.806017
 C6      -C3      -C10     -C9      :  54.175702
 C6      -C3      -C10     -H40     : 175.686345
 C6      -C3      -C10     -H41     : -67.056018
 C6      -C7      -C8      -C9      : -56.871302
 C6      -C7      -C8      -H36     :  63.480349
 C6      -C7      -C8      -H37     :-179.538318
 C7      -C6      -C3      -C10     : -54.298333
 C7      -C6      -C3      -H31     :  62.685990
 C7      -C8      -C9      -C10     :  56.178614
 C7      -C8      -C9      -H38     : -64.323163
 C7      -C8      -C9      -H39     : 178.413830
 C8      -C7      -C6      -H32     : -65.733073
 C8      -C7      -C6      -H33     : 177.344751
 C8      -C9      -C10     -H40     :-176.285838
 C8      -C9      -C10     -H41     :  66.558714
 C9      -C8      -C7      -H34     :  63.885790
 C9      -C8      -C7      -H35     :-179.006204
 C9      -C10     -C3      -H31     : -62.550073
 C10     -C3      -C6      -H32     :  66.508003
 C10     -C3      -C6      -H33     :-175.169892
 C10     -C9      -C8      -H36     : -64.149706
 C10     -C9      -C8      -H37     : 178.812109
 C11     -C4      -C15     -C14     : -59.067729
 C11     -C4      -C15     -H51     :  60.756255
 C11     -C4      -C15     -H52     : 179.562808
 C11     -C12     -C13     -C14     :  54.544884
 C11     -C12     -C13     -H47     : 177.376352
 C11     -C12     -C13     -H48     : -65.764001
 C12     -C11     -C4      -C15     :  59.855525
 C12     -C11     -C4      -H42     : -57.541524
 C12     -C13     -C14     -C15     : -54.618201
 C12     -C13     -C14     -H49     :-177.062309
 C12     -C13     -C14     -H50     :  65.884175
 C13     -C12     -C11     -H43     :-179.649952
 C13     -C12     -C11     -H44     :  63.016990
 C13     -C14     -C15     -H51     : -63.918771
 C13     -C14     -C15     -H52     : 178.929063
 C14     -C13     -C12     -H45     : 176.571802
 C14     -C13     -C12     -H46     : -65.906973
 C14     -C15     -C4      -H42     :  58.251799
 C15     -C4      -C11     -H43     :-177.733182
 C15     -C4      -C11     -H44     : -60.872967
 C15     -C14     -C13     -H47     :-177.661522
 C15     -C14     -C13     -H48     :  65.677728
 C16     -C5      -C20     -C19     :  -2.846208
 C16     -C5      -C20     -C21     : 174.914766
 C16     -C17     -C18     -C19     :  -1.525182
 C16     -C17     -C18     -H55     : 179.310788
 C17     -C16     -C5      -C20     :   2.275143
 C17     -C18     -C19     -C20     :   0.887985
 C17     -C18     -C19     -H56     :-178.336442
 C18     -C17     -C16     -H53     : 179.433470
 C18     -C19     -C20     -C21     :-176.689616
 C19     -C18     -C17     -H54     : 178.468773
 C19     -C20     -C21     -C22     :  64.405783
 C19     -C20     -C21     -C26     :-108.362773
 C20     -C5      -C16     -H53     :-177.208537
 C20     -C19     -C18     -H55     :-179.942730
 C20     -C21     -C22     -C23     :-169.123641
 C20     -C21     -C22     -O29     :  10.698357
 C20     -C21     -C26     -C25     : 166.319683
 C20     -C21     -C26     -O27     : -17.310162
 C21     -C20     -C19     -H56     :   2.545957
 C21     -C22     -C23     -C24     :   0.342739
 C21     -C22     -C23     -H57     : 179.809873
 C21     -C22     -O29     -C30     :-179.356030
 C21     -C26     -C25     -C24     :   4.461570
 C21     -C26     -C25     -H59     : 179.226600
 C21     -C26     -O27     -C28     : 156.489911
 C22     -C21     -C26     -C25     :  -6.527410
 C22     -C21     -C26     -O27     : 169.842744
 C22     -C23     -C24     -C25     :  -2.558952
 C22     -C23     -C24     -H58     : 179.486505
 C22     -O29     -C30     -H63     : -61.628020
 C22     -O29     -C30     -H64     : 179.703696
 C22     -O29     -C30     -H65     :  60.955906
 C23     -C22     -C21     -C26     :   4.047679
 C23     -C22     -O29     -C30     :   0.459805
 C23     -C24     -C25     -C26     :   0.219209
 C23     -C24     -C25     -H59     :-174.562001
 C24     -C23     -C22     -O29     :-179.463549
 C24     -C25     -C26     -O27     :-171.641156
 C25     -C24     -C23     -H57     : 177.966808
 C25     -C26     -O27     -C28     : -27.161331
 C26     -C21     -C22     -O29     :-176.130323
 C26     -C25     -C24     -H58     : 178.175436
 C26     -O27     -C28     -H60     :-169.299095
 C26     -O27     -C28     -H61     :  72.272780
 C26     -O27     -C28     -H62     : -50.730667
 O27     -C26     -C25     -H59     :   3.123875
 O29     -C22     -C23     -H57     :   0.003586
 H31     -C3      -C6      -H32     :-176.507675
 H31     -C3      -C6      -H33     : -58.185570
 H31     -C3      -C10     -H40     :  58.960571
 H31     -C3      -C10     -H41     : 176.218207
 H32     -C6      -C7      -H34     : 173.381390
 H32     -C6      -C7      -H35     :  57.225125
 H33     -C6      -C7      -H34     :  56.459214
 H33     -C6      -C7      -H35     : -59.697051
 H34     -C7      -C8      -H36     :-175.762560
 H34     -C7      -C8      -H37     : -58.781226
 H35     -C7      -C8      -H36     : -58.654554
 H35     -C7      -C8      -H37     :  58.326779
 H36     -C8      -C9      -H38     : 175.348517
 H36     -C8      -C9      -H39     :  58.085510
 H37     -C8      -C9      -H38     :  58.310332
 H37     -C8      -C9      -H39     : -58.952675
 H38     -C9      -C10     -H40     : -55.514605
 H38     -C9      -C10     -H41     :-172.670053
 H39     -C9      -C10     -H40     :  60.756849
 H39     -C9      -C10     -H41     : -56.398599
 H42     -C4      -C11     -H43     :  64.869769
 H42     -C4      -C11     -H44     :-178.270016
 H42     -C4      -C15     -H51     : 178.075783
 H42     -C4      -C15     -H52     : -63.117664
 H43     -C11     -C12     -H45     :  58.002685
 H43     -C11     -C12     -H46     : -58.441482
 H44     -C11     -C12     -H45     : -59.330373
 H44     -C11     -C12     -H46     :-175.774540
 H45     -C12     -C13     -H47     : -60.596731
 H45     -C12     -C13     -H48     :  56.262917
 H46     -C12     -C13     -H47     :  56.924494
 H46     -C12     -C13     -H48     : 173.784142
 H47     -C13     -C14     -H49     :  59.894369
 H47     -C13     -C14     -H50     : -57.159146
 H48     -C13     -C14     -H49     : -56.766380
 H48     -C13     -C14     -H50     :-173.819895
 H49     -C14     -C15     -H51     :  58.913990
 H49     -C14     -C15     -H52     : -58.238177
 H50     -C14     -C15     -H51     : 175.292049
 H50     -C14     -C15     -H52     :  58.139882
 H53     -C16     -C17     -H54     :  -0.560541
 H54     -C17     -C18     -H55     :  -0.695257
 H55     -C18     -C19     -H56     :   0.832842
 H57     -C23     -C24     -H58     :   0.012264
 H58     -C24     -C25     -H59     :   3.394226
 N118    -C121    -C123    -C126    : 176.661059
 N118    -C121    -C123    -H127    :  -0.706190
 N118    -C121    -C124    -C125    :-176.995538
 N118    -C121    -C124    -H128    :   1.240509
 H119    -N118    -Pd2     -Br3     : 131.574500
 H119    -N118    -C121    -C123    :  22.923436
 H119    -N118    -C121    -C124    :-160.396469
 H120    -N118    -Pd2     -Br3     :  19.663846
 H120    -N118    -C121    -C123    : 145.992975
 H120    -N118    -C121    -C124    : -37.326931
 C121    -N118    -Pd2     -Br3     :-102.022735
 C121    -C123    -C126    -C122    :   0.225139
 C121    -C123    -C126    -H130    :-179.298625
 C121    -C124    -C125    -C122    :   0.324738
 C121    -C124    -C125    -H129    : 179.925363
 C122    -C125    -C124    -H128    :-177.875139
 C122    -C126    -C123    -H127    : 177.587000
 C123    -C121    -C124    -C125    :  -0.294680
 C123    -C121    -C124    -H128    : 177.941368
 C123    -C126    -C122    -C125    :  -0.195826
 C123    -C126    -C122    -H131    :-179.919724
 C124    -C121    -C123    -C126    :   0.021516
 C124    -C121    -C123    -H127    :-177.345733
 C124    -C125    -C122    -C126    :  -0.080786
 C124    -C125    -C122    -H131    : 179.643235
 C125    -C122    -C126    -H130    : 179.323704
 C126    -C122    -C125    -H129    :-179.678167
 H127    -C123    -C126    -H130    :  -1.936764
 H128    -C124    -C125    -H129    :   1.725486
 H129    -C125    -C122    -H131    :   0.045855
 H130    -C126    -C122    -H131    :  -0.400194
 
  nuclear repulsion energy.......          6852.788038756 hartrees
  
  Detected an organometallic with only one TM atom. 
  
  Oxidation state on metal       2 is     2
  Formal multiplet on metal      2 is     1
  Formal charge on ligand        3 is    -1
  Formal multiplet on ligand     3 is     1
  Formal charge on ligand        5 is    -1
  Formal multiplet on ligand     5 is     1
  
 
  Will use High-Quality Initial guess for organometallics
       including d-d repulsion (iguess=30)
 
 Non-default options chosen:
   SCF calculation type: DFT(b3pw91-d3)              
   DFT=Becke_3_Parameter/HF+Slater+Becke88+PW91+PW-GGAIIC (B3PW91-D3)
   Geometry will be optimized in redundant internal coordinates
   Solvation energy will be computed using PBF
     -solute cavity energy will not be included
     -surface area terms will not be included
   Vibrational frequencies and related properties will be computed
      from analytic second derivatives
   IR intensities will be computed
   Thermochemical properties will be computed
   Maximum number of geometry steps: 100
   Scaling standard convergence criteria by a factor of   5.00
   Solvent: benzene                                                         
   Internal dielectric constant:    1.000
   Continuum dielectric constant:   2.283
   Solvent probe molecule radius:   2.600
  
 Non-default print settings:
     11=  2
  
 Temporary integer options set:
     21= -1  73=  2
  
  atom       vdw   vdw2    cov     mass  grid  daf  charge   basis
  P1        2.147  2.074  1.060   30.974    Y    Y      Y    ps_6-31g*
  Pd2       1.450  1.450  1.280  105.903    Y    Y      Y    lacv3p*
  C73       1.949  1.900  0.770   12.000    Y    Y      Y    ps_6-31g*
  C74       1.949  1.900  0.770   12.000    Y    Y      Y    ps_6-31g*
  C75       1.949  1.900  0.770   12.000    Y    Y      Y    ps_6-31g*
  C76       1.949  1.900  0.770   12.000    Y    Y      Y    ps_6-31g*
  C77       1.949  1.900  0.770   12.000    Y    Y      Y    ps_6-31g*
  C78       1.949  1.900  0.770   12.000    Y    Y      Y    ps_6-31g*
  F79       1.736  1.682  0.720   18.998    Y    Y      Y    ps_6-31g*
  H80       1.597  1.150  0.320    1.008    Y    Y      Y    ps_6-31g*
  H82       1.597  1.150  0.320    1.008    Y    Y      Y    ps_6-31g*
  H83       1.597  1.150  0.320    1.008    Y    Y      Y    ps_6-31g*
  H14       1.597  1.150  0.320    1.008    Y    Y      Y    ps_6-31g*
  C3        1.949  1.900  0.770   12.000    Y    Y      Y    ps_6-31g*
  C4        1.949  1.900  0.770   12.000    Y    Y      Y    ps_6-31g*
  C5        1.949  1.900  0.770   12.000    Y    Y      Y    ps_6-31g*
  C6        1.949  1.900  0.770   12.000    Y    Y      Y    ps_6-31g*
  C7        1.949  1.900  0.770   12.000    Y    Y      Y    ps_6-31g*
  C8        1.949  1.900  0.770   12.000    Y    Y      Y    ps_6-31g*
  C9        1.949  1.900  0.770   12.000    Y    Y      Y    ps_6-31g*
  C10       1.949  1.900  0.770   12.000    Y    Y      Y    ps_6-31g*
  C11       1.949  1.900  0.770   12.000    Y    Y      Y    ps_6-31g*
  C12       1.949  1.900  0.770   12.000    Y    Y      Y    ps_6-31g*
  C13       1.949  1.900  0.770   12.000    Y    Y      Y    ps_6-31g*
  C14       1.949  1.900  0.770   12.000    Y    Y      Y    ps_6-31g*
  C15       1.949  1.900  0.770   12.000    Y    Y      Y    ps_6-31g*
  C16       1.949  1.900  0.770   12.000    Y    Y      Y    ps_6-31g*
  C17       1.949  1.900  0.770   12.000    Y    Y      Y    ps_6-31g*
  C18       1.949  1.900  0.770   12.000    Y    Y      Y    ps_6-31g*
  C19       1.949  1.900  0.770   12.000    Y    Y      Y    ps_6-31g*
  C20       1.949  1.900  0.770   12.000    Y    Y      Y    ps_6-31g*
  C21       1.949  1.900  0.770   12.000    Y    Y      Y    ps_6-31g*
  C22       1.949  1.900  0.770   12.000    Y    Y      Y    ps_6-31g*
  C23       1.949  1.900  0.770   12.000    Y    Y      Y    ps_6-31g*
  C24       1.949  1.900  0.770   12.000    Y    Y      Y    ps_6-31g*
  C25       1.949  1.900  0.770   12.000    Y    Y      Y    ps_6-31g*
  C26       1.949  1.900  0.770   12.000    Y    Y      Y    ps_6-31g*
  O27       1.702  1.600  0.730   15.995    Y    Y      Y    ps_6-31g*
  C28       1.949  1.900  0.770   12.000    Y    Y      Y    ps_6-31g*
  O29       1.702  1.600  0.730   15.995    Y    Y      Y    ps_6-31g*
  C30       1.949  1.900  0.770   12.000    Y    Y      Y    ps_6-31g*
  H31       1.597  1.150  0.320    1.008    Y    Y      Y    ps_6-31g*
  H32       1.597  1.150  0.320    1.008    Y    Y      Y    ps_6-31g*
  H33       1.597  1.150  0.320    1.008    Y    Y      Y    ps_6-31g*
  H34       1.597  1.150  0.320    1.008    Y    Y      Y    ps_6-31g*
  H35       1.597  1.150  0.320    1.008    Y    Y      Y    ps_6-31g*
  H36       1.597  1.150  0.320    1.008    Y    Y      Y    ps_6-31g*
  H37       1.597  1.150  0.320    1.008    Y    Y      Y    ps_6-31g*
  H38       1.597  1.150  0.320    1.008    Y    Y      Y    ps_6-31g*
  H39       1.597  1.150  0.320    1.008    Y    Y      Y    ps_6-31g*
  H40       1.597  1.150  0.320    1.008    Y    Y      Y    ps_6-31g*
  H41       1.597  1.150  0.320    1.008    Y    Y      Y    ps_6-31g*
  H42       1.597  1.150  0.320    1.008    Y    Y      Y    ps_6-31g*
  H43       1.597  1.150  0.320    1.008    Y    Y      Y    ps_6-31g*
  H44       1.597  1.150  0.320    1.008    Y    Y      Y    ps_6-31g*
  H45       1.597  1.150  0.320    1.008    Y    Y      Y    ps_6-31g*
  H46       1.597  1.150  0.320    1.008    Y    Y      Y    ps_6-31g*
  H47       1.597  1.150  0.320    1.008    Y    Y      Y    ps_6-31g*
  H48       1.597  1.150  0.320    1.008    Y    Y      Y    ps_6-31g*
  H49       1.597  1.150  0.320    1.008    Y    Y      Y    ps_6-31g*
  H50       1.597  1.150  0.320    1.008    Y    Y      Y    ps_6-31g*
  H51       1.597  1.150  0.320    1.008    Y    Y      Y    ps_6-31g*
  H52       1.597  1.150  0.320    1.008    Y    Y      Y    ps_6-31g*
  H53       1.597  1.150  0.320    1.008    Y    Y      Y    ps_6-31g*
  H54       1.597  1.150  0.320    1.008    Y    Y      Y    ps_6-31g*
  H55       1.597  1.150  0.320    1.008    Y    Y      Y    ps_6-31g*
  H56       1.597  1.150  0.320    1.008    Y    Y      Y    ps_6-31g*
  H57       1.597  1.150  0.320    1.008    Y    Y      Y    ps_6-31g*
  H58       1.597  1.150  0.320    1.008    Y    Y      Y    ps_6-31g*
  H59       1.597  1.150  0.320    1.008    Y    Y      Y    ps_6-31g*
  H60       1.597  1.150  0.320    1.008    Y    Y      Y    ps_6-31g*
  H61       1.597  1.150  0.320    1.008    Y    Y      Y    ps_6-31g*
  H62       1.597  1.150  0.320    1.008    Y    Y      Y    ps_6-31g*
  H63       1.597  1.150  0.320    1.008    Y    Y      Y    ps_6-31g*
  H64       1.597  1.150  0.320    1.008    Y    Y      Y    ps_6-31g*
  H65       1.597  1.150  0.320    1.008    Y    Y      Y    ps_6-31g*
  N118      1.831  1.600  0.750   14.003    Y    Y      Y    ps_6-31g*
  H119      1.597  1.150  0.320    1.008    Y    Y      Y    ps_6-31g*
  H120      1.597  1.150  0.320    1.008    Y    Y      Y    ps_6-31g*
  C121      1.949  1.900  0.770   12.000    Y    Y      Y    ps_6-31g*
  C122      1.949  1.900  0.770   12.000    Y    Y      Y    ps_6-31g*
  C123      1.949  1.900  0.770   12.000    Y    Y      Y    ps_6-31g*
  C124      1.949  1.900  0.770   12.000    Y    Y      Y    ps_6-31g*
  C125      1.949  1.900  0.770   12.000    Y    Y      Y    ps_6-31g*
  C126      1.949  1.900  0.770   12.000    Y    Y      Y    ps_6-31g*
  H127      1.597  1.150  0.320    1.008    Y    Y      Y    ps_6-31g*
  H128      1.597  1.150  0.320    1.008    Y    Y      Y    ps_6-31g*
  H129      1.597  1.150  0.320    1.008    Y    Y      Y    ps_6-31g*
  H130      1.597  1.150  0.320    1.008    Y    Y      Y    ps_6-31g*
  H131      1.597  1.150  0.320    1.008    Y    Y      Y    ps_6-31g*
  Br3       2.095  2.095  1.140   78.918    Y    Y      Y    lav3p*
 
  atom      formal  2spin      esp    mulk    frag
  P1           0       0        Y    0.000       0
  Pd2          2       0        Y    0.000       0
  C73         -1       0        Y    0.000       0
  N118         0       0        Y    0.000       0
  Br3         -1       0        Y    0.000       0
  
  end of program pre
   
 Time(pre)  user:       5.322  user+sys:       5.322  wallclock:       1.590
  
  start of program onee
  
  smallest eigenvalue of S:    3.652E-04
  number of canonical orbitals.....          734
  end of program onee
   
 Time(onee)  user:      16.192  user+sys:      16.192  wallclock:       2.415
  
  start of program hfig
  
  initial wavefunction generated automatically from atomic wavefunctions
  Only one state below 0.010000
  Skip d-d repulsion considerations 
 
  Irreducible     Total no   No of occupied orbitals 
  representation  orbitals   Shell_1  Shell_2    ...
  No Symm          734        173
  ------------------------
  Orbital occupation/shell    1.000
 
  end of program hfig
   
 Time(hfig)  user:       3.411  user+sys:       3.411  wallclock:       1.263
  
  start of program probe
  
  end of program probe
   
 Time(probe)  user:       2.178  user+sys:       2.178  wallclock:       0.583
  
  start of program grid
  
   grid     grid set  grid #  grid sym
  ------    --------  ------  --------
  coarse        0        0        1
  medium        2        1        1
  fine          0        0        1
  ultrafine     4        2        1
  charge       -1        3        1
  gradient      4        2        1
  density       0        0        1
  DFT-fine    -11        4        1
  DFT-med.    -10        5        1
  DFT-grad    -12        6        1
  DFT-der2     -8        7        1
  DFT-cphf     -9        8        1
  LMP2-enrg     4        2        1
  LMP2-grad     2        1        1
  DFT-cphf2   -15        9        1
  PBF-dens      0        0        1
  plotting      0        0        1
  Rel-grad    -17        0        1
  
  number of gridpoints: 
     atom           P1         Pd2         C73         C74         C75         C76         C77
  grid # 1         604         345          78          92          94          99          94
  grid # 2         420         306         330         319         321         389         317
  grid # 3           8         206          22          14          11           6           6
  grid # 4        8714        8714        8714        8714        8714        8714        8714
  grid # 5        1192        1192        1192        1192        1192        1192        1192
  grid # 6        9132        9132        5922        5922        5922        5922        5922
  grid # 7       23034       32968       13950       13950       13950       13950       13950
  grid # 8         722        1150         748         748         748         748         748
  grid # 9         366        2198         394         394         394         394         394
   
  number of gridpoints: 
     atom          C78         F79         H80         H82         H83         H14          C3
  grid # 1          92         583         114         102         107         114          82
  grid # 2         317         565         460         414         445         454         329
  grid # 3          11         326         351          29         223         236           6
  grid # 4        8714        8714        8714        8714        8714        8714        8714
  grid # 5        1192        1192        1192        1192        1192        1192        1192
  grid # 6        5922        5922        5922        5922        5922        5922        5922
  grid # 7       13950       23190       15206       15206       15206       15206       13950
  grid # 8         748         770         786         786         786         786         748
  grid # 9         394         420         420         420         420         420         394
   
  number of gridpoints: 
     atom           C4          C5          C6          C7          C8          C9         C10
  grid # 1          81          93          92          92          92          92          90
  grid # 2         327         381         277         277         278         275         282
  grid # 3           6          13           6           6           6           6           6
  grid # 4        8714        8714        8714        8714        8714        8714        8714
  grid # 5        1192        1192        1192        1192        1192        1192        1192
  grid # 6        5922        5922        5922        5922        5922        5922        5922
  grid # 7       13950       13950       13950       13950       13950       13950       13950
  grid # 8         748         748         748         748         748         748         748
  grid # 9         394         394         394         394         394         394         394
   
  number of gridpoints: 
     atom          C11         C12         C13         C14         C15         C16         C17
  grid # 1          90          92          92          92          92          93          95
  grid # 2         278         277         279         278         279         324         324
  grid # 3           6           6           6           6           6          12          32
  grid # 4        8714        8714        8714        8714        8714        8714        8714
  grid # 5        1192        1192        1192        1192        1192        1192        1192
  grid # 6        5922        5922        5922        5922        5922        5922        5922
  grid # 7       13950       13950       13950       13950       13950       13950       13950
  grid # 8         748         748         748         748         748         748         748
  grid # 9         394         394         394         394         394         394         394
   
  number of gridpoints: 
     atom          C18         C19         C20         C21         C22         C23         C24
  grid # 1          97          96          98          96          89          95          95
  grid # 2         324         326         358         356         331         318         320
  grid # 3          45          33          22          10          13          25          32
  grid # 4        8714        8714        8714        8714        8714        8714        8714
  grid # 5        1192        1192        1192        1192        1192        1192        1192
  grid # 6        5922        5922        5922        5922        5922        5922        5922
  grid # 7       13950       13950       13950       13950       13950       13950       13950
  grid # 8         748         748         748         748         748         748         748
  grid # 9         394         394         394         394         394         394         394
   
  number of gridpoints: 
     atom          C25         C26         O27         C28         O29         C30         H31
  grid # 1          95          90         119          74         118          76          96
  grid # 2         318         349         452         226         448         225         421
  grid # 3          25          16          30           6          51           6          39
  grid # 4        8714        8714        8714        8714        8714        8714        8714
  grid # 5        1192        1192        1192        1192        1192        1192        1192
  grid # 6        5922        5922        5922        5922        5922        5922        5922
  grid # 7       13950       13950       23382       13950       23382       13950       15206
  grid # 8         748         748         774         748         774         748         786
  grid # 9         394         394         416         394         416         394         420
   
  number of gridpoints: 
     atom          H32         H33         H34         H35         H36         H37         H38
  grid # 1         104         110         109         112         110         112         107
  grid # 2         434         442         445         457         452         458         441
  grid # 3         120         198         231         322         257         329         169
  grid # 4        8714        8714        8714        8714        8714        8714        8714
  grid # 5        1192        1192        1192        1192        1192        1192        1192
  grid # 6        5922        5922        5922        5922        5922        5922        5922
  grid # 7       15206       15206       15206       15206       15206       15206       15206
  grid # 8         786         786         786         786         786         786         786
  grid # 9         420         420         420         420         420         420         420
   
  number of gridpoints: 
     atom          H39         H40         H41         H42         H43         H44         H45
  grid # 1         112         101         104          99         102         105         111
  grid # 2         456         433         434         420         422         433         455
  grid # 3         323         115         130          58          70         147         287
  grid # 4        8714        8714        8714        8714        8714        8714        8714
  grid # 5        1192        1192        1192        1192        1192        1192        1192
  grid # 6        5922        5922        5922        5922        5922        5922        5922
  grid # 7       15206       15206       15206       15206       15206       15206       15206
  grid # 8         786         786         786         786         786         786         786
  grid # 9         420         420         420         420         420         420         420
   
  number of gridpoints: 
     atom          H46         H47         H48         H49         H50         H51         H52
  grid # 1         107         112         110         112         110         103         104
  grid # 2         436         456         453         455         447         418         426
  grid # 3         133         326         262         324         253         109         108
  grid # 4        8714        8714        8714        8714        8714        8714        8714
  grid # 5        1192        1192        1192        1192        1192        1192        1192
  grid # 6        5922        5922        5922        5922        5922        5922        5922
  grid # 7       15206       15206       15206       15206       15206       15206       15206
  grid # 8         786         786         786         786         786         786         786
  grid # 9         420         420         420         420         420         420         420
   
  number of gridpoints: 
     atom          H53         H54         H55         H56         H57         H58         H59
  grid # 1         102         118         118         115         110         117         110
  grid # 2         420         465         467         456         442         462         435
  grid # 3          97         414         424         314         227         370         198
  grid # 4        8714        8714        8714        8714        8714        8714        8714
  grid # 5        1192        1192        1192        1192        1192        1192        1192
  grid # 6        5922        5922        5922        5922        5922        5922        5922
  grid # 7       15206       15206       15206       15206       15206       15206       15206
  grid # 8         786         786         786         786         786         786         786
  grid # 9         420         420         420         420         420         420         420
   
  number of gridpoints: 
     atom          H60         H61         H62         H63         H64         H65        N118
  grid # 1         108         103         113         105         111         111         100
  grid # 2         451         435         456         422         462         451         311
  grid # 3         263         171         343         128         371         314           6
  grid # 4        8714        8714        8714        8714        8714        8714        8714
  grid # 5        1192        1192        1192        1192        1192        1192        1192
  grid # 6        5922        5922        5922        5922        5922        5922        5922
  grid # 7       15206       15206       15206       15206       15206       15206       13958
  grid # 8         786         786         786         786         786         786         756
  grid # 9         420         420         420         420         420         420         406
   
  number of gridpoints: 
     atom         H119        H120        C121        C122        C123        C124        C125
  grid # 1         101         100          97          96          96          96          96
  grid # 2         402         419         352         325         323         325         326
  grid # 3          53         131          33          44          37          37          45
  grid # 4        8714        8714        8714        8714        8714        8714        8714
  grid # 5        1192        1192        1192        1192        1192        1192        1192
  grid # 6        5922        5922        5922        5922        5922        5922        5922
  grid # 7       15206       15206       13950       13950       13950       13950       13950
  grid # 8         786         786         748         748         748         748         748
  grid # 9         420         420         394         394         394         394         394
   
  number of gridpoints: 
     atom         C126        H127        H128        H129        H130        H131         Br3
  grid # 1          96         111         111         118         117         118         483
  grid # 2         327         445         451         466         465         466         466
  grid # 3          40         197         238         414         387         414         174
  grid # 4        8714        8714        8714        8714        8714        8714        8714
  grid # 5        1192        1192        1192        1192        1192        1192        1192
  grid # 6        5922        5922        5922        5922        5922        5922        9132
  grid # 7       13950       15206       15206       15206       15206       15206       11582
  grid # 8         748         786         786         786         786         786         694
  grid # 9         394         420         420         420         420         420         358
   
  number of gridpoints: 
     atom        total
  grid # 1       10845
  grid # 2       35260
  grid # 3       12086
  grid # 4      792974
  grid # 5      108472
  grid # 6      548532
  grid # 7     1381072
  grid # 8       70220
  grid # 9       38872
   
  end of program grid
   
 Time(grid)  user:     608.864  user+sys:     608.864  wallclock:      42.171
  
  start of program rwr
  
  end of program rwr
   
 Time(rwr)  user:      63.023  user+sys:      63.023  wallclock:      17.852
  
  start of program scf
  
 number of electrons..........        346
 number of alpha electrons....        173
 number of beta electrons.....        173
 number of orbitals, total....        734
 number of doubly-occ'd orbs..        173
 number of open shell orbs....          0
 number of occupied orbitals..        173
 number of virtual orbitals...        561
 number of hamiltonians.......          1
 number of shells.............          1
 SCF type: DFT=Becke_3_Parameter/HF+Slater+Becke88+PW91+PW-GGAIIC (B3PW91-D3)
 Energy computed using pseudospectral method.
 Convergence Criterion:
    Energy (econv):       1.00E-05
    RMS density (dconv):  5.00E-06
  
       i  u  d  i  g                   
       t  p  i  c  r                                 RMS    maximum
       e  d  i  u  i                       energy  density   DIIS  
       r  t  s  t  d       total energy    change  change    error 
  
etot    1  N  N  5  M   -2255.77448426471           1.8E-03  2.2E-01
etot    2  Y  Y  6  M   -2259.69901959022  3.9E+00  3.0E-03  1.3E-01
etot    3  Y  Y  6  M   -2260.87563173657  1.2E+00  1.3E-03  6.2E-02
etot    4  N  Y  2  U   -2261.23579179264  3.6E-01  7.8E-04  6.6E-02
etot    5  Y  Y  6  M   -2261.39799540871  1.6E-01  4.3E-04  4.1E-02
etot    6  N  Y  2  U   -2261.41683503773  1.9E-02  6.8E-04  2.5E-02
etot    7  Y  Y  6  M   -2261.41984991071  3.0E-03  1.0E-04  5.5E-03
etot    8  Y  Y  6  M   -2261.42411295723  4.3E-03  4.6E-05  1.5E-03
etot    9  N  Y  2  U   -2261.42560533972  1.5E-03  1.2E-05  3.6E-04
etot   10  N  Y  2  U   -2261.42561703822  1.2E-05  4.1E-06  9.7E-05
etot   11  N  N  2  U   -2261.42561989775  2.9E-06  0.0E+00  0.0E+00
 
  Computing the dispersion energy correction and its gradients...
  
  
 Energy components, in hartrees:
   (A)  Nuclear repulsion............    6852.78803875588
   (E)  Total one-electron terms.....  -16793.94036608581
   (F)    Electron-nuclear...........  -18953.85396286852
   (H)    Kinetic....................    2159.91359678270
   (I)  Total two-electron terms.....    7679.72670743218
   (J)    Coulomb....................    7976.06703315824
   (K)    Exchange+Correlation.......    -296.34032572606
   (L)  Electronic energy............   -9114.21365865364  (E+I)
   (N0) D3 correction................      -0.18584048504
   (N)  Total energy.................   -2261.61146038279  (A+L+N0)
   (O)  Gas phase energy.............   -2261.61146038279
  
 SCFE: SCF energy: DFT(b3pw91-d3)     -2261.61146038279 hartrees   iterations:  11
  
 
 HOMO energy:    -0.18643
 LUMO energy:    -0.04417
 
  Orbital energies (hartrees): 
   -77.07759   -24.67738   -19.18366   -19.17003   -14.35142   -10.25337
   -10.25126   -10.24265   -10.23301   -10.20770   -10.20588   -10.20392
   -10.19719   -10.19662   -10.19615   -10.18748   -10.18640   -10.18575
   -10.18494   -10.18321   -10.18313   -10.18295   -10.17217   -10.17058
   -10.16994   -10.16951   -10.16900   -10.16747   -10.16562   -10.16387
   -10.16372   -10.16370   -10.16076   -10.16022   -10.15849   -10.15804
   -10.15762   -10.15534   -10.15452   -10.15220   -10.14546   -10.14388
   -10.13682    -6.57844    -4.73637    -4.73567    -4.73374    -3.33270
    -2.06609    -2.06409    -2.03063    -1.20996    -1.09141    -1.06612
    -0.93341    -0.88548    -0.86776    -0.85318    -0.84151    -0.83763
    -0.82520    -0.80230    -0.77753    -0.77284    -0.75156    -0.74993
    -0.74810    -0.74511    -0.74136    -0.73524    -0.73199    -0.73127
    -0.72727    -0.72124    -0.69654    -0.66022    -0.64463    -0.64314
    -0.61781    -0.61484    -0.61127    -0.60846    -0.60545    -0.60210
    -0.59927    -0.59587    -0.59428    -0.59325    -0.56205    -0.56097
    -0.55018    -0.54108    -0.53708    -0.52438    -0.51864    -0.51688
    -0.51276    -0.50095    -0.49220    -0.49056    -0.47879    -0.47685
    -0.47545    -0.47272    -0.46768    -0.46445    -0.46244    -0.45850
    -0.45359    -0.45096    -0.44420    -0.44372    -0.43743    -0.43507
    -0.43260    -0.42981    -0.42735    -0.42632    -0.42479    -0.42093
    -0.41906    -0.41684    -0.41329    -0.41144    -0.40665    -0.40233
    -0.39788    -0.39291    -0.38686    -0.38363    -0.38217    -0.37660
    -0.37008    -0.36797    -0.36566    -0.36403    -0.35996    -0.35469
    -0.35427    -0.34892    -0.34662    -0.34515    -0.34213    -0.33791
    -0.33764    -0.33503    -0.33145    -0.33032    -0.32832    -0.32324
    -0.31850    -0.31458    -0.31077    -0.30651    -0.30054    -0.29506
    -0.28838    -0.28489    -0.27929    -0.26966    -0.26492    -0.25996
    -0.25784    -0.25082    -0.24613    -0.24417    -0.23689    -0.22459
    -0.21954    -0.21423    -0.20775    -0.20349    -0.18643    -0.04417
    -0.03746    -0.02883    -0.01090    -0.00980    -0.00160     0.00600
     0.01331     0.01768     0.04193
 
  end of program scf
   
 Time(scf)  user:     736.139  user+sys:     736.139  wallclock:      66.896
  
  start of program der1a
  
  end of program der1a
   
 Time(der1a)  user:      45.378  user+sys:      45.378  wallclock:       4.020
  
  start of program rwr
  
  end of program rwr
   
 Time(rwr)  user:      57.182  user+sys:      57.182  wallclock:      19.624
  
  start of program der1b
  
   
  forces (hartrees/bohr) : total     
   
 atom  label           x              y              z
 ---- --------   -------------  -------------  -------------
    1 P1         -1.096761E-02   7.831532E-03   6.342841E-03
    2 Pd2        -4.002777E-04   1.302256E-02   9.862317E-03
    3 C73         1.712135E-03  -1.241966E-04   3.845788E-04
    4 C74        -1.176133E-03  -1.430612E-04   2.338051E-03
    5 C75        -1.073121E-03  -2.453261E-04   9.869527E-04
    6 C76         2.019697E-03  -1.421504E-02  -5.388630E-03
    7 C77         9.626119E-03   5.092354E-03   1.051667E-03
    8 C78        -9.400916E-04   6.900464E-04   1.833295E-03
    9 F79        -9.932316E-04   2.049107E-04  -3.383135E-04
   10 H80         2.068025E-04  -3.077779E-04   2.216844E-04
   11 H82         6.683032E-03   1.201792E-02   1.336178E-03
   12 H83         1.695192E-03   1.822525E-03   3.624795E-04
   13 H14        -1.304905E-03   8.341291E-04  -9.707625E-04
   14 C3         -2.081928E-03   5.515707E-04  -3.123184E-03
   15 C4          6.911430E-04  -3.164363E-03   5.099850E-04
   16 C5          2.415780E-03  -1.694788E-03   2.429410E-03
   17 C6          3.865629E-03  -1.373527E-03  -6.762198E-04
   18 C7         -1.612884E-04   9.065558E-05   6.037631E-05
   19 C8          1.036040E-03   9.225834E-04   7.127852E-05
   20 C9         -1.941788E-03  -1.317867E-03  -2.184970E-04
   21 C10         3.440962E-03   1.312190E-03  -2.161282E-03
   22 C11         2.088411E-03  -2.202379E-04   3.914681E-04
   23 C12         1.682818E-05  -1.844694E-04  -1.611531E-03
   24 C13         3.640158E-04   1.577813E-05  -3.527479E-06
   25 C14         5.798845E-05  -4.918194E-04  -2.507555E-04
   26 C15         5.318547E-04   2.959519E-03   1.595538E-04
   27 C16        -2.891644E-03  -6.634162E-04   7.505439E-04
   28 C17        -3.370481E-04  -1.418835E-04   1.323735E-03
   29 C18         3.626618E-04   1.635703E-03   3.569676E-04
   30 C19        -7.064886E-05   7.048953E-04   8.039461E-04
   31 C20        -4.821995E-04   2.900102E-04  -2.010595E-03
   32 C21         3.491045E-03  -2.360661E-03   1.329819E-03
   33 C22        -8.704282E-03  -9.138137E-03  -5.835591E-03
   34 C23        -2.162445E-03  -5.183867E-03   2.488738E-03
   35 C24         1.190479E-03  -3.221429E-03   8.758453E-04
   36 C25        -4.247742E-04  -2.787749E-03  -2.647247E-04
   37 C26        -1.798505E-02   1.631877E-02  -1.015524E-02
   38 O27         4.416566E-03  -2.272037E-02   2.472112E-03
   39 C28         7.170740E-03  -2.550674E-03  -1.640426E-03
   40 O29         1.383526E-04  -1.982966E-03   1.016846E-03
   41 C30        -1.913507E-03  -4.071507E-04  -3.095879E-04
   42 H31         2.381722E-03   1.216486E-03  -2.231264E-04
   43 H32         3.876704E-05  -5.169685E-05  -9.466596E-04
   44 H33         1.360107E-03  -1.954347E-03  -8.787906E-04
   45 H34         3.260332E-04   1.493678E-04   4.149243E-04
   46 H35        -1.033648E-04  -1.288998E-05  -3.788040E-04
   47 H36         2.428317E-05   3.680635E-05  -1.150033E-03
   48 H37        -5.301977E-04   1.127889E-05  -7.184591E-05
   49 H38         2.445919E-03   3.149742E-04  -5.091706E-04
   50 H39         3.004312E-04   1.313819E-04  -6.945685E-05
   51 H40        -5.976680E-04   1.679619E-03  -2.462994E-03
   52 H41         1.459496E-04   5.095213E-04  -2.557057E-03
   53 H42        -3.067841E-04   3.323389E-04   3.346187E-04
   54 H43         7.324236E-04   6.120950E-04  -3.147201E-03
   55 H44         5.043935E-04   4.811068E-04  -4.886229E-04
   56 H45         6.156862E-05   2.122550E-04   4.063767E-04
   57 H46         1.657238E-05  -5.266977E-04  -6.485816E-04
   58 H47         8.133764E-05   9.005818E-05  -2.245125E-04
   59 H48         2.108855E-06   2.472570E-05  -1.297852E-04
   60 H49        -7.631374E-05   1.377168E-04   1.164981E-05
   61 H50        -1.062908E-04   1.191017E-04  -2.466673E-05
   62 H51         1.645117E-03   2.535428E-03   1.457092E-04
   63 H52        -5.756217E-06  -4.517680E-04   1.759820E-04
   64 H53        -3.027820E-03  -5.242271E-04   9.494335E-04
   65 H54        -8.496145E-05   1.964256E-05   4.580905E-04
   66 H55         8.407460E-05   4.942247E-04   2.855190E-04
   67 H56         1.295003E-04   3.486620E-05   2.234838E-04
   68 H57        -3.432388E-04   6.777741E-04  -2.895521E-04
   69 H58         1.966823E-04  -7.351951E-04   4.372837E-06
   70 H59        -1.519792E-03  -1.129838E-03  -5.787679E-04
   71 H60         9.754465E-04   1.213152E-03   1.942138E-03
   72 H61        -1.492338E-03   1.005289E-03  -1.632504E-03
   73 H62        -4.708828E-04  -2.040673E-03  -1.500945E-04
   74 H63        -8.457739E-04  -2.088786E-03  -1.138098E-03
   75 H64        -1.742815E-04   6.948587E-04   2.681517E-04
   76 H65        -2.765146E-04   2.940287E-04  -1.764104E-04
   77 N118        2.636600E-03   3.817271E-03  -4.058075E-04
   78 H119        1.562681E-03   2.326660E-03   1.027887E-03
   79 H120       -4.205155E-04   1.461572E-03  -1.333423E-03
   80 C121        2.512408E-04   1.504964E-03   6.132021E-05
   81 C122       -3.167968E-04  -1.055953E-04  -1.455614E-04
   82 C123        3.105490E-04   3.751079E-04  -2.007688E-04
   83 C124        1.334643E-04   3.485526E-04   2.275457E-04
   84 C125        3.721429E-04  -8.874630E-04  -1.161580E-04
   85 C126       -3.438002E-04   2.922107E-04  -2.094631E-04
   86 H127       -6.557465E-04  -6.544326E-04   2.716705E-04
   87 H128       -4.780733E-05  -2.179621E-04  -3.402245E-04
   88 H129        1.594944E-04  -5.412469E-04  -1.652710E-04
   89 H130       -2.522968E-04   1.412536E-04  -1.008787E-04
   90 H131       -2.068269E-04  -3.554332E-04  -2.529029E-04
   91 Br3        -2.422832E-03  -2.657617E-03   1.040550E-02
 -------------   -------------  -------------  -------------
     total       -5.404845E-04   3.668848E-05   1.268982E-03
   
  end of program der1b
   
 Time(der1b)  user:     278.972  user+sys:     278.972  wallclock:      23.755
  
  start of program geopt
  
 ----------------------------------------------------------------------------
  Geometry optimization step  1
  Total energy:     -2261.61146038279 hartrees
 ----------------------------------------------------------------------------
  
  
  Level shifts adjusted to satisfy step-size constraints
   Step size:    0.3003736
   Cos(theta):   0.6541690
   Final level shift:  -2.1533159E-01
  
  gradient maximum:        1.8494E-01 .  (  2.2500E-03 )
  gradient rms:            2.2280E-02 .  (  1.5000E-03 )
  displacement maximum:    9.1379E-02 .  (  9.0000E-03 )
  displacement rms:        1.3698E-02 .  (  6.0000E-03 )
  
  predicted energy change:  -4.3383E-02
  step size:     0.24157
  trust radius:  0.30000
  
  molecular structure not yet converged...
  
  center of mass moved by:
     x:     1.4465E-02     y:     4.3010E-02     z:     1.3364E-01
  
  new geometry: 
                                   angstroms
  atom               x                 y                 z
  P1           -0.0564220544      0.0277148848      0.0903848948 
  Pd2           0.0351766283      0.0604567895      2.4012004124 
  C73           4.7786625483      0.3023697580      2.5106817096 
  C74           4.0644642710      1.4782943179      2.3494859437 
  C75           2.6698953995      1.4202275578      2.3088115209 
  C76           2.0049417397      0.1977485888      2.4232407935 
  C77           2.7513453963     -0.9743222937      2.6005497049 
  C78           4.1470223361     -0.9249322921      2.6443350798 
  F79           6.1275172069      0.3528763846      2.5434064597 
  H80           4.5958200972      2.4221724928      2.2666865868 
  H82           2.2482332153     -1.9329341937      2.7021402568 
  H83           4.7486222655     -1.8184469480      2.7819782927 
  H14           2.1081002408      2.3432942262      2.1952989286 
  C3           -1.6073831580      0.9406221301     -0.4226112141 
  C4            1.4079869928      0.8225965533     -0.7487697202 
  C5           -0.2310168639     -1.6196440556     -0.7245914155 
  C6           -2.1725711708      0.6899753658     -1.8286775664 
  C7           -3.4746887287      1.4753720262     -2.0308530662 
  C8           -3.2752682014      2.9713099187     -1.7868493575 
  C9           -2.7143043301      3.2200561656     -0.3853403609 
  C10          -1.4126729236      2.4477553933     -0.1644624670 
  C11           2.6104820634     -0.1412028067     -0.7042933427 
  C12           3.8958310824      0.5897047555     -1.0972861042 
  C13           3.7649328420      1.2239254198     -2.4848673783 
  C14           2.5417760863      2.1421136277     -2.5633379954 
  C15           1.2516522158      1.4135793941     -2.1586821539 
  C16          -0.2385374217     -1.6185553681     -2.1316545195 
  C17          -0.3429006908     -2.7830677892     -2.8800134078 
  C18          -0.4461564620     -4.0063577294     -2.2278827234 
  C19          -0.4158639556     -4.0363393735     -0.8428214768 
  C20          -0.2970681846     -2.8714094586     -0.0667708217 
  C21          -0.2277737931     -3.1392195037      1.3946165537 
  C22           0.8741915083     -3.8443856863      1.9213242856 
  C23           0.8548461267     -4.3235711237      3.2359254310 
  C24          -0.2728318457     -4.1054904658      4.0233482002 
  C25          -1.3723507611     -3.4048749889      3.5362217038 
  C26          -1.3191805974     -2.8972103486      2.2363460113 
  O27          -2.3053758256     -2.1239938559      1.6880971188 
  C28          -3.6262153818     -2.2593320960      2.2210305807 
  O29           1.9059029026     -4.0345388293      1.0617381647 
  C30           3.0259726980     -4.7774905059      1.5048034319 
  H31          -2.3391519835      0.5451770408      0.2970181716 
  H32          -1.4497866427      1.0010567855     -2.5951947085 
  H33          -2.3577713576     -0.3799896014     -1.9764406793 
  H34          -4.2372650594      1.0902092206     -1.3374205409 
  H35          -3.8542570679      1.2945264728     -3.0452679514 
  H36          -2.5723227929      3.3680374325     -2.5359086540 
  H37          -4.2210838552      3.5107263201     -1.9248710144 
  H38          -3.4460488287      2.9001357850      0.3689295616 
  H39          -2.5405252777      4.2908063505     -0.2196566905 
  H40          -1.0452607524      2.6066257208      0.8539715991 
  H41          -0.6481256304      2.8423611488     -0.8506009432 
  H42           1.6350138439      1.6553801865     -0.0685602180 
  H43           2.7172526361     -0.5872818488      0.2871571733 
  H44           2.4290327312     -0.9702831419     -1.4025450937 
  H45           4.7437939739     -0.1066368130     -1.0717281500 
  H46           4.1044205879      1.3667726434     -0.3486812982 
  H47           4.6740189246      1.7835990503     -2.7403501268 
  H48           3.6648214254      0.4255804663     -3.2362168595 
  H49           2.4324149299      2.5488523435     -3.5771930769 
  H50           2.6883056589      3.0021313639     -1.8928660948 
  H51           1.0543653892      0.6179022271     -2.8866749748 
  H52           0.4067521053      2.1090362310     -2.2053823359 
  H53          -0.1597190799     -0.6789562143     -2.6634058553 
  H54          -0.3446794844     -2.7301200922     -3.9661110042 
  H55          -0.5389657284     -4.9310048648     -2.7925870484 
  H56          -0.4705663763     -4.9901703462     -0.3245909769 
  H57           1.6997429723     -4.8665803944      3.6447716295 
  H58          -0.2889580260     -4.4806110160      5.0440010240 
  H59          -2.2144910351     -3.1822144641      4.1807394133 
  H60          -4.2731525821     -1.7152075610      1.5327260528 
  H61          -3.6976153966     -1.8058690200      3.2129352881 
  H62          -3.9113342420     -3.3177368512      2.2484683052 
  H63           3.5156680193     -4.3000701407      2.3619812943 
  H64           3.7192142499     -4.7973658686      0.6621197250 
  H65           2.7480872578     -5.8061998056      1.7727555224 
  N118          0.1869078494     -0.3334754120      4.5924391823 
  H119          0.4058488548     -1.3284091548      4.6329885408 
  H120         -0.7897473555     -0.1968911054      4.8552226967 
  C121          1.0627839059      0.4625164279      5.3865877365 
  C122          2.8062900338      2.0945357802      6.8296929757 
  C123          2.3298498399     -0.0060272598      5.7303203029 
  C124          0.6637778392      1.7485585246      5.7581571563 
  C125          1.5359979212      2.5564208845      6.4806099831 
  C126          3.1977077307      0.8131804971      6.4476405027 
  H127          2.6501301998     -0.9915848231      5.4041139675 
  H128         -0.3159340796      2.1086025821      5.4507604201 
  H129          1.2206245536      3.5570752070      6.7676372964 
  H130          4.1886815360      0.4450890644      6.7026735150 
  H131          3.4864408720      2.7319978967      7.3895233811 
  Br3          -2.3134499983      1.2063844576      3.3320732779 
   
 
  bond lengths (angstroms):
 
 P1      -Pd2     :   2.312862      P1      -C3      :   1.871375
 P1      -C4      :   1.865613      P1      -C5      :   1.846202
 Pd2     -C76     :   1.974667      Pd2     -N118    :   2.231531
 Pd2     -Br3     :   2.774116      C73     -C74     :   1.385230
 C73     -C78     :   1.386760      C73     -F79     :   1.350197
 C74     -C75     :   1.396370      C74     -H80     :   1.086324
 C75     -C76     :   1.396321      C75     -H14     :   1.086532
 C76     -C77     :   1.400824      C77     -C78     :   1.397237
 C77     -H82     :   1.087373      C78     -H83     :   1.085927
 C3      -C6      :   1.535996      C3      -C10     :   1.541429
 C3      -H31     :   1.099877      C4      -C11     :   1.541714
 C4      -C15     :   1.536735      C4      -H42     :   1.098979
 C5      -C16     :   1.407084      C5      -C20     :   1.415630
 C6      -C7      :   1.534025      C6      -H32     :   1.098516
 C6      -H33     :   1.095882      C7      -C8      :   1.528770
 C7      -H34     :   1.100328      C7      -H35     :   1.098096
 C8      -C9      :   1.529962      C8      -H36     :   1.101188
 C8      -H37     :   1.097537      C9      -C10     :   1.529536
 C9      -H38     :   1.098509      C9      -H39     :   1.097341
 C10     -H40     :   1.094276      C10     -H41     :   1.100469
 C11     -C12     :   1.529964      C11     -H43     :   1.092410
 C11     -H44     :   1.099024      C12     -C13     :   1.531258
 C12     -H45     :   1.097536      C12     -H46     :   1.098978
 C13     -C14     :   1.531450      C13     -H47     :   1.097699
 C13     -H48     :   1.100865      C14     -C15     :   1.535880
 C14     -H49     :   1.097861      C14     -H50     :   1.100288
 C15     -H51     :   1.096357      C15     -H52     :   1.095307
 C16     -C17     :   1.388172      C16     -H53     :   1.082506
 C17     -C18     :   1.390099      C17     -H54     :   1.087389
 C18     -C19     :   1.385717      C18     -H55     :   1.087418
 C19     -C20     :   1.404788      C19     -H56     :   1.086899
 C20     -C21     :   1.487339      C21     -C22     :   1.410322
 C21     -C26     :   1.399373      C22     -C23     :   1.399346
 C22     -O29     :   1.356272      C23     -C24     :   1.392570
 C23     -H57     :   1.084373      C24     -C25     :   1.391796
 C24     -H58     :   1.087524      C25     -C26     :   1.396505
 C25     -H59     :   1.083596      C26     -O27     :   1.367853
 O27     -C28     :   1.430717      C28     -H60     :   1.090120
 C28     -H61     :   1.092978      C28     -H62     :   1.096479
 O29     -C30     :   1.415217      C30     -H63     :   1.096579
 C30     -H64     :   1.091373      C30     -H65     :   1.098755
 N118    -H119    :   1.019545      N118    -H120    :   1.020571
 N118    -C121    :   1.425284      C121    -C123    :   1.393966
 C121    -C124    :   1.396844      C122    -C125    :   1.396008
 C122    -C126    :   1.393213      C122    -H131    :   1.087370
 C123    -C126    :   1.392418      C123    -H127    :   1.086422
 C124    -C125    :   1.391168      C124    -H128    :   1.088099
 C125    -H129    :   1.087729      C126    -H130    :   1.087457
 
  bond angles:
 
 C3      -P1      -Pd2     : 107.445743  C4      -P1      -Pd2     : 114.348412
 C4      -P1      -C3      : 108.626579  C5      -P1      -Pd2     : 117.220783
 C5      -P1      -C3      : 103.644630  C5      -P1      -C4      : 104.824283
 C76     -Pd2     -P1      :  92.960167  N118    -Pd2     -P1      : 168.892935
 N118    -Pd2     -C76     :  86.186331  Br3     -Pd2     -P1      : 107.913313
 Br3     -Pd2     -C76     : 144.297166  Br3     -Pd2     -N118    :  78.520833
 C78     -C73     -C74     : 121.848108  F79     -C73     -C74     : 119.086814
 F79     -C73     -C78     : 119.064648  C75     -C74     -C73     : 118.881843
 H80     -C74     -C73     : 119.621671  H80     -C74     -C75     : 121.494189
 C76     -C75     -C74     : 120.638783  H14     -C75     -C74     : 118.953659
 H14     -C75     -C76     : 120.405405  C75     -C76     -Pd2     : 122.343370
 C77     -C76     -Pd2     : 118.343016  C77     -C76     -C75     : 119.285412
 C78     -C77     -C76     : 120.439457  H82     -C77     -C76     : 120.193059
 H82     -C77     -C78     : 119.367163  C77     -C78     -C73     : 118.896849
 H83     -C78     -C73     : 119.214681  H83     -C78     -C77     : 121.888326
 C6      -C3      -P1      : 118.443695  C10     -C3      -P1      : 109.048833
 C10     -C3      -C6      : 111.059577  H31     -C3      -P1      : 101.341471
 H31     -C3      -C6      : 107.184792  H31     -C3      -C10     : 109.026363
 C11     -C4      -P1      : 109.445205  C15     -C4      -P1      : 119.780591
 C15     -C4      -C11     : 110.256857  H42     -C4      -P1      : 101.924264
 H42     -C4      -C11     : 107.142059  H42     -C4      -C15     : 107.305287
 C16     -C5      -P1      : 116.183195  C20     -C5      -P1      : 126.036098
[...]
    H82      X    -0.40398   0.00087  -0.00046
    H82      Y    -0.84241   0.00181  -0.00084
    H82      Z    -0.15595   0.00042  -0.00004
    H83      X     0.06610   0.00021  -0.00026
    H83      Y    -0.08915  -0.00019   0.00017
    H83      Z    -0.00697  -0.00001   0.00002
    H14      X     0.00229   0.00033   0.00012
    H14      Y    -0.00345  -0.00056  -0.00009
    H14      Z    -0.00026   0.00021  -0.00003
    C3       X     0.00000  -0.00001  -0.00001
    C3       Y     0.00003  -0.00004   0.00003
    C3       Z     0.00002  -0.00007   0.00005
    C4       X     0.00000  -0.00003  -0.00000
    C4       Y     0.00000  -0.00000   0.00001
    C4       Z     0.00004  -0.00005   0.00001
    C5       X     0.00003  -0.00002   0.00001
    C5       Y    -0.00003   0.00004  -0.00002
    C5       Z    -0.00000  -0.00007   0.00002
    C6       X     0.00001  -0.00004   0.00000
    C6       Y    -0.00004   0.00005  -0.00004
    C6       Z    -0.00001   0.00002  -0.00002
    C7       X    -0.00002   0.00002  -0.00001
    C7       Y    -0.00001   0.00000  -0.00000
    C7       Z     0.00002  -0.00004   0.00000
    C8       X    -0.00001   0.00000  -0.00001
    C8       Y    -0.00000   0.00000  -0.00000
    C8       Z     0.00000  -0.00001  -0.00001
    C9       X    -0.00001   0.00004   0.00002
    C9       Y    -0.00001   0.00003   0.00002
    C9       Z     0.00001  -0.00003  -0.00001
    C10      X    -0.00001  -0.00000  -0.00001
    C10      Y    -0.00001   0.00001   0.00000
    C10      Z     0.00000  -0.00003  -0.00005
    C11      X    -0.00005   0.00000   0.00000
    C11      Y     0.00001   0.00002  -0.00002
    C11      Z    -0.00012   0.00002  -0.00001
    C12      X     0.00002   0.00000   0.00000
    C12      Y    -0.00002   0.00001  -0.00000
    C12      Z     0.00002   0.00001  -0.00000
    C13      X    -0.00000   0.00000   0.00000
    C13      Y    -0.00000   0.00000  -0.00000
    C13      Z    -0.00002   0.00001  -0.00001
    C14      X    -0.00001  -0.00000   0.00000
    C14      Y     0.00001  -0.00000  -0.00000
    C14      Z    -0.00002   0.00000  -0.00000
    C15      X    -0.00003   0.00004  -0.00000
    C15      Y    -0.00000   0.00000  -0.00001
    C15      Z    -0.00003   0.00002  -0.00001
    C16      X    -0.00002  -0.00001   0.00001
    C16      Y    -0.00014  -0.00004   0.00002
    C16      Z     0.00005   0.00001  -0.00001
    C17      X    -0.00000   0.00000   0.00000
    C17      Y     0.00003  -0.00001   0.00001
    C17      Z     0.00004   0.00000  -0.00001
    C18      X    -0.00001   0.00000  -0.00000
    C18      Y     0.00003  -0.00001   0.00001
    C18      Z     0.00003  -0.00002   0.00003
    C19      X    -0.00002  -0.00001   0.00002
    C19      Y    -0.00023   0.00003  -0.00002
    C19      Z     0.00009   0.00002  -0.00004
    C20      X     0.00000   0.00003  -0.00004
    C20      Y    -0.00001   0.00001  -0.00001
    C20      Z     0.00009  -0.00008   0.00009
    C21      X    -0.00025   0.00010  -0.00014
    C21      Y     0.00013  -0.00006   0.00007
    C21      Z    -0.00003   0.00004  -0.00006
    C22      X     0.00158   0.00017  -0.00021
    C22      Y    -0.00003   0.00001  -0.00002
    C22      Z    -0.00051  -0.00049   0.00059
    C23      X    -0.00029   0.00031  -0.00045
    C23      Y     0.00012   0.00012  -0.00017
    C23      Z     0.00013   0.00023  -0.00027
    C24      X     0.00010  -0.00061   0.00078
    C24      Y     0.00001   0.00003  -0.00004
    C24      Z    -0.00013   0.00012  -0.00008
    C25      X    -0.00063   0.00007   0.00004
    C25      Y     0.00020  -0.00010   0.00009
    C25      Z     0.00023   0.00016  -0.00033
    C26      X     0.00013  -0.00006   0.00016
    C26      Y    -0.00007   0.00008  -0.00016
    C26      Z    -0.00004  -0.00013   0.00029
    O27      X    -0.00006   0.00009  -0.00020
    O27      Y     0.00004  -0.00006   0.00014
    O27      Z    -0.00003   0.00009  -0.00018
    C28      X     0.00006  -0.00007   0.00017
    C28      Y    -0.00004   0.00004  -0.00005
    C28      Z     0.00009   0.00001  -0.00002
    O29      X    -0.00015  -0.00017   0.00018
    O29      Y     0.00060   0.00004  -0.00005
    O29      Z     0.00017   0.00007  -0.00008
    C30      X    -0.00028   0.00010  -0.00008
    C30      Y     0.00114  -0.00002   0.00006
    C30      Z    -0.00075   0.00004  -0.00001
    H31      X     0.00001   0.00020   0.00002
    H31      Y    -0.00015   0.00008  -0.00032
    H31      Z     0.00010  -0.00066  -0.00044
    H32      X     0.00005   0.00000  -0.00001
    H32      Y     0.00005  -0.00004  -0.00002
    H32      Z    -0.00009   0.00011   0.00010
    H33      X     0.00001   0.00004   0.00004
    H33      Y     0.00032  -0.00020   0.00035
    H33      Z     0.00008  -0.00005   0.00014
    H34      X     0.00016  -0.00022   0.00006
    H34      Y     0.00011  -0.00015   0.00001
    H34      Z    -0.00016   0.00019  -0.00008
    H35      X     0.00005  -0.00010   0.00006
    H35      Y    -0.00001   0.00005   0.00002
    H35      Z     0.00005   0.00004   0.00012
    H36      X     0.00005  -0.00008  -0.00002
    H36      Y     0.00006  -0.00009  -0.00001
    H36      Z    -0.00007   0.00018   0.00010
    H37      X     0.00008  -0.00002   0.00007
    H37      Y    -0.00003   0.00003  -0.00000
    H37      Z     0.00001  -0.00002   0.00002
    H38      X     0.00010  -0.00049  -0.00029
    H38      Y     0.00006  -0.00018  -0.00009
    H38      Z    -0.00009   0.00025   0.00006
    H39      X     0.00000  -0.00004  -0.00003
    H39      Y     0.00005  -0.00008   0.00001
    H39      Z     0.00001  -0.00000   0.00001
    H40      X     0.00000   0.00034   0.00028
    H40      Y     0.00002   0.00016   0.00024
    H40      Z     0.00013  -0.00006   0.00017
    H41      X     0.00013  -0.00023  -0.00012
    H41      Y     0.00015  -0.00025  -0.00010
    H41      Z    -0.00016   0.00042   0.00027
    H42      X     0.00004  -0.00002   0.00011
    H42      Y     0.00002  -0.00017   0.00017
    H42      Z    -0.00009   0.00012  -0.00002
    H43      X     0.00063   0.00002  -0.00002
    H43      Y     0.00045   0.00002   0.00002
    H43      Z     0.00055   0.00013  -0.00015
    H44      X     0.00001  -0.00002  -0.00001
    H44      Y     0.00034  -0.00019   0.00013
    H44      Z     0.00030  -0.00032   0.00024
    H45      X     0.00004   0.00002  -0.00005
    H45      Y     0.00002   0.00001   0.00001
    H45      Z    -0.00003   0.00001   0.00000
    H46      X    -0.00002  -0.00004   0.00004
    H46      Y     0.00006  -0.00017   0.00009
    H46      Z     0.00001  -0.00010   0.00006
    H47      X    -0.00013   0.00003  -0.00001
    H47      Y    -0.00017   0.00003  -0.00000
    H47      Z     0.00009  -0.00001   0.00000
    H48      X     0.00003  -0.00002   0.00001
    H48      Y     0.00013  -0.00007   0.00004
    H48      Z     0.00018  -0.00011   0.00007
    H49      X     0.00008   0.00000  -0.00000
    H49      Y    -0.00015   0.00009  -0.00002
    H49      Z     0.00024  -0.00013   0.00002
    H50      X     0.00001   0.00000   0.00002
    H50      Y     0.00004  -0.00004   0.00005
    H50      Z     0.00001  -0.00001   0.00004
    H51      X     0.00001  -0.00004   0.00001
    H51      Y     0.00020  -0.00015   0.00011
    H51      Z     0.00026  -0.00023   0.00018
    H52      X     0.00042  -0.00022  -0.00005
    H52      Y    -0.00030   0.00015   0.00004
    H52      Z     0.00002  -0.00001  -0.00003
    H53      X     0.00006   0.00001   0.00001
    H53      Y     0.00168  -0.00000   0.00010
    H53      Z    -0.00114   0.00013  -0.00020
    H54      X     0.00008   0.00004  -0.00001
    H54      Y     0.00003  -0.00006   0.00004
    H54      Z    -0.00051  -0.00005  -0.00004
    H55      X     0.00003   0.00000   0.00001
    H55      Y    -0.00039   0.00010  -0.00014
    H55      Z    -0.00022   0.00009  -0.00012
    H56      X     0.00031  -0.00000   0.00002
    H56      Y     0.00266  -0.00039   0.00038
    H56      Z    -0.00143   0.00008  -0.00002
    H57      X     0.00117  -0.00007  -0.00017
    H57      Y    -0.00108  -0.00145   0.00231
    H57      Z     0.00111   0.00014  -0.00044
    H58      X    -0.00069   0.00092  -0.00059
    H58      Y    -0.00023   0.00037  -0.00047
    H58      Z     0.00180  -0.00191   0.00146
    H59      X     0.00643  -0.00002  -0.00173
    H59      Y    -0.00225  -0.00013   0.00022
    H59      Z    -0.00214   0.00007   0.00020
    H60      X    -0.00048   0.00023  -0.00035
    H60      Y     0.00032  -0.00011   0.00022
    H60      Z    -0.00100   0.00046  -0.00049
    H61      X    -0.00008  -0.00004  -0.00050
    H61      Y    -0.00019  -0.00053   0.00002
    H61      Z    -0.00010  -0.00052   0.00029
    H62      X     0.00009   0.00010  -0.00020
    H62      Y     0.00028   0.00020  -0.00007
    H62      Z    -0.00003  -0.00008   0.00031
    H63      X     0.00117  -0.00002  -0.00016
    H63      Y     0.00119  -0.00009  -0.00018
    H63      Z     0.00272  -0.00046   0.00015
    H64      X     0.00263  -0.00054   0.00054
    H64      Y    -0.00107   0.00024  -0.00026
    H64      Z    -0.00137   0.00043  -0.00048
    H65      X    -0.00291  -0.00004  -0.00003
    H65      Y    -0.00937  -0.00008  -0.00006
    H65      Z     0.00560  -0.00013   0.00016
    N118     X    -0.00001  -0.04595  -0.04473
    N118     Y    -0.00011  -0.02943   0.06296
    N118     Z     0.00001   0.01574   0.01490
    H119     X    -0.00109  -0.08527   0.09810
    H119     Y     0.00173   0.58500  -0.75348
    H119     Z     0.00049   0.01313   0.00167
    H120     X     0.00086   0.70505   0.52308
    H120     Y    -0.00055  -0.17860  -0.11636
    H120     Z    -0.00060  -0.26205  -0.20426
    C121     X    -0.00000   0.00077  -0.00014
    C121     Y    -0.00001  -0.00009   0.00003
    C121     Z    -0.00001   0.00094  -0.00017
    C122     X     0.00003   0.00015   0.00005
    C122     Y     0.00001   0.00002  -0.00008
    C122     Z     0.00001   0.00005  -0.00001
    C123     X    -0.00003   0.00046   0.00019
    C123     Y     0.00016   0.00051  -0.00040
    C123     Z     0.00003   0.00046   0.00002
    C124     X    -0.00002   0.00048   0.00006
    C124     Y     0.00002   0.00043  -0.00032
    C124     Z    -0.00000   0.00031  -0.00020
    C125     X    -0.00001  -0.00012  -0.00011
    C125     Y     0.00003  -0.00017   0.00001
    C125     Z     0.00000  -0.00022  -0.00007
    C126     X     0.00001  -0.00016   0.00006
    C126     Y    -0.00002   0.00007   0.00007
    C126     Z    -0.00000  -0.00014   0.00010
    H127     X     0.00037  -0.00082   0.00097
    H127     Y    -0.00158  -0.00271   0.00233
    H127     Z    -0.00021  -0.00049   0.00070
    H128     X     0.00027  -0.00136  -0.00090
    H128     Y    -0.00017  -0.00046  -0.00055
    H128     Z     0.00006   0.00028  -0.00001
    H129     X     0.00005  -0.00023   0.00012
    H129     Y    -0.00032   0.00166  -0.00016
    H129     Z    -0.00009   0.00065  -0.00002
    H130     X    -0.00007   0.00181  -0.00007
    H130     Y     0.00006  -0.00074   0.00000
    H130     Z     0.00002   0.00044  -0.00006
    H131     X    -0.00027  -0.00020   0.00003
    H131     Y    -0.00022  -0.00019  -0.00001
    H131     Z    -0.00015   0.00035  -0.00001
    Br3      X     0.00000  -0.00002  -0.00000
    Br3      Y     0.00000  -0.00001   0.00000
    Br3      Z     0.00000   0.00004   0.00003
  
  Number of imaginary frequencies:   1
   
  Writing vibrational animation data to L_Ar_Br_N_N_trans_PL145.vib
  Writing IR vibrational spectrum data to L_Ar_Br_N_N_trans_PL145_vib.spm
  rotational symmetry number:  1

  rotational temperatures (K):      0.003577      0.002946      0.002677
   
  The Quasi-Harmonic approximation will be applied to compute
  vibrational constributions to thermodynamic properties.
  Frequencies will be adjusted to a minimum value of  100.00 cm^-1.

    1 vibrational frequencies below    0.0 cm-1 not included in zero-point
  energy or thermochemical analysis.  Set freqcut to change the frequency
  cutoff value.

  vibrational temperatures:
       mode:      2        3        4        5        6        7
  temp. (K):   143.88   143.88   143.88   143.88   143.88   143.88
   
       mode:      8        9       10       11       12       13
  temp. (K):   143.88   143.88   143.88   143.88   143.88   143.88
   
       mode:     14       15       16       17       18       19
  temp. (K):   143.88   143.88   143.88   146.27   147.83   154.76
   
       mode:     20       21       22       23       24       25
  temp. (K):   164.20   173.83   175.50   186.32   208.10   229.18
   
       mode:     26       27       28       29       30       31
  temp. (K):   237.90   243.97   249.25   259.69   277.15   286.47
   
       mode:     32       33       34       35       36       37
  temp. (K):   289.51   298.69   311.37   314.06   329.67   357.04
   
       mode:     38       39       40       41       42       43
  temp. (K):   364.95   388.63   389.30   411.74   416.60   441.21
   
       mode:     44       45       46       47       48       49
  temp. (K):   447.60   471.77   478.11   486.10   493.00   514.50
   
       mode:     50       51       52       53       54       55
  temp. (K):   541.00   557.04   560.41   583.72   591.69   595.99
   
       mode:     56       57       58       59       60       61
  temp. (K):   602.31   620.10   640.48   642.60   647.60   686.21
   
       mode:     62       63       64       65       66       67
  temp. (K):   696.72   728.26   742.06   755.39   763.57   765.98
   
       mode:     68       69       70       71       72       73
  temp. (K):   774.04   785.96   787.57   829.84   839.97   872.20
   
       mode:     74       75       76       77       78       79
  temp. (K):   896.86   904.70   914.01   916.84   954.62   972.28
   
       mode:     80       81       82       83       84       85
  temp. (K):  1024.24  1034.96  1042.14  1056.70  1075.19  1078.88
   
       mode:     86       87       88       89       90       91
  temp. (K):  1102.89  1115.55  1127.65  1136.72  1158.30  1166.70
   
       mode:     92       93       94       95       96       97
  temp. (K):  1167.63  1187.20  1196.55  1202.35  1204.83  1213.04
   
       mode:     98       99      100      101      102      103
  temp. (K):  1214.69  1218.58  1231.11  1256.01  1259.49  1296.81
   
       mode:    104      105      106      107      108      109
  temp. (K):  1315.31  1316.51  1319.94  1323.57  1329.72  1352.31
   
       mode:    110      111      112      113      114      115
  temp. (K):  1356.87  1359.57  1376.93  1405.52  1415.61  1417.28
   
       mode:    116      117      118      119      120      121
  temp. (K):  1419.32  1448.74  1458.82  1462.77  1471.04  1478.89
   
       mode:    122      123      124      125      126      127
  temp. (K):  1483.44  1487.06  1496.53  1521.81  1529.37  1531.71
   
       mode:    128      129      130      131      132      133
  temp. (K):  1540.69  1541.65  1558.15  1562.18  1564.50  1592.09
   
       mode:    134      135      136      137      138      139
  temp. (K):  1595.46  1596.58  1601.58  1604.57  1610.58  1623.45
   
       mode:    140      141      142      143      144      145
  temp. (K):  1640.70  1657.20  1662.52  1669.16  1684.93  1688.16
   
       mode:    146      147      148      149      150      151
  temp. (K):  1700.84  1704.34  1723.78  1731.87  1741.23  1743.81
   
       mode:    152      153      154      155      156      157
  temp. (K):  1749.55  1756.90  1759.33  1761.12  1776.48  1810.26
   
       mode:    158      159      160      161      162      163
  temp. (K):  1816.00  1842.94  1846.70  1850.44  1866.51  1872.28
   
       mode:    164      165      166      167      168      169
  temp. (K):  1879.75  1886.69  1893.43  1899.80  1902.67  1908.23
   
       mode:    170      171      172      173      174      175
  temp. (K):  1912.11  1929.03  1937.83  1938.29  1942.11  1943.92
   
       mode:    176      177      178      179      180      181
  temp. (K):  1971.13  1977.17  1984.06  1986.33  1989.80  2000.00
   
       mode:    182      183      184      185      186      187
  temp. (K):  2006.69  2007.92  2014.07  2015.84  2018.06  2020.67
   
       mode:    188      189      190      191      192      193
  temp. (K):  2023.21  2059.62  2120.39  2131.70  2150.61  2162.44
   
       mode:    194      195      196      197      198      199
  temp. (K):  2170.15  2172.29  2173.83  2174.77  2175.64  2178.85
   
       mode:    200      201      202      203      204      205
  temp. (K):  2182.15  2186.33  2189.59  2189.65  2190.42  2197.27
   
       mode:    206      207      208      209      210      211
  temp. (K):  2199.81  2203.71  2204.71  2208.79  2212.94  2222.37
   
       mode:    212      213      214      215      216      217
  temp. (K):  2233.33  2338.18  2366.62  2372.48  2377.16  2383.32
   
       mode:    218      219      220      221      222      223
  temp. (K):  2387.75  2401.28  2414.54  2430.75  4348.83  4355.62
   
       mode:    224      225      226      227      228      229
  temp. (K):  4356.80  4362.25  4365.45  4372.62  4374.03  4377.36
   
       mode:    230      231      232      233      234      235
  temp. (K):  4382.18  4398.87  4403.79  4407.98  4416.77  4434.63
   
       mode:    236      237      238      239      240      241
  temp. (K):  4435.12  4440.15  4440.61  4442.74  4453.85  4455.51
   
       mode:    242      243      244      245      246      247
  temp. (K):  4461.11  4484.52  4491.41  4501.51  4535.56  4557.29
   
       mode:    248      249      250      251      252      253
  temp. (K):  4560.36  4574.17  4577.38  4588.38  4588.67  4589.91
   
       mode:    254      255      256      257      258      259
  temp. (K):  4593.00  4601.40  4609.40  4610.92  4613.65  4623.46
   
       mode:    260      261      262      263      264      265
  temp. (K):  4625.70  4628.29  4649.86  4661.57  4682.49  4693.81
   
       mode:    266      267
  temp. (K):  4967.51  5092.69
   
   
  Thermodynamic properties calculated assuming an ideal gas

  In the table below, the units for temperature
  are kelvins, the units for U, H, and G are
  kcal/mol and the units for Cv and S are cal/(mol K)

  The zero point energy (ZPE):    485.384 kcal/mol
  is not included in U, H, or G in the table below
  
 
  =============================================================================
  Thermodynamic properties for P = 1.00E+00 atm, calculated at   1 temperatures


  T =   298.15 K, P = 1.00E+00 atm
   
                  U         Cv          S          H          G        ln(Q)
              =========  =========  =========  =========  =========  =========
  trans.          0.889      2.981     45.853      1.481    -12.190   20.57410
  rot.            0.889      2.981     38.374      0.889    -10.553   17.81073
  vib.           24.777    163.417    151.780     24.777    -20.476   34.56005
  elec.           0.000      0.000      0.000      0.000      0.000    0.00000
  ----------------------------------------------------------------------------
  total          26.554    169.379    236.007     27.147    -43.219   72.94489
   
   Total internal energy, Utot(SCFE + ZPE + U):   -2260.843417 hartrees
   Total enthalpy, Htot (Utot + nRT), with n=1:   -2260.842473 hartrees
    Total Gibbs free energy, Gtot (Htot - T*S):   -2260.954608 hartrees
   
  end of program freq
   
 Time(freq)  user:       1.128  user+sys:       1.128  wallclock:       0.362
  
  start of program post
  
  Writing input files for PBF
  end of program post
   
 Time(post)  user:       0.411  user+sys:       0.411  wallclock:       0.135

 Total cpu seconds     user:  154352.074   user+sys:  154352.074
  
 Total elapsed time:    18246 seconds

Job L_Ar_Br_N_N_trans_PL145 completed on bp1-compute122 at Tue Dec  2 19:02:08 2025
