Job L_Ar_OtBu_N_Ar_trans_PL145 started on bp1-compute194 at Mon Nov 24 20:14:00 2025
jobid: bp1-compute194-0-6924bc74

  +--------------------------------------------------------------------+
  |  Jaguar version 12.5, release 138                                  |
  |                                                                    |
  |  Copyright Schrodinger, Inc.                                       |
  |  All Rights Reserved.                                              |
  |                                                                    |
  |  The following have contributed to Jaguar (listed alphabetically): |
  |  Ty Balduf, Mike Beachy, Chandler Bennett, Art Bochevarov,         |
  |  Dale Braden, Yixiang Cao, Alan Chien, Chris Cortis,               |
  |  Rich Friesner, Jim Furness, Bill Goddard, Hod Greeley,            |
  |  Tom Hughes, Leif Jacobson, Jean-Marc Langlois, Daniel Levine,     |
  |  Rob Murphy, Dean Philipp, Tom Pollard, Murco Ringnalda,           |
  |  Daniel Mainz, Pablo Videla, Mark Watson, Haoyu Yu.                |
  |                                                                    |
  |  Use of this program should be acknowledged in publications as:    |
  |                                                                    |
  |  Jaguar, version 12.5, Schrodinger, Inc., New York, NY, 2024.      |
  |                                                                    |
  |  A. D. Bochevarov, E. Harder, T. F. Hughes, J. R. Greenwood,       |
  |  D. A. Braden, D. M. Philipp, D. Rinaldo, M. D. Halls,             |
  |  J. Zhang, R. A. Friesner, "Jaguar: A High-Performance Quantum     |
  |  Chemistry Software Program with Strengths in Life and Materials   |
  |  Sciences", Int. J. Quantum Chem., 2013, 113(18), 2110-2142.       |
  +--------------------------------------------------------------------+
  
  start of program pre
  
  Job name: L_Ar_OtBu_N_Ar_trans_PL145
  Executables used: /software/local/apps/schrodinger2024-3/jaguar-v12.5/bin/Linux-x86_64
  Temporary files : /tmp/ar21627/L_Ar_OtBu_N_Ar_trans_PL145#bp1-compute194-0-6924bc74
  Basis file : using default basis file from /software/local/apps/schrodinger2024-3
  Maestro file (input):  L_Ar_OtBu_N_Ar_trans_PL145.mae
  Maestro file (output): L_Ar_OtBu_N_Ar_trans_PL145.01.mae
  
 Contents of input file: &gen and (if present) &atomic sections only
 ----------------Contents start----------------
&gen
dftname=b3pw91-d3
basis=6-31G*
numd=5
ip11=2
iaccg=3
isolv=2
igeopt=1
solvent=benzene
ifreq=1
&
&atomic
atom basis
Pd2 lacv3p*
&
 -----------------Contents end-----------------
 
  PS calculation requested. Using PS version of 6-31g*
  basis set:               non_standard                    
  net molecular charge:    0
  multiplicity:            1
  
  Using up to  18 threads per process
  
  This run will use ECP on 1 atom
  number of basis functions....          817
  
 Input geometry:
                                   angstroms
  atom               x                 y                 z
  P1            0.0000000000      0.0000000000      0.0000000000 
  Pd2           0.0000000000      0.0000000000      2.3801402311 
  C73           0.9316466740      0.1676296947      7.0758587014 
  C74           0.0512262433     -0.8093741725      6.6343978729 
  C75          -0.2772889276     -0.8530218213      5.2761702248 
  C76           0.2799168538      0.0581970799      4.3771031329 
  C77           1.1268113390      1.0598929724      4.8631297507 
  C78           1.4720682701      1.1152150739      6.2156665111 
  F79           1.2657037043      0.2080655232      8.3876333827 
  H80          -0.3709623044     -1.5124131028      7.3485764338 
  H81          -0.9688023583     -1.6143293035      4.9247300789 
  H82           1.5474722402      1.7991406116      4.1832095647 
  H83           2.1397107453      1.8790229264      6.6075319883 
  C3           -1.6153352116      0.2528229888     -0.8860740561 
  C4            1.3240772186      1.0165440323     -0.8203325035 
  C5            0.4974835651     -1.7087644581     -0.4224243239 
  C6           -1.5570217301      0.3375513843     -2.4162055205 
  C7           -2.9707534164      0.4253813562     -3.0064730690 
  C8           -3.7573940440      1.5916841256     -2.4038571165 
  C9           -3.8020461133      1.4999931268     -0.8765018393 
  C10          -2.3942626506      1.4304939427     -0.2793586251 
  C11           1.0035603205      2.5152981434     -0.9037929394 
  C12           2.1700110597      3.2827786202     -1.5374840113 
  C13           3.4771073451      3.0465800476     -0.7768408468 
  C14           3.7980001311      1.5525855864     -0.6942879785 
  C15           2.6405137819      0.7782254183     -0.0588923948 
  C16           0.9060075554     -2.1218312574     -1.6981018816 
  C17           1.2739491056     -3.4418060136     -1.9371609150 
  C18           1.2357851349     -4.3680538018     -0.8957853919 
  C19           0.8431906368     -3.9639917266      0.3753059169 
  C20           0.4814961226     -2.6342380780      0.6288180130 
  C21           0.0560694319     -2.3010231985      2.0371243481 
  C22           0.9614612201     -2.6719028228      3.0944037568 
  C23           0.4937585664     -3.0637322408      4.3446608554 
  C24          -0.8768002001     -3.0570628164      4.5880592274 
  C25          -1.8039652984     -2.6869009045      3.6219286525 
  C26          -1.3491699825     -2.3410410812      2.3460444200 
  O27          -2.1657333760     -2.1460024659      1.2910665581 
  C28          -3.5614175608     -2.0060099764      1.5260051845 
  O29           2.2601143230     -2.6414208167      2.7510210979 
  C30           3.2314273566     -3.0114923377      3.7238165984 
  H31          -2.1518871266     -0.6683153255     -0.6163469028 
  H32          -0.9852615519      1.2259353715     -2.7185012267 
  H33          -1.0398638694     -0.5337730115     -2.8315493311 
  H34          -3.5014538670     -0.5179680229     -2.8069198529 
  H35          -2.9114867788      0.5275741749     -4.0980195641 
  H36          -3.2735905341      2.5382940314     -2.6900419226 
  H37          -4.7742863042      1.6208532167     -2.8177943873 
  H38          -4.3626587297      0.5982844437     -0.5833890958 
  H39          -4.3439639239      2.3552818397     -0.4543605281 
  H40          -2.4334030962      1.3302437169      0.8112234651 
  H41          -1.8661450199      2.3727612619     -0.4740042353 
  H42           1.4389258847      0.6328515061     -1.8457509083 
  H43           0.0932572768      2.6835433828     -1.4898991962 
  H44           0.8088151453      2.8994284097      0.1042278301 
  H45           1.9313743419      4.3540388225     -1.5668091853 
  H46           2.2953873911      2.9593952364     -2.5835603771 
  H47           4.3019916277      3.5897762190     -1.2555970088 
  H48           3.3778854754      3.4496349697      0.2418544978 
  H49           4.7173203913      1.3854718968     -0.1182325688 
  H50           3.9854463442      1.1612370780     -1.7063287791 
  H51           2.5042029243      1.1095012340      0.9810695246 
  H52           2.8691890398     -0.2942362807     -0.0225056387 
  H53           0.9574339832     -1.4049483600     -2.5127542865 
  H54           1.5942912232     -3.7455543275     -2.9311924356 
  H55           1.5182393528     -5.4033885223     -1.0721527295 
  H56           0.8198589447     -4.6833254829      1.1903715790 
  H57           1.1773149269     -3.3151956801      5.1459629491 
  H58          -1.2328345172     -3.3348324640      5.5767379334 
  H59          -2.8613809447     -2.6873760357      3.8583339805 
  H60          -4.0052574933     -1.7980484607      0.5511245033 
  H61          -3.7615824256     -1.1704470092      2.2075613821 
  H62          -3.9952287399     -2.9304271977      1.9274489498 
  H63           3.1776667780     -2.3544761575      4.5993953183 
  H64           4.1997478244     -2.8965117433      3.2335054466 
  H65           3.1008790614     -4.0560687701      4.0344881347 
  N118          2.1335984059     -0.2235249582      2.4192772644 
  H119          2.2148472743     -1.2290647657      2.5859431431 
  H120          2.3837221089     -0.0876460259      1.4448251761 
  C121          3.0537526650      0.4866791738      3.2542914860 
  C122          4.8059758884      1.8767239914      4.9225611841 
  C123          3.6417004425     -0.1596414256      4.3399170958 
  C124          3.3429876392      1.8264486080      2.9982219869 
  C125          4.2230833974      2.5158674245      3.8282209376 
  C126          4.5083686870      0.5384459123      5.1757326684 
  H127          3.3867428563     -1.1953738371      4.5462586992 
  H128          2.8516776336      2.3353535579      2.1730270047 
  H129          4.4420949604      3.5623749376      3.6268222300 
  H130          4.9467357919      0.0341824753      6.0339592902 
  H131          5.4812580558      2.4211452227      5.5787851451 
  O2           -2.0230024262      0.0158425168      2.6176673880 
  C104         -2.9196134063      0.4044255588      3.6286812659 
  C105         -2.8883488702     -0.5290699995      4.8501281447 
  C106         -2.6925810264      1.8546505308      4.0784920390 
  C107         -4.3168167993      0.3019493611      2.9876634248 
  H108         -1.9420495359     -0.4396008625      5.3852563965 
  H109         -3.7025143735     -0.2914174195      5.5484407348 
  H110         -3.0017770252     -1.5701165041      4.5281315530 
  H111         -4.4108115775      1.0224439415      2.1694847523 
  H112         -4.4688530439     -0.7031522756      2.5784803033 
  H113         -5.1100313299      0.5079972751      3.7182102900 
  H114         -3.4745848264      2.1867532918      4.7753212137 
  H115         -1.7253480427      1.9469981178      4.5780202281 
  H116         -2.6972495802      2.5217526921      3.2080499835 
   
  principal moments of inertia:
        amu*angstrom^2:              6170.11227              8296.24914              9658.77801
                g*cm^2:          1.02457112E-36          1.37762441E-36          1.60387762E-36
   
  rotational constants:
               cm^(-1):      0.00273214      0.00203196      0.00174532
                   GHz:      0.08190759      0.06091657      0.05232329
   
  Molecular weight:     777.29 amu
   
  Stoichiometry: PdC42PNH55O3F
  Molecular Point Group: C1      
  Point Group used: C1
  
 
Number of optimization coordinates:   354
Number of independent coordinates:    354
Number of non-redundant coordinates:  306
Number of frozen coordinates:           0
Number of harmonic constraints:         0
 
Number of geometric degrees of freedom:   306
Maximum geometric degrees of freedom:     306
 " " " " " excluding dummy atoms:         306
 
 
  bond lengths (angstroms):
 
 P1      -Pd2     :   2.380140      P1      -C3      :   1.859665
 P1      -C4      :   1.859970      P1      -C5      :   1.829155
 Pd2     -C76     :   2.017325      Pd2     -N118    :   2.145632
 Pd2     -O2      :   2.036961      C73     -C74     :   1.387287
 C73     -C78     :   1.389210      C73     -F79     :   1.354246
 C74     -C75     :   1.398074      C74     -H80     :   1.087455
 C75     -C76     :   1.396109      C75     -H81     :   1.086872
 C76     -C77     :   1.398873      C77     -C78     :   1.397003
 C77     -H82     :   1.088914      C78     -H83     :   1.087524
 C3      -C6      :   1.533585      C3      -C10     :   1.536796
 C3      -H31     :   1.099607      C4      -C11     :   1.534914
 C4      -C15     :   1.539348      C4      -H42     :   1.100860
 C5      -C16     :   1.401738      C5      -C20     :   1.400667
 C6      -C7      :   1.534525      C6      -H32     :   1.098871
 C6      -H33     :   1.095066      C7      -C8      :   1.530429
 C7      -H34     :   1.100624      C7      -H35     :   1.097921
 C8      -C9      :   1.530756      C8      -H36     :   1.100926
 C8      -H37     :   1.098301      C9      -C10     :   1.530772
 C9      -H38     :   1.101490      C9      -H39     :   1.096995
 C10     -H40     :   1.095879      C10     -H41     :   1.097571
 C11     -C12     :   1.533362      C11     -H43     :   1.095664
 C11     -H44     :   1.096170      C12     -C13     :   1.530643
 C12     -H45     :   1.097910      C12     -H46     :   1.102076
 C13     -C14     :   1.530296      C13     -H47     :   1.097590
 C13     -H48     :   1.100017      C14     -C15     :   1.530731
 C14     -H49     :   1.097687      C14     -H50     :   1.101143
 C15     -H51     :   1.099930      C15     -H52     :   1.097174
 C16     -C17     :   1.390994      C16     -H53     :   1.086381
 C17     -C18     :   1.394222      C17     -H54     :   1.087649
 C18     -C19     :   1.390349      C18     -H55     :   1.087568
 C19     -C20     :   1.401191      C19     -H56     :   1.087344
 C20     -C21     :   1.508425      C21     -C22     :   1.440530
 C21     -C26     :   1.439351      C22     -C23     :   1.391193
 C22     -O29     :   1.343630      C23     -C24     :   1.392020
 C23     -H57     :   1.082852      C24     -C25     :   1.389267
 C24     -H58     :   1.086923      C25     -C26     :   1.397977
 C25     -H59     :   1.083520      C26     -O27     :   1.348256
 O27     -C28     :   1.422227      C28     -H60     :   1.091162
 C28     -H61     :   1.096700      C28     -H62     :   1.097222
 O29     -C30     :   1.423634      C30     -H63     :   1.095992
 C30     -H64     :   1.091453      C30     -H65     :   1.097588
 N118    -H119    :   1.022492      N118    -H120    :   1.015176
 N118    -C121    :   1.431196      C121    -C123    :   1.393555
 C121    -C124    :   1.394350      C122    -C125    :   1.394937
 C122    -C126    :   1.394150      C122    -H131    :   1.087672
 C123    -C126    :   1.391771      C123    -H127    :   1.086426
 C124    -C125    :   1.392395      C124    -H128    :   1.086884
 C125    -H129    :   1.087982      C126    -H130    :   1.087658
 O2      -C104    :   1.406079      C104    -C105    :   1.537636
 C104    -C106    :   1.535261      C104    -C107    :   1.540644
 C105    -H108    :   1.090802      C105    -H109    :   1.098629
 C105    -H110    :   1.095594      C106    -H114    :   1.098814
 C106    -H115    :   1.092518      C106    -H116    :   1.096684
 C107    -H111    :   1.094241      C107    -H112    :   1.095799
 C107    -H113    :   1.097881
 
  bond angles:
 
 C3      -P1      -Pd2     : 118.455084  C4      -P1      -Pd2     : 116.170648
 C4      -P1      -C3      : 109.505903  C5      -P1      -Pd2     : 103.352396
 C5      -P1      -C3      : 104.667462  C5      -P1      -C4      : 102.421253
 C76     -Pd2     -P1      : 171.852402  N118    -Pd2     -P1      :  91.045152
 N118    -Pd2     -C76     :  81.197493  O2      -Pd2     -P1      :  96.696416
 O2      -Pd2     -C76     :  91.269185  O2      -Pd2     -N118    : 170.491361
 C78     -C73     -C74     : 122.020127  F79     -C73     -C74     : 119.065877
 F79     -C73     -C78     : 118.910986  C75     -C74     -C73     : 118.702437
 H80     -C74     -C73     : 119.518217  H80     -C74     -C75     : 121.777069
 C76     -C75     -C74     : 120.761638  H81     -C75     -C74     : 119.045560
 H81     -C75     -C76     : 120.190684  C75     -C76     -Pd2     : 124.282374
 C77     -C76     -Pd2     : 116.653704  C77     -C76     -C75     : 119.029018
 C78     -C77     -C76     : 120.954780  H82     -C77     -C76     : 120.203078
 H82     -C77     -C78     : 118.827185  C77     -C78     -C73     : 118.446198
 H83     -C78     -C73     : 119.654767  H83     -C78     -C77     : 121.897043
 C6      -C3      -P1      : 116.735946  C10     -C3      -P1      : 110.875236
 C10     -C3      -C6      : 111.767334  H31     -C3      -P1      : 101.132539
 H31     -C3      -C6      : 108.033755  H31     -C3      -C10     : 107.324498
 C11     -C4      -P1      : 114.141467  C15     -C4      -P1      : 107.819328
 C15     -C4      -C11     : 110.894360  H42     -C4      -P1      : 107.133526
 H42     -C4      -C11     : 108.147521  H42     -C4      -C15     : 108.516259
 C16     -C5      -P1      : 124.382991  C20     -C5      -P1      : 116.156102
 C20     -C5      -C16     : 119.449267  C7      -C6      -C3      : 110.604985
 H32     -C6      -C3      : 109.811547  H32     -C6      -C7      : 109.103006
 H33     -C6      -C3      : 110.636000  H33     -C6      -C7      : 109.556288
 H33     -C6      -H32     : 107.049905  C8      -C7      -C6      : 111.450432
 H34     -C7      -C6      : 108.991410  H34     -C7      -C8      : 109.508429
 H35     -C7      -C6      : 109.756336  H35     -C7      -C8      : 110.382368
 H35     -C7      -H34     : 106.622409  C9      -C8      -C7      : 111.237035
 H36     -C8      -C7      : 109.088091  H36     -C8      -C9      : 108.886441
 H37     -C8      -C7      : 110.349054  H37     -C8      -C9      : 110.526124
 H37     -C8      -H36     : 106.622858  C10     -C9      -C8      : 111.414919
 H38     -C9      -C8      : 109.232103  H38     -C9      -C10     : 109.092476
 H39     -C9      -C8      : 110.589491  H39     -C9      -C10     : 109.852252
 H39     -C9      -H38     : 106.524554  C9      -C10     -C3      : 110.298745
 H40     -C10     -C3      : 109.930799  H40     -C10     -C9      : 111.070350
 H41     -C10     -C3      : 110.120097  H41     -C10     -C9      : 109.533198
 H41     -C10     -H40     : 105.795548  C12     -C11     -C4      : 110.631177
 H43     -C11     -C4      : 110.641244  H43     -C11     -C12     : 109.517248
 H44     -C11     -C4      : 109.224503  H44     -C11     -C12     : 109.863886
 H44     -C11     -H43     : 106.887991  C13     -C12     -C11     : 111.531060
 H45     -C12     -C11     : 109.515706  H45     -C12     -C13     : 110.453814
 H46     -C12     -C11     : 109.386746  H46     -C12     -C13     : 109.224059
 H46     -C12     -H45     : 106.599680  C14     -C13     -C12     : 110.887160
 H47     -C13     -C12     : 110.404764  H47     -C13     -C14     : 110.432052
 H48     -C13     -C12     : 109.064790  H48     -C13     -C14     : 109.066940
 H48     -C13     -H47     : 106.881689  C15     -C14     -C13     : 110.959342
 H49     -C14     -C13     : 110.643968  H49     -C14     -C15     : 109.781977
 H50     -C14     -C13     : 109.456219  H50     -C14     -C15     : 109.295257
 H50     -C14     -H49     : 106.597738  C14     -C15     -C4      : 111.285871
 H51     -C15     -C4      : 108.365271  H51     -C15     -C14     : 109.500331
 H52     -C15     -C4      : 110.241399  H52     -C15     -C14     : 110.526871
 H52     -C15     -H51     : 106.790235  C17     -C16     -C5      : 120.872804
 H53     -C16     -C5      : 120.117862  H53     -C16     -C17     : 118.998940
 C18     -C17     -C16     : 119.657893  H54     -C17     -C16     : 119.999252
 H54     -C17     -C18     : 120.342086  C19     -C18     -C17     : 119.835542
 H55     -C18     -C17     : 120.278628  H55     -C18     -C19     : 119.884521
 C20     -C19     -C18     : 120.937263  H56     -C19     -C18     : 119.940214
 H56     -C19     -C20     : 119.121496  C19     -C20     -C5      : 119.229854
 C21     -C20     -C5      : 123.915901  C21     -C20     -C19     : 116.830976
 C22     -C21     -C20     : 116.814385  C26     -C21     -C20     : 118.007509
 C26     -C21     -C22     : 116.675417  C23     -C22     -C21     : 121.386817
 O29     -C22     -C21     : 114.460272  O29     -C22     -C23     : 124.124811
 C24     -C23     -C22     : 119.130124  H57     -C23     -C22     : 121.212372
 H57     -C23     -C24     : 119.554190  C25     -C24     -C23     : 122.463881
 H58     -C24     -C23     : 118.707305  H58     -C24     -C25     : 118.819442
 C26     -C25     -C24     : 118.913866  H59     -C25     -C24     : 119.963757
 H59     -C25     -C26     : 121.112656  C25     -C26     -C21     : 121.357264
 O27     -C26     -C21     : 114.792321  O27     -C26     -C25     : 123.565968
 C28     -O27     -C26     : 118.641177  H60     -C28     -O27     : 105.684547
 H61     -C28     -O27     : 110.901545  H61     -C28     -H60     : 109.620469
 H62     -C28     -O27     : 111.438530  H62     -C28     -H60     : 109.064533
 H62     -C28     -H61     : 110.020663  C30     -O29     -C22     : 118.614254
 H63     -C30     -O29     : 110.891452  H64     -C30     -O29     : 105.721136
 H64     -C30     -H63     : 109.831205  H65     -C30     -O29     : 111.079044
 H65     -C30     -H63     : 109.789058  H65     -C30     -H64     : 109.446990
 H119    -N118    -Pd2     : 100.628412  H120    -N118    -Pd2     : 102.330493
 H120    -N118    -H119    : 105.575714  C121    -N118    -Pd2     : 126.745898
 C121    -N118    -H119    : 109.987547  C121    -N118    -H120    : 109.585113
 C123    -C121    -N118    : 119.710848  C124    -C121    -N118    : 120.200282
 C124    -C121    -C123    : 120.078672  C126    -C122    -C125    : 119.543784
 H131    -C122    -C125    : 120.225658  H131    -C122    -C126    : 120.228436
 C126    -C123    -C121    : 119.863484  H127    -C123    -C121    : 119.412922
 H127    -C123    -C126    : 120.680695  C125    -C124    -C121    : 119.827597
 H128    -C124    -C121    : 119.706655  H128    -C124    -C125    : 120.428306
 C124    -C125    -C122    : 120.324573  H129    -C125    -C122    : 120.120986
 H129    -C125    -C124    : 119.547775  C123    -C126    -C122    : 120.354837
 H130    -C126    -C122    : 120.152070  H130    -C126    -C123    : 119.491363
 C104    -O2      -Pd2     : 135.996115  C105    -C104    -O2      : 112.981345
 C106    -C104    -O2      : 112.174033  C106    -C104    -C105    : 109.738395
 C107    -C104    -O2      : 105.114449  C107    -C104    -C105    : 107.973190
 C107    -C104    -C106    : 108.593087  H108    -C105    -C104    : 110.949598
 H109    -C105    -C104    : 111.009518  H109    -C105    -H108    : 108.260253
 H110    -C105    -C104    : 109.956172  H110    -C105    -H108    : 108.175980
 H110    -C105    -H109    : 108.399059  H114    -C106    -C104    : 111.472604
 H115    -C106    -C104    : 110.165145  H115    -C106    -H114    : 108.334445
 H116    -C106    -C104    : 109.963645  H116    -C106    -H114    : 108.449036
 H116    -C106    -H115    : 108.376139  H111    -C107    -C104    : 110.194474
 H112    -C107    -C104    : 110.011113  H112    -C107    -H111    : 108.229372
 H113    -C107    -C104    : 111.462037  H113    -C107    -H111    : 108.173934
 H113    -C107    -H112    : 108.685590
 
  torsional angles:
 
 P1      -Pd2     -C76     -C75     :-137.541655
 P1      -Pd2     -C76     -C77     :  40.282191
 P1      -Pd2     -N118    -H119    : -99.349077
 P1      -Pd2     -N118    -H120    :   9.354384
 P1      -Pd2     -N118    -C121    : 135.611866
 P1      -Pd2     -O2      -C104    :-157.007734
 P1      -C3      -C6      -C7      : 175.160727
 P1      -C3      -C6      -H32     : -64.370111
 P1      -C3      -C6      -H33     :  53.578841
 P1      -C3      -C10     -C9      :-171.744004
 P1      -C3      -C10     -H40     : -48.933453
 P1      -C3      -C10     -H41     :  67.247306
 P1      -C4      -C11     -C12     : 177.581484
 P1      -C4      -C11     -H43     : -60.864770
 P1      -C4      -C11     -H44     :  56.530276
 P1      -C4      -C15     -C14     : 178.474691
 P1      -C4      -C15     -H51     : -61.073177
 P1      -C4      -C15     -H52     :  55.466892
 P1      -C5      -C16     -C17     : 179.768920
 P1      -C5      -C16     -H53     :   0.953505
 P1      -C5      -C20     -C19     : 179.613468
 P1      -C5      -C20     -C21     :   1.426046
 Pd2     -P1      -C3      -C6      : 176.117998
 Pd2     -P1      -C3      -C10     :  46.585922
 Pd2     -P1      -C3      -H31     : -66.983600
 Pd2     -P1      -C4      -C11     : -81.149344
 Pd2     -P1      -C4      -C15     :  42.532988
 Pd2     -P1      -C4      -H42     : 159.158740
 Pd2     -P1      -C5      -C16     :-166.157572
 Pd2     -P1      -C5      -C20     :  12.590264
 Pd2     -C76     -C75     -C74     : 174.807208
 Pd2     -C76     -C75     -H81     :  -4.658343
 Pd2     -C76     -C77     -C78     :-174.639964
 Pd2     -C76     -C77     -H82     :   3.936686
 Pd2     -N118    -C121    -C123    : 105.462720
 Pd2     -N118    -C121    -C124    : -73.376592
 Pd2     -O2      -C104    -C105    : -70.535448
 Pd2     -O2      -C104    -C106    :  54.143913
 Pd2     -O2      -C104    -C107    : 171.965925
 C73     -C74     -C75     -C76     :   0.707262
 C73     -C74     -C75     -H81     :-179.821149
 C73     -C78     -C77     -C76     :  -1.355620
 C73     -C78     -C77     -H82     :-179.951494
 C74     -C73     -C78     -C77     :  -0.992416
 C74     -C73     -C78     -H83     : 178.503984
 C74     -C75     -C76     -C77     :  -2.968430
 C75     -C74     -C73     -C78     :   1.314097
 C75     -C74     -C73     -F79     :-179.324327
 C75     -C76     -Pd2     -N118    :-119.600641
 C75     -C76     -Pd2     -O2      :  54.570551
 C75     -C76     -C77     -C78     :   3.303653
 C75     -C76     -C77     -H82     :-178.119697
 C76     -Pd2     -P1      -C3      :-159.359606
 C76     -Pd2     -P1      -C4      : -25.769854
 C76     -Pd2     -P1      -C5      :  85.512754
 C76     -Pd2     -N118    -H119    :  83.153452
 C76     -Pd2     -N118    -H120    :-168.143087
 C76     -Pd2     -N118    -C121    : -41.885604
 C76     -Pd2     -O2      -C104    :  21.276477
 C76     -C75     -C74     -H80     :-179.844412
 C76     -C77     -C78     -H83     : 179.159858
 C77     -C76     -Pd2     -N118    :  58.223204
 C77     -C76     -Pd2     -O2      :-127.605603
 C77     -C76     -C75     -H81     : 177.566019
 C77     -C78     -C73     -F79     : 179.645053
 C78     -C73     -C74     -H80     :-178.146969
 F79     -C73     -C74     -H80     :   1.214608
 F79     -C73     -C78     -H83     :  -0.858547
 H80     -C74     -C75     -H81     :  -0.372823
 H82     -C77     -C78     -H83     :   0.563983
 C3      -P1      -Pd2     -N118    :-177.085297
 C3      -P1      -Pd2     -O2      :   8.446753
 C3      -P1      -C4      -C11     :  56.352501
 C3      -P1      -C4      -C15     :-179.965167
 C3      -P1      -C4      -H42     : -63.339415
 C3      -P1      -C5      -C16     :  69.208659
 C3      -P1      -C5      -C20     :-112.043505
 C3      -C6      -C7      -C8      :  55.055295
 C3      -C6      -C7      -H34     : -65.920566
 C3      -C6      -C7      -H35     : 177.652207
 C3      -C10     -C9      -C8      : -55.904371
 C3      -C10     -C9      -H38     :  64.770913
 C3      -C10     -C9      -H39     :-178.807511
 C4      -P1      -Pd2     -N118    : -43.495545
 C4      -P1      -Pd2     -O2      : 142.036506
 C4      -P1      -C3      -C6      :  39.718282
 C4      -P1      -C3      -C10     : -89.813794
 C4      -P1      -C3      -H31     : 156.616684
 C4      -P1      -C5      -C16     : -45.063618
 C4      -P1      -C5      -C20     : 133.684218
 C4      -C11     -C12     -C13     : -56.117254
 C4      -C11     -C12     -H45     :-178.691957
 C4      -C11     -C12     -H46     :  64.818407
 C4      -C15     -C14     -C13     :  55.964876
 C4      -C15     -C14     -H49     : 178.579603
 C4      -C15     -C14     -H50     : -64.833704
 C5      -P1      -Pd2     -N118    :  67.787063
 C5      -P1      -Pd2     -O2      :-106.680887
 C5      -P1      -C3      -C6      : -69.465421
 C5      -P1      -C3      -C10     : 161.002503
 C5      -P1      -C3      -H31     :  47.432982
 C5      -P1      -C4      -C11     : 167.028665
 C5      -P1      -C4      -C15     : -69.289004
 C5      -P1      -C4      -H42     :  47.336748
 C5      -C16     -C17     -C18     :   0.042758
 C5      -C16     -C17     -H54     :-179.639216
 C5      -C20     -C19     -C18     :   1.021460
 C5      -C20     -C19     -H56     :-179.347631
 C5      -C20     -C21     -C22     :-128.602807
 C5      -C20     -C21     -C26     :  84.405815
 C6      -C3      -C10     -C9      :  56.132121
 C6      -C3      -C10     -H40     : 178.942672
 C6      -C3      -C10     -H41     : -64.876568
 C6      -C7      -C8      -C9      : -55.383725
 C6      -C7      -C8      -H36     :  64.746241
 C6      -C7      -C8      -H37     :-178.432520
 C7      -C6      -C3      -C10     : -55.732321
 C7      -C6      -C3      -H31     :  62.121387
 C7      -C8      -C9      -C10     :  55.942356
 C7      -C8      -C9      -H38     : -64.650998
 C7      -C8      -C9      -H39     : 178.422362
 C8      -C7      -C6      -H32     : -65.835780
 C8      -C7      -C6      -H33     : 177.271863
 C8      -C9      -C10     -H40     :-178.045483
 C8      -C9      -C10     -H41     :  65.453949
 C9      -C8      -C7      -H34     :  65.289553
 C9      -C8      -C7      -H35     :-177.620471
 C9      -C10     -C3      -H31     : -62.145589
 C10     -C3      -C6      -H32     :  64.736841
 C10     -C3      -C6      -H33     :-177.314207
 C10     -C9      -C8      -H36     : -64.306874
 C10     -C9      -C8      -H37     : 178.889536
 C11     -C4      -C15     -C14     : -55.895323
 C11     -C4      -C15     -H51     :  64.556809
 C11     -C4      -C15     -H52     :-178.903122
 C11     -C12     -C13     -C14     :  56.294903
 C11     -C12     -C13     -H47     : 179.020777
 C11     -C12     -C13     -H48     : -63.825701
 C12     -C11     -C4      -C15     :  55.572791
 C12     -C11     -C4      -H42     : -63.298726
 C12     -C13     -C14     -C15     : -55.917312
 C12     -C13     -C14     -H49     :-178.031244
 C12     -C13     -C14     -H50     :  64.786125
 C13     -C12     -C11     -H43     :-178.331502
 C13     -C12     -C11     -H44     :  64.554126
 C13     -C14     -C15     -H51     : -63.816034
 C13     -C14     -C15     -H52     : 178.808868
 C14     -C13     -C12     -H45     : 178.330038
 C14     -C13     -C12     -H46     : -64.735667
 C14     -C15     -C4      -H42     :  62.753589
 C15     -C4      -C11     -H43     : 177.126537
 C15     -C4      -C11     -H44     : -65.478417
 C15     -C14     -C13     -H47     :-178.627374
 C15     -C14     -C13     -H48     :  64.202010
 C16     -C5      -C20     -C19     :  -1.573245
 C16     -C5      -C20     -C21     :-179.760667
 C16     -C17     -C18     -C19     :  -0.613814
 C16     -C17     -C18     -H55     : 179.802785
 C17     -C16     -C5      -C20     :   1.059635
 C17     -C18     -C19     -C20     :   0.079070
 C17     -C18     -C19     -H56     :-179.548840
 C18     -C17     -C16     -H53     : 178.871223
 C18     -C19     -C20     -C21     : 179.335842
 C19     -C18     -C17     -H54     : 179.067052
 C19     -C20     -C21     -C22     :  53.169795
 C19     -C20     -C21     -C26     : -93.821583
 C20     -C5      -C16     -H53     :-177.755780
 C20     -C19     -C18     -H55     : 179.664128
 C20     -C21     -C22     -C23     :-146.689237
 C20     -C21     -C22     -O29     :  31.458733
 C20     -C21     -C26     -C25     : 148.791703
 C20     -C21     -C26     -O27     : -25.291560
 C21     -C20     -C19     -H56     :  -1.033249
 C21     -C22     -C23     -C24     :  -1.974657
 C21     -C22     -C23     -H57     :-178.262112
 C21     -C22     -O29     -C30     :-179.079022
 C21     -C26     -C25     -C24     :  -2.961898
 C21     -C26     -C25     -H59     : 178.172910
 C21     -C26     -O27     -C28     :-172.428487
 C22     -C21     -C26     -C25     :   1.754872
 C22     -C21     -C26     -O27     :-172.328391
 C22     -C23     -C24     -C25     :   0.747053
 C22     -C23     -C24     -H58     :-178.125398
 C22     -O29     -C30     -H63     : -60.106351
 C22     -O29     -C30     -H64     :-179.097545
 C22     -O29     -C30     -H65     :  62.270937
 C23     -C22     -C21     -C26     :   0.745812
 C23     -C22     -O29     -C30     :  -0.988913
 C23     -C24     -C25     -C26     :   1.707041
 C23     -C24     -C25     -H59     :-179.414419
 C24     -C23     -C22     -O29     :-179.938135
 C24     -C25     -C26     -O27     : 170.589606
 C25     -C24     -C23     -H57     : 177.097063
 C25     -C26     -O27     -C28     :  13.635705
 C26     -C21     -C22     -O29     : 178.893782
 C26     -C25     -C24     -H58     :-179.421720
 C26     -O27     -C28     -H60     : 176.553552
 C26     -O27     -C28     -H61     :  57.830453
 C26     -O27     -C28     -H62     : -65.103707
 O27     -C26     -C25     -H59     :  -8.275586
 O29     -C22     -C23     -H57     :   3.774410
 H31     -C3      -C6      -H32     :-177.409450
 H31     -C3      -C6      -H33     : -59.460498
 H31     -C3      -C10     -H40     :  60.664962
 H31     -C3      -C10     -H41     : 176.845722
 H32     -C6      -C7      -H34     : 173.188360
 H32     -C6      -C7      -H35     :  56.761132
 H33     -C6      -C7      -H34     :  56.296003
 H33     -C6      -C7      -H35     : -60.131225
 H34     -C7      -C8      -H36     :-174.580481
 H34     -C7      -C8      -H37     : -57.759242
 H35     -C7      -C8      -H36     : -57.490504
 H35     -C7      -C8      -H37     :  59.330735
 H36     -C8      -C9      -H38     : 175.099773
 H36     -C8      -C9      -H39     :  58.173133
 H37     -C8      -C9      -H38     :  58.296182
 H37     -C8      -C9      -H39     : -58.630458
 H38     -C9      -C10     -H40     : -57.370198
 H38     -C9      -C10     -H41     :-173.870767
 H39     -C9      -C10     -H40     :  59.051378
 H39     -C9      -C10     -H41     : -57.449191
 H42     -C4      -C11     -H43     :  58.255020
 H42     -C4      -C11     -H44     : 175.650066
 H42     -C4      -C15     -H51     :-176.794279
 H42     -C4      -C15     -H52     : -60.254209
 H43     -C11     -C12     -H45     :  59.093794
 H43     -C11     -C12     -H46     : -57.395842
 H44     -C11     -C12     -H45     : -58.020578
 H44     -C11     -C12     -H46     :-174.510213
 H45     -C12     -C13     -H47     : -58.944088
 H45     -C12     -C13     -H48     :  58.209434
 H46     -C12     -C13     -H47     :  57.990208
 H46     -C12     -C13     -H48     : 175.143730
 H47     -C13     -C14     -H49     :  59.258693
 H47     -C13     -C14     -H50     : -57.923938
 H48     -C13     -C14     -H49     : -57.911922
 H48     -C13     -C14     -H50     :-175.094553
 H49     -C14     -C15     -H51     :  58.798693
 H49     -C14     -C15     -H52     : -58.576404
 H50     -C14     -C15     -H51     : 175.385386
 H50     -C14     -C15     -H52     :  58.010288
 H53     -C16     -C17     -H54     :  -0.810751
 H54     -C17     -C18     -H55     :  -0.516350
 H55     -C18     -C19     -H56     :   0.036219
 H57     -C23     -C24     -H58     :  -1.775388
 H58     -C24     -C25     -H59     :  -0.543180
 N118    -Pd2     -O2      -C104    :  58.686993
 N118    -C121    -C123    -C126    :-178.225019
 N118    -C121    -C123    -H127    :  -0.590597
 N118    -C121    -C124    -C125    : 178.981579
 N118    -C121    -C124    -H128    :   1.197317
 H119    -N118    -Pd2     -O2      :  45.229742
 H119    -N118    -C121    -C123    : -15.634599
 H119    -N118    -C121    -C124    : 165.526089
 H120    -N118    -Pd2     -O2      : 153.933203
 H120    -N118    -C121    -C123    :-131.272162
 H120    -N118    -C121    -C124    :  49.888526
 C121    -N118    -Pd2     -O2      : -79.809315
 C121    -C123    -C126    -C122    :  -0.864624
 C121    -C123    -C126    -H130    : 178.657594
 C121    -C124    -C125    -C122    :  -0.666418
 C121    -C124    -C125    -H129    :-179.728454
 C122    -C125    -C124    -H128    : 177.101620
 C122    -C126    -C123    -H127    :-178.468555
 C123    -C121    -C124    -C125    :   0.146559
 C123    -C121    -C124    -H128    :-177.637702
 C123    -C126    -C122    -C125    :   0.347645
 C123    -C126    -C122    -H131    : 179.818915
 C124    -C121    -C123    -C126    :   0.615722
 C124    -C121    -C123    -H127    : 178.250144
 C124    -C125    -C122    -C126    :   0.420108
 C124    -C125    -C122    -H131    :-179.051178
 C125    -C122    -C126    -H130    :-179.171405
 C126    -C122    -C125    -H129    : 179.476747
 H127    -C123    -C126    -H130    :   1.053663
 H128    -C124    -C125    -H129    :  -1.960417
 H129    -C125    -C122    -H131    :   0.005462
 H130    -C126    -C122    -H131    :   0.299866
 O2      -C104    -C105    -H108    :  68.337221
 O2      -C104    -C105    -H109    :-171.235593
 O2      -C104    -C105    -H110    : -51.291035
 O2      -C104    -C106    -H114    : 172.904397
 O2      -C104    -C106    -H115    : -66.793886
 O2      -C104    -C106    -H116    :  52.593417
 O2      -C104    -C107    -H111    : -64.441816
 O2      -C104    -C107    -H112    :  54.812301
 O2      -C104    -C107    -H113    : 175.445687
 C105    -C104    -C106    -H114    : -60.642200
 C105    -C104    -C106    -H115    :  59.659518
 C105    -C104    -C106    -H116    : 179.046821
 C105    -C104    -C107    -H111    : 174.708488
 C105    -C104    -C107    -H112    : -66.037395
 C105    -C104    -C107    -H113    :  54.595991
 C106    -C104    -C105    -H108    : -57.657933
 C106    -C104    -C105    -H109    :  62.769253
 C106    -C104    -C105    -H110    :-177.286189
 C106    -C104    -C107    -H111    :  55.778931
 C106    -C104    -C107    -H112    : 175.033048
 C106    -C104    -C107    -H113    : -64.333566
 C107    -C104    -C105    -H108    :-175.856267
 C107    -C104    -C105    -H109    : -55.429081
 C107    -C104    -C105    -H110    :  64.515477
 C107    -C104    -C106    -H114    :  57.171036
 C107    -C104    -C106    -H115    : 177.472753
 C107    -C104    -C106    -H116    : -63.139944
 
  nuclear repulsion energy.......          8288.098204373 hartrees
  
  Detected an organometallic with only one TM atom. 
  
  Oxidation state on metal       2 is     2
  Formal multiplet on metal      2 is     1
  Formal charge on ligand        3 is    -1
  Formal multiplet on ligand     3 is     1
  Formal charge on ligand        5 is    -1
  Formal multiplet on ligand     5 is     1
  
 
  Will use High-Quality Initial guess for organometallics
       including d-d repulsion (iguess=30)
 
 Non-default options chosen:
   SCF calculation type: DFT(b3pw91-d3)              
   DFT=Becke_3_Parameter/HF+Slater+Becke88+PW91+PW-GGAIIC (B3PW91-D3)
   Geometry will be optimized in redundant internal coordinates
   Solvation energy will be computed using PBF
     -solute cavity energy will not be included
     -surface area terms will not be included
   Vibrational frequencies and related properties will be computed
      from analytic second derivatives
   IR intensities will be computed
   Thermochemical properties will be computed
   Maximum number of geometry steps: 100
   Scaling standard convergence criteria by a factor of   5.00
   Solvent: benzene                                                         
   Internal dielectric constant:    1.000
   Continuum dielectric constant:   2.283
   Solvent probe molecule radius:   2.600
  
 Non-default print settings:
     11=  2
  
 Temporary integer options set:
     21= -1  73=  2
  
  atom       vdw   vdw2    cov     mass  grid  daf  charge   basis
  P1        2.147  2.074  1.060   30.974    Y    Y      Y    ps_6-31g*
  Pd2       1.450  1.450  1.280  105.903    Y    Y      Y    lacv3p*
  C73       1.949  1.900  0.770   12.000    Y    Y      Y    ps_6-31g*
  C74       1.949  1.900  0.770   12.000    Y    Y      Y    ps_6-31g*
  C75       1.949  1.900  0.770   12.000    Y    Y      Y    ps_6-31g*
  C76       1.949  1.900  0.770   12.000    Y    Y      Y    ps_6-31g*
  C77       1.949  1.900  0.770   12.000    Y    Y      Y    ps_6-31g*
  C78       1.949  1.900  0.770   12.000    Y    Y      Y    ps_6-31g*
  F79       1.736  1.682  0.720   18.998    Y    Y      Y    ps_6-31g*
  H80       1.597  1.150  0.320    1.008    Y    Y      Y    ps_6-31g*
  H81       1.597  1.150  0.320    1.008    Y    Y      Y    ps_6-31g*
  H82       1.597  1.150  0.320    1.008    Y    Y      Y    ps_6-31g*
  H83       1.597  1.150  0.320    1.008    Y    Y      Y    ps_6-31g*
  C3        1.949  1.900  0.770   12.000    Y    Y      Y    ps_6-31g*
  C4        1.949  1.900  0.770   12.000    Y    Y      Y    ps_6-31g*
  C5        1.949  1.900  0.770   12.000    Y    Y      Y    ps_6-31g*
  C6        1.949  1.900  0.770   12.000    Y    Y      Y    ps_6-31g*
  C7        1.949  1.900  0.770   12.000    Y    Y      Y    ps_6-31g*
  C8        1.949  1.900  0.770   12.000    Y    Y      Y    ps_6-31g*
  C9        1.949  1.900  0.770   12.000    Y    Y      Y    ps_6-31g*
  C10       1.949  1.900  0.770   12.000    Y    Y      Y    ps_6-31g*
  C11       1.949  1.900  0.770   12.000    Y    Y      Y    ps_6-31g*
  C12       1.949  1.900  0.770   12.000    Y    Y      Y    ps_6-31g*
  C13       1.949  1.900  0.770   12.000    Y    Y      Y    ps_6-31g*
  C14       1.949  1.900  0.770   12.000    Y    Y      Y    ps_6-31g*
  C15       1.949  1.900  0.770   12.000    Y    Y      Y    ps_6-31g*
  C16       1.949  1.900  0.770   12.000    Y    Y      Y    ps_6-31g*
  C17       1.949  1.900  0.770   12.000    Y    Y      Y    ps_6-31g*
  C18       1.949  1.900  0.770   12.000    Y    Y      Y    ps_6-31g*
  C19       1.949  1.900  0.770   12.000    Y    Y      Y    ps_6-31g*
  C20       1.949  1.900  0.770   12.000    Y    Y      Y    ps_6-31g*
  C21       1.949  1.900  0.770   12.000    Y    Y      Y    ps_6-31g*
  C22       1.949  1.900  0.770   12.000    Y    Y      Y    ps_6-31g*
  C23       1.949  1.900  0.770   12.000    Y    Y      Y    ps_6-31g*
  C24       1.949  1.900  0.770   12.000    Y    Y      Y    ps_6-31g*
  C25       1.949  1.900  0.770   12.000    Y    Y      Y    ps_6-31g*
  C26       1.949  1.900  0.770   12.000    Y    Y      Y    ps_6-31g*
  O27       1.702  1.600  0.730   15.995    Y    Y      Y    ps_6-31g*
  C28       1.949  1.900  0.770   12.000    Y    Y      Y    ps_6-31g*
  O29       1.702  1.600  0.730   15.995    Y    Y      Y    ps_6-31g*
  C30       1.949  1.900  0.770   12.000    Y    Y      Y    ps_6-31g*
  H31       1.597  1.150  0.320    1.008    Y    Y      Y    ps_6-31g*
  H32       1.597  1.150  0.320    1.008    Y    Y      Y    ps_6-31g*
  H33       1.597  1.150  0.320    1.008    Y    Y      Y    ps_6-31g*
  H34       1.597  1.150  0.320    1.008    Y    Y      Y    ps_6-31g*
  H35       1.597  1.150  0.320    1.008    Y    Y      Y    ps_6-31g*
  H36       1.597  1.150  0.320    1.008    Y    Y      Y    ps_6-31g*
  H37       1.597  1.150  0.320    1.008    Y    Y      Y    ps_6-31g*
  H38       1.597  1.150  0.320    1.008    Y    Y      Y    ps_6-31g*
  H39       1.597  1.150  0.320    1.008    Y    Y      Y    ps_6-31g*
  H40       1.597  1.150  0.320    1.008    Y    Y      Y    ps_6-31g*
  H41       1.597  1.150  0.320    1.008    Y    Y      Y    ps_6-31g*
  H42       1.597  1.150  0.320    1.008    Y    Y      Y    ps_6-31g*
  H43       1.597  1.150  0.320    1.008    Y    Y      Y    ps_6-31g*
  H44       1.597  1.150  0.320    1.008    Y    Y      Y    ps_6-31g*
  H45       1.597  1.150  0.320    1.008    Y    Y      Y    ps_6-31g*
  H46       1.597  1.150  0.320    1.008    Y    Y      Y    ps_6-31g*
  H47       1.597  1.150  0.320    1.008    Y    Y      Y    ps_6-31g*
  H48       1.597  1.150  0.320    1.008    Y    Y      Y    ps_6-31g*
  H49       1.597  1.150  0.320    1.008    Y    Y      Y    ps_6-31g*
  H50       1.597  1.150  0.320    1.008    Y    Y      Y    ps_6-31g*
  H51       1.597  1.150  0.320    1.008    Y    Y      Y    ps_6-31g*
  H52       1.597  1.150  0.320    1.008    Y    Y      Y    ps_6-31g*
  H53       1.597  1.150  0.320    1.008    Y    Y      Y    ps_6-31g*
  H54       1.597  1.150  0.320    1.008    Y    Y      Y    ps_6-31g*
  H55       1.597  1.150  0.320    1.008    Y    Y      Y    ps_6-31g*
  H56       1.597  1.150  0.320    1.008    Y    Y      Y    ps_6-31g*
  H57       1.597  1.150  0.320    1.008    Y    Y      Y    ps_6-31g*
  H58       1.597  1.150  0.320    1.008    Y    Y      Y    ps_6-31g*
  H59       1.597  1.150  0.320    1.008    Y    Y      Y    ps_6-31g*
  H60       1.597  1.150  0.320    1.008    Y    Y      Y    ps_6-31g*
  H61       1.597  1.150  0.320    1.008    Y    Y      Y    ps_6-31g*
  H62       1.597  1.150  0.320    1.008    Y    Y      Y    ps_6-31g*
  H63       1.597  1.150  0.320    1.008    Y    Y      Y    ps_6-31g*
  H64       1.597  1.150  0.320    1.008    Y    Y      Y    ps_6-31g*
  H65       1.597  1.150  0.320    1.008    Y    Y      Y    ps_6-31g*
  N118      1.831  1.600  0.750   14.003    Y    Y      Y    ps_6-31g*
  H119      1.597  1.150  0.320    1.008    Y    Y      Y    ps_6-31g*
  H120      1.597  1.150  0.320    1.008    Y    Y      Y    ps_6-31g*
  C121      1.949  1.900  0.770   12.000    Y    Y      Y    ps_6-31g*
  C122      1.949  1.900  0.770   12.000    Y    Y      Y    ps_6-31g*
  C123      1.949  1.900  0.770   12.000    Y    Y      Y    ps_6-31g*
  C124      1.949  1.900  0.770   12.000    Y    Y      Y    ps_6-31g*
  C125      1.949  1.900  0.770   12.000    Y    Y      Y    ps_6-31g*
  C126      1.949  1.900  0.770   12.000    Y    Y      Y    ps_6-31g*
  H127      1.597  1.150  0.320    1.008    Y    Y      Y    ps_6-31g*
  H128      1.597  1.150  0.320    1.008    Y    Y      Y    ps_6-31g*
  H129      1.597  1.150  0.320    1.008    Y    Y      Y    ps_6-31g*
  H130      1.597  1.150  0.320    1.008    Y    Y      Y    ps_6-31g*
  H131      1.597  1.150  0.320    1.008    Y    Y      Y    ps_6-31g*
  O2        1.702  1.600  0.730   15.995    Y    Y      Y    ps_6-31g*
  C104      1.949  1.900  0.770   12.000    Y    Y      Y    ps_6-31g*
  C105      1.949  1.900  0.770   12.000    Y    Y      Y    ps_6-31g*
  C106      1.949  1.900  0.770   12.000    Y    Y      Y    ps_6-31g*
  C107      1.949  1.900  0.770   12.000    Y    Y      Y    ps_6-31g*
  H108      1.597  1.150  0.320    1.008    Y    Y      Y    ps_6-31g*
  H109      1.597  1.150  0.320    1.008    Y    Y      Y    ps_6-31g*
  H110      1.597  1.150  0.320    1.008    Y    Y      Y    ps_6-31g*
  H111      1.597  1.150  0.320    1.008    Y    Y      Y    ps_6-31g*
  H112      1.597  1.150  0.320    1.008    Y    Y      Y    ps_6-31g*
  H113      1.597  1.150  0.320    1.008    Y    Y      Y    ps_6-31g*
  H114      1.597  1.150  0.320    1.008    Y    Y      Y    ps_6-31g*
  H115      1.597  1.150  0.320    1.008    Y    Y      Y    ps_6-31g*
  H116      1.597  1.150  0.320    1.008    Y    Y      Y    ps_6-31g*
 
  atom      formal  2spin      esp    mulk    frag
  P1           0       0        Y    0.000       0
  Pd2          2       0        Y    0.000       0
  C73         -1       0        Y    0.000       0
  N118         0       0        Y    0.000       0
  O2          -1       0        Y    0.000       0
  
  end of program pre
   
 Time(pre)  user:       4.132  user+sys:       4.132  wallclock:       1.393
  
  start of program onee
  
  smallest eigenvalue of S:    3.653E-04
  number of canonical orbitals.....          813
  end of program onee
   
 Time(onee)  user:      12.912  user+sys:      12.912  wallclock:       2.423
  
  start of program hfig
  
  initial wavefunction generated automatically from atomic wavefunctions
  Only one state below 0.010000
  Skip d-d repulsion considerations 
 
  Irreducible     Total no   No of occupied orbitals 
  representation  orbitals   Shell_1  Shell_2    ...
  No Symm          813        190
  ------------------------
  Orbital occupation/shell    1.000
 
  end of program hfig
   
 Time(hfig)  user:       4.147  user+sys:       4.147  wallclock:       1.645
  
  start of program probe
  
  end of program probe
   
 Time(probe)  user:       2.874  user+sys:       2.874  wallclock:       0.887
  
  start of program grid
  
   grid     grid set  grid #  grid sym
  ------    --------  ------  --------
  coarse        0        0        1
  medium        2        1        1
  fine          0        0        1
  ultrafine     4        2        1
  charge       -1        3        1
  gradient      4        2        1
  density       0        0        1
  DFT-fine    -11        4        1
  DFT-med.    -10        5        1
  DFT-grad    -12        6        1
  DFT-der2     -8        7        1
  DFT-cphf     -9        8        1
  LMP2-enrg     4        2        1
  LMP2-grad     2        1        1
  DFT-cphf2   -15        9        1
  PBF-dens      0        0        1
  plotting      0        0        1
  Rel-grad    -17        0        1
  
  number of gridpoints: 
     atom           P1         Pd2         C73         C74         C75         C76         C77
  grid # 1         606         341          79          93          93         100          95
  grid # 2         428         281         331         318         303         389         319
  grid # 3           7         190          33          17           7           7           9
  grid # 4        8714        8714        8714        8714        8714        8714        8714
  grid # 5        1192        1192        1192        1192        1192        1192        1192
  grid # 6        9132        9132        5922        5922        5922        5922        5922
  grid # 7       23034       32968       13950       13950       13950       13950       13950
  grid # 8         722        1150         748         748         748         748         748
  grid # 9         366        2198         394         394         394         394         394
   
  number of gridpoints: 
     atom          C78         F79         H80         H81         H82         H83          C3
  grid # 1          93         584         110          92         107         113          81
  grid # 2         318         566         456         377         428         451         327
  grid # 3          20         352         306           9         132         300           6
  grid # 4        8714        8714        8714        8714        8714        8714        8714
  grid # 5        1192        1192        1192        1192        1192        1192        1192
  grid # 6        5922        5922        5922        5922        5922        5922        5922
  grid # 7       13950       23190       15206       15206       15206       15206       13950
  grid # 8         748         770         786         786         786         786         748
  grid # 9         394         420         420         420         420         420         394
   
  number of gridpoints: 
     atom           C4          C5          C6          C7          C8          C9         C10
  grid # 1          79          92          92          92          92          92          90
  grid # 2         328         380         279         278         278         278         278
  grid # 3           6          15           6           6           6           6           6
  grid # 4        8714        8714        8714        8714        8714        8714        8714
  grid # 5        1192        1192        1192        1192        1192        1192        1192
  grid # 6        5922        5922        5922        5922        5922        5922        5922
  grid # 7       13950       13950       13950       13950       13950       13950       13950
  grid # 8         748         748         748         748         748         748         748
  grid # 9         394         394         394         394         394         394         394
   
  number of gridpoints: 
     atom          C11         C12         C13         C14         C15         C16         C17
  grid # 1          90          92          92          92          90          93          97
  grid # 2         281         280         278         278         276         325         324
  grid # 3           6           6           6           6           6          26          45
  grid # 4        8714        8714        8714        8714        8714        8714        8714
  grid # 5        1192        1192        1192        1192        1192        1192        1192
  grid # 6        5922        5922        5922        5922        5922        5922        5922
  grid # 7       13950       13950       13950       13950       13950       13950       13950
  grid # 8         748         748         748         748         748         748         748
  grid # 9         394         394         394         394         394         394         394
   
  number of gridpoints: 
     atom          C18         C19         C20         C21         C22         C23         C24
  grid # 1          97          96          98          97          92          94          90
  grid # 2         325         327         362         362         339         318         294
  grid # 3          49          31          15           7           8          19          26
  grid # 4        8714        8714        8714        8714        8714        8714        8714
  grid # 5        1192        1192        1192        1192        1192        1192        1192
  grid # 6        5922        5922        5922        5922        5922        5922        5922
  grid # 7       13950       13950       13950       13950       13950       13950       13950
  grid # 8         748         748         748         748         748         748         748
  grid # 9         394         394         394         394         394         394         394
   
  number of gridpoints: 
     atom          C25         C26         O27         C28         O29         C30         H31
  grid # 1          93          92         117          76         116          76          99
  grid # 2         310         342         442         225         409         225         419
  grid # 3          23          17          49           6          32           6          63
  grid # 4        8714        8714        8714        8714        8714        8714        8714
  grid # 5        1192        1192        1192        1192        1192        1192        1192
  grid # 6        5922        5922        5922        5922        5922        5922        5922
  grid # 7       13950       13950       23382       13950       23382       13950       15206
  grid # 8         748         748         774         748         774         748         786
  grid # 9         394         394         416         394         416         394         420
   
  number of gridpoints: 
     atom          H32         H33         H34         H35         H36         H37         H38
  grid # 1         104         104         110         112         110         112         105
  grid # 2         435         436         450         456         452         457         439
  grid # 3         127         157         252         323         257         329         138
  grid # 4        8714        8714        8714        8714        8714        8714        8714
  grid # 5        1192        1192        1192        1192        1192        1192        1192
  grid # 6        5922        5922        5922        5922        5922        5922        5922
  grid # 7       15206       15206       15206       15206       15206       15206       15206
  grid # 8         786         786         786         786         786         786         786
  grid # 9         420         420         420         420         420         420         420
   
  number of gridpoints: 
     atom          H39         H40         H41         H42         H43         H44         H45
  grid # 1         110          99         103         100         103         105         112
  grid # 2         452         417         433         423         426         443         456
  grid # 3         279          42         132          82         108         157         323
  grid # 4        8714        8714        8714        8714        8714        8714        8714
  grid # 5        1192        1192        1192        1192        1192        1192        1192
  grid # 6        5922        5922        5922        5922        5922        5922        5922
  grid # 7       15206       15206       15206       15206       15206       15206       15206
  grid # 8         786         786         786         786         786         786         786
  grid # 9         420         420         420         420         420         420         420
   
  number of gridpoints: 
     atom          H46         H47         H48         H49         H50         H51         H52
  grid # 1         110         112         107         112         110          93         102
  grid # 2         450         457         437         453         453         382         422
  grid # 3         259         329         160         297         260          14         150
  grid # 4        8714        8714        8714        8714        8714        8714        8714
  grid # 5        1192        1192        1192        1192        1192        1192        1192
  grid # 6        5922        5922        5922        5922        5922        5922        5922
  grid # 7       15206       15206       15206       15206       15206       15206       15206
  grid # 8         786         786         786         786         786         786         786
  grid # 9         420         420         420         420         420         420         420
   
  number of gridpoints: 
     atom          H53         H54         H55         H56         H57         H58         H59
  grid # 1         106         118         118         115         108         112          98
  grid # 2         437         467         467         454         439         448         404
  grid # 3         165         419         421         305         206         287         133
  grid # 4        8714        8714        8714        8714        8714        8714        8714
  grid # 5        1192        1192        1192        1192        1192        1192        1192
  grid # 6        5922        5922        5922        5922        5922        5922        5922
  grid # 7       15206       15206       15206       15206       15206       15206       15206
  grid # 8         786         786         786         786         786         786         786
  grid # 9         420         420         420         420         420         420         420
   
  number of gridpoints: 
     atom          H60         H61         H62         H63         H64         H65        N118
  grid # 1         105          79         109          92         110         111         100
  grid # 2         442         345         448         381         455         450         311
  grid # 3         210          15         306         109         344         311           6
  grid # 4        8714        8714        8714        8714        8714        8714        8714
  grid # 5        1192        1192        1192        1192        1192        1192        1192
  grid # 6        5922        5922        5922        5922        5922        5922        5922
  grid # 7       15206       15206       15206       15206       15206       15206       13958
  grid # 8         786         786         786         786         786         786         756
  grid # 9         420         420         420         420         420         420         406
   
  number of gridpoints: 
     atom         H119        H120        C121        C122        C123        C124        C125
  grid # 1          90          84          98          96          94          94          94
  grid # 2         378         362         345         320         321         316         321
  grid # 3          31          33          22          30          23          17          25
  grid # 4        8714        8714        8714        8714        8714        8714        8714
  grid # 5        1192        1192        1192        1192        1192        1192        1192
  grid # 6        5922        5922        5922        5922        5922        5922        5922
  grid # 7       15206       15206       13950       13950       13950       13950       13950
  grid # 8         786         786         748         748         748         748         748
  grid # 9         420         420         394         394         394         394         394
   
  number of gridpoints: 
     atom         C126        H127        H128        H129        H130        H131          O2
  grid # 1          96          95         105         118         117         117         116
  grid # 2         321         390         414         462         465         466         458
  grid # 3          30          65          88         383         376         398           7
  grid # 4        8714        8714        8714        8714        8714        8714        8714
  grid # 5        1192        1192        1192        1192        1192        1192        1192
  grid # 6        5922        5922        5922        5922        5922        5922        5922
  grid # 7       13950       15206       15206       15206       15206       15206       23382
  grid # 8         748         786         786         786         786         786         774
  grid # 9         394         420         420         420         420         420         416
   
  number of gridpoints: 
     atom         C104        C105        C106        C107        H108        H109        H110
  grid # 1          91          80          79          80          96         108          93
  grid # 2         326         243         245         236         400         450         385
  grid # 3           6           6           6           6          69         279          68
  grid # 4        8714        8714        8714        8714        8714        8714        8714
  grid # 5        1192        1192        1192        1192        1192        1192        1192
  grid # 6        5922        5922        5922        5922        5922        5922        5922
  grid # 7       13950       13950       13950       13950       15206       15206       15206
  grid # 8         748         748         748         748         786         786         786
  grid # 9         394         394         394         394         420         420         420
   
  number of gridpoints: 
     atom         H111        H112        H113        H114        H115        H116       total
  grid # 1         105          85         109         109         107         107       11574
  grid # 2         431         366         449         451         439         449       39518
  grid # 3         137         116         280         294         176         231       12512
  grid # 4        8714        8714        8714        8714        8714        8714      906256
  grid # 5        1192        1192        1192        1192        1192        1192      123968
  grid # 6        5922        5922        5922        5922        5922        5922      622308
  grid # 7       15206       15206       15206       15206       15206       15206     1585526
  grid # 8         786         786         786         786         786         786       80366
  grid # 9         420         420         420         420         420         420       44286
   
  end of program grid
   
 Time(grid)  user:     765.980  user+sys:     765.980  wallclock:      52.884
  
  start of program rwr
  
  end of program rwr
   
 Time(rwr)  user:      83.485  user+sys:      83.485  wallclock:      38.208
  
  start of program scf
  
 number of electrons..........        380
 number of alpha electrons....        190
 number of beta electrons.....        190
 number of orbitals, total....        813
 number of doubly-occ'd orbs..        190
 number of open shell orbs....          0
 number of occupied orbitals..        190
 number of virtual orbitals...        623
 number of hamiltonians.......          1
 number of shells.............          1
 SCF type: DFT=Becke_3_Parameter/HF+Slater+Becke88+PW91+PW-GGAIIC (B3PW91-D3)
 Energy computed using pseudospectral method.
 Convergence Criterion:
    Energy (econv):       1.00E-05
    RMS density (dconv):  5.00E-06
  
       i  u  d  i  g                   
       t  p  i  c  r                                 RMS    maximum
       e  d  i  u  i                       energy  density   DIIS  
       r  t  s  t  d       total energy    change  change    error 
  
etot    1  N  N  5  M   -2474.54340317840           1.9E-03  1.5E-01
etot    2  Y  Y  6  M   -2478.97335465741  4.4E+00  3.1E-03  9.3E-02
etot    3  Y  Y  6  M   -2480.32964653433  1.4E+00  1.0E-03  7.1E-02
etot    4  N  Y  2  U   -2480.62636524943  3.0E-01  8.6E-04  4.9E-02
etot    5  Y  Y  6  M   -2480.74364657249  1.2E-01  8.7E-04  3.4E-02
etot    6  N  Y  2  U   -2480.78829066881  4.5E-02  7.0E-04  1.5E-02
etot    7  Y  Y  6  M   -2480.81919415211  3.1E-02  1.2E-04  5.3E-03
etot    8  N  Y  2  U   -2480.82986212326  1.1E-02  4.4E-05  1.4E-03
etot    9  N  Y  2  U   -2480.83027399450  4.1E-04  2.3E-05  6.1E-04
etot   10  N  Y  2  U   -2480.83038268343  1.1E-04  7.3E-06  3.0E-04
etot   11  N  Y  2  U   -2480.83039113294  8.4E-06  2.4E-06  7.2E-05
etot   12  N  N  2  U   -2480.83039258378  1.5E-06  0.0E+00  0.0E+00
 
  Computing the dispersion energy correction and its gradients...
  
  
 Energy components, in hartrees:
   (A)  Nuclear repulsion............    8288.09820437339
   (E)  Total one-electron terms.....  -19955.93755414708
   (F)    Electron-nuclear...........  -22344.65107223769
   (H)    Kinetic....................    2388.71351809062
   (I)  Total two-electron terms.....    9187.00895718991
   (J)    Coulomb....................    9514.79716176803
   (K)    Exchange+Correlation.......    -327.78820457812
   (L)  Electronic energy............  -10768.92859695717  (E+I)
   (N0) D3 correction................      -0.22241837874
   (N)  Total energy.................   -2481.05281096253  (A+L+N0)
   (O)  Gas phase energy.............   -2481.05281096253
  
 SCFE: SCF energy: DFT(b3pw91-d3)     -2481.05281096253 hartrees   iterations:  12
  
 
 HOMO energy:    -0.14547
 LUMO energy:    -0.03050
 
  Orbital energies (hartrees): 
   -77.05472   -24.65518   -19.20241   -19.15177   -19.03856   -14.32482
   -10.24016   -10.23527   -10.23515   -10.21769   -10.21392   -10.19367
   -10.18924   -10.18399   -10.18392   -10.18343   -10.18045   -10.18013
   -10.18006   -10.17983   -10.17937   -10.17879   -10.17643   -10.17633
   -10.17603   -10.17437   -10.17377   -10.17332   -10.17279   -10.17075
   -10.17068   -10.17043   -10.16690   -10.16365   -10.16039   -10.15920
   -10.15629   -10.15462   -10.15118   -10.14318   -10.14052   -10.13734
   -10.13668   -10.13384   -10.12911   -10.11445   -10.10523   -10.09459
    -6.55758    -4.71566    -4.71511    -4.71168    -3.32116    -2.05640
    -2.04624    -2.02202    -1.18687    -1.12074    -1.05962    -0.93824
    -0.91257    -0.87697    -0.86091    -0.85495    -0.84937    -0.83179
    -0.82571    -0.79980    -0.77944    -0.77250    -0.76379    -0.75602
    -0.75341    -0.75054    -0.74312    -0.74036    -0.73830    -0.73616
    -0.72405    -0.71954    -0.70779    -0.69766    -0.66456    -0.65882
    -0.65061    -0.64542    -0.63826    -0.62812    -0.61871    -0.60865
    -0.60659    -0.60399    -0.59954    -0.59192    -0.58765    -0.57508
    -0.56934    -0.56257    -0.55595    -0.55119    -0.54219    -0.53919
    -0.52329    -0.52162    -0.51377    -0.51142    -0.50498    -0.49379
    -0.49001    -0.48759    -0.47396    -0.47144    -0.47000    -0.46560
    -0.45685    -0.45609    -0.45474    -0.45268    -0.45129    -0.44671
    -0.44290    -0.44083    -0.44040    -0.43541    -0.43478    -0.43385
    -0.43057    -0.42891    -0.42492    -0.42443    -0.42124    -0.41832
    -0.41404    -0.40693    -0.40523    -0.39886    -0.39746    -0.39487
    -0.39134    -0.38951    -0.38385    -0.37921    -0.37795    -0.37484
    -0.37221    -0.36913    -0.36591    -0.36450    -0.36012    -0.35990
    -0.35942    -0.35630    -0.35280    -0.34868    -0.34719    -0.34512
    -0.34131    -0.33936    -0.33791    -0.33612    -0.33123    -0.32822
    -0.32381    -0.32150    -0.31975    -0.31875    -0.31601    -0.31169
    -0.30406    -0.29789    -0.29596    -0.29382    -0.29069    -0.28741
    -0.27404    -0.26314    -0.25935    -0.25798    -0.25615    -0.25219
    -0.24844    -0.24177    -0.23491    -0.22527    -0.21498    -0.20401
    -0.18876    -0.18504    -0.17067    -0.14547    -0.03050    -0.02305
    -0.02209    -0.01250    -0.00637     0.00970     0.01469     0.03746
     0.04075     0.04913
 
  end of program scf
   
 Time(scf)  user:    1281.575  user+sys:    1281.575  wallclock:     159.068
  
  start of program der1a
  
  end of program der1a
   
 Time(der1a)  user:      25.893  user+sys:      25.893  wallclock:       3.098
  
  start of program rwr
  
  end of program rwr
   
 Time(rwr)  user:     125.285  user+sys:     125.285  wallclock:      50.718
  
  start of program der1b
  
   
  forces (hartrees/bohr) : total     
   
 atom  label           x              y              z
 ---- --------   -------------  -------------  -------------
    1 P1         -1.095842E-02   1.972798E-03   3.517838E-03
    2 Pd2         9.169071E-03   2.907115E-02   2.321398E-02
    3 C73         2.120291E-03   1.858587E-03  -1.848443E-03
    4 C74         4.543382E-03  -3.837865E-04  -2.469247E-04
    5 C75         2.672456E-02   3.224781E-02   1.947722E-02
    6 C76        -3.464778E-03   1.158949E-02   2.662777E-03
    7 C77        -1.487635E-02   5.891716E-04   1.082022E-02
    8 C78        -4.556603E-03   3.940431E-03   5.232154E-03
    9 F79        -1.177899E-04  -1.054822E-04  -3.996514E-04
   10 H80        -8.611881E-04  -1.396725E-04   6.193855E-04
   11 H81         1.814398E-02   4.447443E-02   1.754598E-02
   12 H82        -9.806900E-03  -2.845754E-04   9.237391E-03
   13 H83        -9.679212E-04  -8.390151E-04  -7.557209E-04
   14 C3         -2.383583E-04  -9.211105E-05  -8.552246E-04
   15 C4         -1.477932E-03  -3.550320E-03  -3.373022E-03
   16 C5          2.045911E-03   1.675395E-03  -1.728974E-03
   17 C6         -2.133218E-04  -6.455892E-05   4.779730E-04
   18 C7          4.995456E-04   5.116197E-04  -3.176788E-04
   19 C8         -1.030650E-03   6.580925E-04   2.093283E-04
   20 C9          7.839691E-04  -1.980402E-04  -1.958637E-04
   21 C10         4.535531E-04   1.628467E-03   2.917909E-03
   22 C11         1.880200E-03  -1.796054E-03  -1.080932E-03
   23 C12        -2.080272E-04   1.323757E-03   2.501345E-04
   24 C13        -1.048717E-03  -5.007142E-04  -4.983261E-04
   25 C14         2.385226E-03  -1.915533E-03  -1.465871E-04
   26 C15         1.478106E-03   1.684958E-02  -1.968080E-02
   27 C16         4.606919E-04  -4.437736E-04  -2.431540E-04
   28 C17         5.980412E-05   8.358856E-04  -7.768193E-04
   29 C18         8.437775E-05   2.648978E-04   1.144723E-03
   30 C19         1.693660E-03  -6.795028E-04  -1.947602E-03
   31 C20        -1.591213E-03   2.320187E-03   5.206450E-03
   32 C21        -5.225322E-03  -3.487993E-02   7.112617E-03
   33 C22        -5.373476E-02  -2.577913E-02   2.649264E-03
   34 C23         1.766218E-02  -1.763603E-02  -1.544279E-02
   35 C24        -7.810001E-03  -4.862249E-02  -1.649841E-02
   36 C25         7.729937E-03  -4.235424E-02  -2.657624E-02
   37 C26         2.582409E-03  -1.292022E-02  -9.682470E-03
   38 O27         4.808126E-03  -1.114654E-02  -2.590366E-03
   39 C28         2.017914E-02  -2.517372E-02  -1.330461E-02
   40 O29         2.845547E-02  -3.386516E-02   3.852511E-03
   41 C30        -1.801730E-03  -2.496893E-02  -3.257032E-03
   42 H31         1.171862E-03   5.012634E-04   1.053892E-03
   43 H32         2.008673E-04   3.317089E-04  -5.415388E-04
   44 H33         2.500757E-04  -7.070478E-04  -3.733093E-04
   45 H34         8.477386E-05   2.159398E-04   3.943385E-04
   46 H35        -1.223760E-04  -2.927688E-04  -3.034152E-04
   47 H36         2.452044E-05   3.628332E-06  -2.579296E-04
   48 H37         2.367944E-04  -8.377728E-05  -2.575732E-04
   49 H38         4.716529E-04   2.576560E-04   4.505316E-04
   50 H39        -4.228319E-04   3.365206E-04   1.377476E-04
   51 H40        -6.013059E-05  -4.267822E-03   1.505901E-04
   52 H41         9.039409E-05   1.381532E-03  -2.779714E-03
   53 H42         1.089787E-03   1.047006E-03  -1.829333E-04
   54 H43         6.796871E-05  -5.339774E-04   8.740185E-04
   55 H44        -7.724056E-04   8.207874E-04   2.488978E-03
   56 H45         3.605167E-04  -8.076270E-05  -1.740186E-04
   57 H46        -4.257466E-04   2.041035E-05   9.912083E-04
   58 H47         3.675393E-05  -2.210079E-04   5.766720E-04
   59 H48         6.235352E-04   7.770449E-04  -2.799953E-04
   60 H49        -2.745127E-04   2.525710E-04   6.290702E-04
   61 H50        -2.313249E-04   1.112693E-04   6.602967E-04
   62 H51         3.831829E-03   1.875729E-02  -3.018993E-02
   63 H52         2.607471E-03  -1.645175E-03  -7.581675E-03
   64 H53        -3.327442E-04   2.144403E-04  -3.443597E-04
   65 H54        -1.614934E-04   2.424120E-05   1.805056E-05
   66 H55        -8.645080E-05   3.431516E-05  -1.142319E-04
   67 H56        -5.924928E-04   7.969604E-04   2.888575E-04
   68 H57        -7.598887E-04   9.187439E-04   8.323178E-04
   69 H58        -3.306776E-04  -2.600008E-03   7.434671E-04
   70 H59         9.346435E-03  -2.004628E-02  -1.361119E-02
   71 H60        -7.429039E-04   7.730484E-04  -1.567980E-03
   72 H61         5.207782E-02  -5.273575E-02  -4.088175E-02
   73 H62        -7.547918E-04  -4.327103E-03  -1.190842E-03
   74 H63        -5.123756E-03  -3.157111E-02  -1.914590E-03
   75 H64        -1.203978E-04   1.898676E-03   1.151773E-03
   76 H65        -1.751194E-03   3.618279E-05  -2.359902E-03
   77 N118        8.412941E-03   1.818830E-02   6.754365E-03
   78 H119        7.382852E-03   1.622415E-02  -1.194749E-03
   79 H120       -6.147929E-04  -1.389834E-02   2.146130E-02
   80 C121        3.443218E-03  -1.049951E-02  -1.423036E-02
   81 C122        8.590571E-04  -1.957189E-04   9.884615E-04
   82 C123        8.169311E-03   1.190855E-02   1.297535E-03
   83 C124        1.056531E-02   3.817991E-03  -1.111161E-03
   84 C125        6.833475E-05  -4.559588E-05  -2.110146E-03
   85 C126        1.427645E-03  -1.190079E-03  -3.065258E-03
   86 H127        5.179631E-03   3.871355E-02   2.041552E-03
   87 H128        1.183736E-04   2.414205E-03   4.575112E-03
   88 H129       -3.636493E-04  -4.215282E-04   1.762049E-04
   89 H130       -4.049323E-04   3.309504E-04   1.398261E-04
   90 H131       -4.103777E-04  -1.081093E-04  -3.716632E-04
   91 O2         -1.752275E-02   1.354706E-02  -1.698110E-03
   92 C104        5.333414E-03   7.602949E-03  -3.489937E-04
   93 C105       -2.656162E-02   1.619702E-02   9.403831E-03
   94 C106       -1.134320E-03  -9.078626E-04   7.446557E-04
   95 C107       -1.679497E-02   2.717793E-02   1.823181E-02
   96 H108       -2.379622E-02   9.728627E-03  -2.024277E-04
   97 H109       -1.044066E-03   1.780357E-03  -3.573795E-04
   98 H110       -9.609334E-03   3.120588E-02   1.742367E-02
   99 H111       -1.455281E-04  -8.767330E-04  -3.158255E-03
  100 H112       -5.292232E-02   5.363788E-02   3.851424E-02
  101 H113        5.020134E-04   1.694793E-03   1.035639E-03
  102 H114        4.673110E-04   1.672789E-05  -7.387540E-05
  103 H115        2.275919E-03  -5.449983E-04  -9.061647E-05
  104 H116        2.953023E-04  -5.562753E-04  -5.420256E-04
 -------------   -------------  -------------  -------------
     total       -3.363713E-03  -1.186957E-03  -4.531684E-03
   
  end of program der1b
   
 Time(der1b)  user:     309.521  user+sys:     309.521  wallclock:      27.849
  
  start of program geopt
  
 ----------------------------------------------------------------------------
  Geometry optimization step  1
  Total energy:     -2481.05281096253 hartrees
 ----------------------------------------------------------------------------
  
  
  Level shifts adjusted to satisfy step-size constraints
   Step size:    0.3000069
   Cos(theta):   0.3231131
   Final level shift:  -9.8414750E-01
  
  gradient maximum:        2.0211E+00 .  (  2.2500E-03 )
  gradient rms:            2.9277E-01 .  (  1.5000E-03 )
  displacement maximum:    1.1232E-01 .  (  9.0000E-03 )
  displacement rms:        1.2550E-02 .  (  6.0000E-03 )
  
  predicted energy change:  -2.8232E-01
  step size:     0.23613
  trust radius:  0.30000
  
  molecular structure not yet converged...
  
  center of mass moved by:
     x:     9.7562E-03     y:    -1.7708E-02     z:     4.1578E-02
  
  new geometry: 
                                   angstroms
  atom               x                 y                 z
  P1            0.0252343608     -0.0377179264      0.0564663058 
  Pd2           0.0569764539      0.0111148298      2.4527369787 
  C73           0.7253703601      0.3024146359      7.2058293079 
  C74           0.0274384976     -0.7925961363      6.7202073314 
  C75          -0.2221381390     -0.8776225555      5.3465718555 
  C76           0.2531387012      0.1006320906      4.4666858144 
  C77           0.9045886900      1.2159970183      5.0029911365 
  C78           1.1622831275      1.3210123928      6.3721438170 
  F79           0.9813880954      0.3840479437      8.5330356700 
  H80          -0.3232671307     -1.5544406559      7.4128278234 
  H81          -0.7469465923     -1.7527109477      4.9588100149 
  H82           1.2267343732      2.0262678176      4.3544268074 
  H83           1.6845801772      2.1756571682      6.7946818538 
  C3           -1.6106114051      0.2297517316     -0.7849790985 
  C4            1.3167429412      0.9892476115     -0.8252361948 
  C5            0.5171088368     -1.7314636312     -0.4353390345 
  C6           -1.5969094390      0.3042477248     -2.3165501881 
  C7           -3.0270431556      0.4054058908     -2.8633778241 
  C8           -3.7823112014      1.5836820253     -2.2430684517 
  C9           -3.7818311750      1.4989959719     -0.7142712297 
  C10          -2.3582703169      1.4163402930     -0.1580698724 
  C11           0.9628847851      2.4840916214     -0.8664020644 
  C12           2.0522530725      3.2934094979     -1.5839543703 
  C13           3.4273758182      3.0857903124     -0.9478310046 
  C14           3.7858282543      1.5999018384     -0.9253429664 
  C15           2.7065591201      0.7937734618     -0.2018376826 
  C16           0.9210290440     -2.0688691101     -1.7356281779 
  C17           1.3030867983     -3.3666869723     -2.0567437553 
  C18           1.2842967289     -4.3529396305     -1.0729437769 
  C19           0.8902987535     -4.0290721510      0.2193381694 
  C20           0.5149936436     -2.7212707558      0.5555292788 
  C21           0.0591059009     -2.4987902243      1.9714161816 
  C22           0.9369632555     -2.9269107205      3.0189579652 
  C23           0.4454523458     -3.4110555530      4.2215864250 
  C24          -0.9338424201     -3.4425520094      4.4210492919 
  C25          -1.8418577950     -3.0423419863      3.4504773238 
  C26          -1.3528195939     -2.5979629569      2.2193710911 
  O27          -2.1256864364     -2.3561598274      1.1432872849 
  C28          -3.5357781048     -2.2674316533      1.3112273615 
  O29           2.2504731769     -2.8233434691      2.7210456061 
  C30           3.1960549314     -3.2933457638      3.6759995059 
  H31          -2.1527844342     -0.6779348132     -0.4838081756 
  H32          -1.0233832032      1.1833880339     -2.6422164891 
  H33          -1.1033683614     -0.5764349926     -2.7414778412 
  H34          -3.5621923152     -0.5301221638     -2.6404987999 
  H35          -3.0006892969      0.4991194616     -3.9570487230 
  H36          -3.2969725646      2.5233450356     -2.5489464077 
  H37          -4.8107670919      1.6219266731     -2.6264288693 
  H38          -4.3426877227      0.6048729955     -0.3995643864 
  H39          -4.3019498515      2.3618846175     -0.2799397141 
  H40          -2.3648706168      1.3140514933      0.9329745840 
  H41          -1.8262986348      2.3527804466     -0.3724117440 
[...]
    H48      Y     0.00003  -0.00047   0.00000  -0.00000   0.00001  -0.00006
    H48      Z    -0.00015   0.00086   0.00012   0.00002   0.00067   0.00026
    H49      X    -0.00030   0.00035   0.00012   0.00002   0.00032   0.00056
    H49      Y     0.00004  -0.00008  -0.00002  -0.00000  -0.00010  -0.00017
    H49      Z     0.00003  -0.00005  -0.00002  -0.00000   0.00002   0.00011
    H50      X    -0.00002   0.00007   0.00002  -0.00000   0.00043   0.00046
    H50      Y     0.00001  -0.00008  -0.00001  -0.00000   0.00073   0.00128
    H50      Z    -0.00010   0.00021   0.00007  -0.00000  -0.00030  -0.00110
    H51      X    -0.00025   0.00157   0.00008   0.00001  -0.00491  -0.00827
    H51      Y     0.00005  -0.00006  -0.00003  -0.00001  -0.00196  -0.00275
    H51      Z    -0.00056   0.00373   0.00018   0.00003  -0.00552  -0.01004
    H52      X     0.00000  -0.00015  -0.00004  -0.00005  -0.00009   0.00013
    H52      Y     0.00004   0.00058   0.00009   0.00012  -0.00016  -0.00059
    H52      Z     0.00002   0.00023   0.00007   0.00009  -0.00018  -0.00063
    H53      X     0.00051  -0.00000  -0.00021  -0.00012   0.00007   0.00013
    H53      Y    -0.00384   0.00009   0.00187   0.00111  -0.00011  -0.00065
    H53      Z     0.00266  -0.00005  -0.00137  -0.00084  -0.00003   0.00068
    H54      X    -0.00175   0.00023   0.00054   0.00024  -0.00001   0.00003
    H54      Y    -0.00000   0.00001   0.00001   0.00002   0.00009  -0.00000
    H54      Z     0.00559  -0.00074  -0.00177  -0.00074  -0.00003   0.00009
    H55      X    -0.00245   0.00065   0.00106   0.00065   0.00008  -0.00005
    H55      Y     0.00504  -0.00132  -0.00217  -0.00132  -0.00019   0.00006
    H55      Z     0.00226  -0.00060  -0.00100  -0.00064  -0.00011   0.00008
    H56      X    -0.00042   0.00013  -0.00004   0.00008  -0.00006   0.00005
    H56      Y     0.00487  -0.00155  -0.00050  -0.00119   0.00109  -0.00091
    H56      Z    -0.00340   0.00108   0.00039   0.00088  -0.00043   0.00033
    H57      X     0.02672   0.01020   0.58981   0.04830   0.00038  -0.00021
    H57      Y    -0.01052  -0.00391  -0.24659  -0.01981  -0.00012  -0.00002
    H57      Z     0.03074   0.01174   0.67011   0.05297  -0.00003   0.00016
    H58      X    -0.00847  -0.00173  -0.06751  -0.04990  -0.00063   0.00040
    H58      Y    -0.00651  -0.00112  -0.03932  -0.03340  -0.00026   0.00013
    H58      Z     0.02140   0.00444   0.17114   0.14205   0.00106  -0.00063
    H59      X    -0.00329   0.00203   0.10325  -0.91226  -0.00012   0.00005
    H59      Y     0.00057  -0.00014  -0.00823   0.07708  -0.00012   0.00005
    H59      Z     0.00082  -0.00047  -0.02410   0.19889  -0.00001   0.00001
    H60      X     0.00005  -0.00005  -0.00130   0.00466  -0.00034   0.00029
    H60      Y    -0.00007   0.00004   0.00088  -0.00351   0.00016  -0.00011
    H60      Z     0.00011  -0.00013  -0.00358   0.01548  -0.00054   0.00045
    H61      X     0.00002  -0.00000   0.00012   0.00017  -0.00030   0.00014
    H61      Y     0.00006   0.00001  -0.00192   0.00576  -0.00035   0.00013
    H61      Z     0.00012   0.00001  -0.00148   0.00515   0.00003  -0.00008
    H62      X     0.00016  -0.00002   0.00184  -0.00850  -0.00003   0.00004
    H62      Y     0.00029  -0.00002   0.00395  -0.01998   0.00020  -0.00009
    H62      Z    -0.00014   0.00001  -0.00184   0.01078   0.00012  -0.00007
    H63      X    -0.00017   0.00023  -0.00059  -0.00019   0.00075  -0.00051
    H63      Y     0.00007   0.00467   0.01191   0.00029   0.00122  -0.00068
    H63      Z     0.00009   0.00826   0.02012   0.00062   0.00315  -0.00174
    H64      X    -0.00060  -0.00203  -0.01728  -0.00042   0.00258  -0.00155
    H64      Y    -0.00007  -0.00033  -0.00177  -0.00011  -0.00042   0.00021
    H64      Z     0.00039   0.00098   0.01173   0.00035  -0.00093   0.00049
    H65      X    -0.00022   0.00059  -0.00423  -0.00007   0.00068  -0.00044
    H65      Y    -0.00051   0.00134  -0.01232   0.00012  -0.00306   0.00236
    H65      Z     0.00005  -0.00004   0.00158  -0.00001   0.00165  -0.00121
    N118     X     0.00002  -0.00024   0.00003  -0.00000  -0.00805  -0.01646
    N118     Y    -0.00003   0.00021  -0.00004  -0.00001   0.04945  -0.04570
    N118     Z    -0.00001  -0.00020   0.00002   0.00000   0.02832   0.05879
    H119     X    -0.00013  -0.00164  -0.00034  -0.00014  -0.02799   0.00573
    H119     Y     0.00035  -0.00486   0.00063   0.00020  -0.78502   0.53564
    H119     Z     0.00034  -0.00246  -0.00027  -0.00007   0.13840  -0.07519
    H120     X     0.00023  -0.00087  -0.00007  -0.00004   0.15475   0.23015
    H120     Y     0.00012  -0.00146  -0.00005  -0.00004   0.09464   0.10788
    H120     Z     0.00009  -0.00234   0.00017   0.00004  -0.52619  -0.74426
    C121     X    -0.00005   0.00166  -0.00006  -0.00000  -0.00054  -0.00051
    C121     Y    -0.00002   0.00040  -0.00002  -0.00000   0.00016  -0.00040
    C121     Z    -0.00009   0.00270  -0.00008  -0.00000   0.00016   0.00016
    C122     X     0.00124  -0.02090   0.00027  -0.00001  -0.00008   0.00001
    C122     Y     0.00092  -0.01581   0.00021  -0.00001  -0.00007   0.00008
    C122     Z     0.00129  -0.02138   0.00028  -0.00001  -0.00008  -0.00010
    C123     X    -0.00088   0.02762  -0.00047   0.00001  -0.00063   0.00008
    C123     Y    -0.00149   0.04688  -0.00082   0.00002  -0.00055   0.00041
    C123     Z     0.00038  -0.01290   0.00023  -0.00000  -0.00029  -0.00017
    C124     X    -0.00028   0.00443  -0.00007   0.00000  -0.00048   0.00014
    C124     Y     0.00052  -0.00891   0.00018   0.00000  -0.00037   0.00015
    C124     Z    -0.00112   0.01873  -0.00033   0.00000  -0.00044  -0.00019
    C125     X     0.00062  -0.00990   0.00013  -0.00001   0.00017   0.00015
    C125     Y     0.00125  -0.02020   0.00026  -0.00001   0.00011  -0.00001
    C125     Z    -0.00039   0.00642  -0.00008   0.00000   0.00004   0.00011
    C126     X     0.00035  -0.00775   0.00011  -0.00000   0.00019  -0.00012
    C126     Y    -0.00092   0.01885  -0.00027   0.00001  -0.00004  -0.00012
    C126     Z     0.00198  -0.04173   0.00060  -0.00002   0.00013  -0.00003
    H127     X     0.00921  -0.30568   0.00563  -0.00015   0.00197  -0.00126
    H127     Y     0.01601  -0.52341   0.00962  -0.00028   0.00370  -0.00147
    H127     Z    -0.00489   0.15951  -0.00283   0.00006  -0.00004  -0.00036
    H128     X     0.00284  -0.04721   0.00084  -0.00001   0.00028   0.00012
    H128     Y    -0.00607   0.10264  -0.00195   0.00000   0.00052   0.00081
    H128     Z     0.01239  -0.20809   0.00386  -0.00002   0.00084   0.00083
    H129     X    -0.00683   0.10955  -0.00143   0.00005  -0.00100  -0.00006
    H129     Y    -0.01355   0.21747  -0.00283   0.00011  -0.00140   0.00001
    H129     Z     0.00390  -0.06278   0.00082  -0.00003   0.00028  -0.00003
    H130     X    -0.00376   0.07903  -0.00108   0.00003  -0.00049   0.00016
    H130     Y     0.01006  -0.20997   0.00291  -0.00009   0.00063   0.00008
    H130     Z    -0.02169   0.45313  -0.00624   0.00017  -0.00151   0.00022
    H131     X    -0.01343   0.22463  -0.00296   0.00010  -0.00024   0.00002
    H131     Y    -0.00975   0.16369  -0.00218   0.00007   0.00024   0.00013
    H131     Z    -0.01423   0.23721  -0.00309   0.00010   0.00017   0.00010
    O2       X     0.00002  -0.00001   0.00000  -0.00003   0.00013  -0.00006
    O2       Y    -0.00001   0.00001   0.00001  -0.00002   0.00001  -0.00002
    O2       Z    -0.00007   0.00000   0.00000   0.00002  -0.00002   0.00002
    C104     X    -0.00007   0.00000   0.00001   0.00001  -0.00004   0.00001
    C104     Y    -0.00000  -0.00001  -0.00001   0.00001   0.00007  -0.00001
    C104     Z     0.00009  -0.00001  -0.00000  -0.00003   0.00016  -0.00002
    C105     X     0.00074   0.00001  -0.00004  -0.00001  -0.00003   0.00001
    C105     Y    -0.00002  -0.00002  -0.00009   0.00028  -0.00005   0.00003
    C105     Z     0.00026  -0.00001  -0.00005   0.00010  -0.00002   0.00001
    C106     X     0.00007  -0.00002   0.00000   0.00000  -0.00003   0.00001
    C106     Y    -0.00004   0.00001  -0.00000   0.00001   0.00002   0.00001
    C106     Z     0.00016  -0.00003  -0.00001  -0.00002  -0.00002  -0.00001
    C107     X    -0.00002   0.00001   0.00000   0.00001  -0.00002   0.00001
    C107     Y    -0.00003  -0.00000  -0.00003   0.00004  -0.00003   0.00002
    C107     Z     0.00007  -0.00001  -0.00001  -0.00000  -0.00006  -0.00000
    H108     X    -0.00607  -0.00003   0.00019   0.00067  -0.00008   0.00005
    H108     Y    -0.00093  -0.00008   0.00001   0.00027  -0.00000   0.00002
    H108     Z    -0.00461  -0.00003   0.00016   0.00049   0.00005   0.00004
    H109     X    -0.00219  -0.00013  -0.00019   0.00098   0.00030  -0.00002
    H109     Y     0.00140   0.00008   0.00017  -0.00084  -0.00005  -0.00005
    H109     Z     0.00114   0.00010   0.00018  -0.00071  -0.00024   0.00003
    H110     X     0.00029   0.00009   0.00038  -0.00154   0.00029  -0.00019
    H110     Y    -0.00066   0.00016   0.00088  -0.00302   0.00057  -0.00032
    H110     Z     0.00015   0.00006   0.00024  -0.00092   0.00020  -0.00010
    H111     X     0.00010  -0.00000   0.00001  -0.00004  -0.00006  -0.00000
    H111     Y     0.00079  -0.00004  -0.00000  -0.00025  -0.00009  -0.00011
    H111     Z    -0.00119   0.00004  -0.00000   0.00034   0.00010   0.00011
    H112     X    -0.00001   0.00003   0.00010  -0.00014   0.00013  -0.00008
    H112     Y     0.00000   0.00004   0.00023  -0.00026   0.00041  -0.00014
    H112     Z     0.00006   0.00002   0.00008  -0.00012   0.00013  -0.00007
    H113     X     0.00037  -0.00014  -0.00011   0.00002   0.00053  -0.00007
    H113     Y    -0.00023   0.00008   0.00007  -0.00005  -0.00023   0.00002
    H113     Z    -0.00016   0.00009   0.00009  -0.00007  -0.00007   0.00002
    H114     X     0.00037  -0.00005  -0.00007  -0.00001   0.00033  -0.00004
    H114     Y    -0.00031   0.00005   0.00006   0.00000  -0.00032   0.00003
    H114     Z    -0.00018   0.00004   0.00006  -0.00001  -0.00022   0.00003
    H115     X    -0.00155   0.00030   0.00004   0.00004   0.00009  -0.00002
    H115     Y     0.00022  -0.00001   0.00000   0.00000  -0.00001   0.00000
    H115     Z    -0.00101   0.00020   0.00003   0.00001   0.00018  -0.00003
    H116     X     0.00037  -0.00005  -0.00000  -0.00011  -0.00003  -0.00004
    H116     Y     0.00068  -0.00011  -0.00003  -0.00022   0.00004  -0.00013
    H116     Z    -0.00103   0.00020   0.00005   0.00031   0.00005   0.00018
  
  Number of imaginary frequencies:   1
   
  Writing vibrational animation data to L_Ar_OtBu_N_Ar_trans_PL145.vib
  Writing IR vibrational spectrum data to L_Ar_OtBu_N_Ar_trans_PL145_vib.spm
  rotational symmetry number:  1

  rotational temperatures (K):      0.003662      0.002603      0.002529
   
  The Quasi-Harmonic approximation will be applied to compute
  vibrational constributions to thermodynamic properties.
  Frequencies will be adjusted to a minimum value of  100.00 cm^-1.

    1 vibrational frequencies below    0.0 cm-1 not included in zero-point
  energy or thermochemical analysis.  Set freqcut to change the frequency
  cutoff value.

  vibrational temperatures:
       mode:      2        3        4        5        6        7
  temp. (K):   143.88   143.88   143.88   143.88   143.88   143.88
   
       mode:      8        9       10       11       12       13
  temp. (K):   143.88   143.88   143.88   143.88   143.88   143.88
   
       mode:     14       15       16       17       18       19
  temp. (K):   143.88   143.88   143.88   143.88   143.88   144.69
   
       mode:     20       21       22       23       24       25
  temp. (K):   150.97   158.79   170.97   176.96   189.41   199.59
   
       mode:     26       27       28       29       30       31
  temp. (K):   210.12   213.21   225.20   238.32   244.61   265.35
   
       mode:     32       33       34       35       36       37
  temp. (K):   282.57   284.54   297.40   303.82   306.85   319.05
   
       mode:     38       39       40       41       42       43
  temp. (K):   331.36   339.63   342.25   364.70   372.61   389.76
   
       mode:     44       45       46       47       48       49
  temp. (K):   404.01   410.83   415.27   421.26   449.05   456.44
   
       mode:     50       51       52       53       54       55
  temp. (K):   467.65   480.95   488.83   500.18   506.47   508.09
   
       mode:     56       57       58       59       60       61
  temp. (K):   525.92   529.66   544.39   551.54   560.99   573.65
   
       mode:     62       63       64       65       66       67
  temp. (K):   588.05   597.80   606.12   620.70   638.52   644.09
   
       mode:     68       69       70       71       72       73
  temp. (K):   661.92   680.97   685.02   688.10   698.48   705.43
   
       mode:     74       75       76       77       78       79
  temp. (K):   738.00   755.83   757.37   764.78   780.01   789.56
   
       mode:     80       81       82       83       84       85
  temp. (K):   792.91   819.57   829.98   834.05   843.94   860.89
   
       mode:     86       87       88       89       90       91
  temp. (K):   907.39   910.85   913.38   915.61   979.01  1022.29
   
       mode:     92       93       94       95       96       97
  temp. (K):  1031.51  1043.62  1053.57  1074.48  1086.32  1105.51
   
       mode:     98       99      100      101      102      103
  temp. (K):  1108.86  1110.69  1131.13  1136.61  1159.19  1165.34
   
       mode:    104      105      106      107      108      109
  temp. (K):  1177.19  1189.09  1195.25  1195.83  1196.66  1200.15
   
       mode:    110      111      112      113      114      115
  temp. (K):  1211.99  1221.77  1241.19  1260.40  1268.75  1304.53
   
       mode:    116      117      118      119      120      121
  temp. (K):  1306.46  1307.74  1313.27  1314.92  1315.99  1328.76
   
       mode:    122      123      124      125      126      127
  temp. (K):  1333.55  1350.23  1358.50  1358.66  1364.21  1378.15
   
       mode:    128      129      130      131      132      133
  temp. (K):  1387.49  1412.22  1415.52  1427.69  1434.18  1445.85
   
       mode:    134      135      136      137      138      139
  temp. (K):  1464.96  1470.38  1471.36  1473.64  1484.35  1485.92
   
       mode:    140      141      142      143      144      145
  temp. (K):  1511.96  1518.10  1527.39  1532.61  1533.87  1539.60
   
       mode:    146      147      148      149      150      151
  temp. (K):  1541.02  1554.56  1556.47  1560.20  1589.64  1598.42
   
       mode:    152      153      154      155      156      157
  temp. (K):  1600.87  1605.02  1605.71  1610.12  1622.08  1629.89
   
       mode:    158      159      160      161      162      163
  temp. (K):  1638.09  1645.32  1661.35  1664.68  1682.56  1705.22
   
       mode:    164      165      166      167      168      169
  temp. (K):  1710.10  1721.60  1727.09  1734.31  1741.99  1743.55
   
       mode:    170      171      172      173      174      175
  temp. (K):  1749.80  1757.48  1760.70  1765.01  1778.09  1782.14
   
       mode:    176      177      178      179      180      181
  temp. (K):  1786.31  1804.78  1809.68  1813.09  1828.86  1842.36
   
       mode:    182      183      184      185      186      187
  temp. (K):  1851.01  1860.07  1869.93  1878.33  1883.96  1890.09
   
       mode:    188      189      190      191      192      193
  temp. (K):  1895.96  1897.82  1903.32  1907.06  1927.93  1929.98
   
       mode:    194      195      196      197      198      199
  temp. (K):  1932.95  1935.69  1939.85  1972.15  1976.47  1980.43
   
       mode:    200      201      202      203      204      205
  temp. (K):  1986.95  1989.46  2002.62  2003.54  2013.97  2017.01
   
       mode:    206      207      208      209      210      211
  temp. (K):  2018.20  2019.57  2020.92  2022.97  2025.54  2026.52
   
       mode:    212      213      214      215      216      217
  temp. (K):  2051.69  2061.46  2117.89  2129.05  2148.86  2149.46
   
       mode:    218      219      220      221      222      223
  temp. (K):  2156.65  2165.94  2169.09  2170.94  2171.98  2172.46
   
       mode:    224      225      226      227      228      229
  temp. (K):  2173.83  2176.48  2180.13  2182.94  2184.70  2187.38
   
       mode:    230      231      232      233      234      235
  temp. (K):  2189.33  2195.17  2197.85  2199.47  2200.19  2200.94
   
       mode:    236      237      238      239      240      241
  temp. (K):  2202.99  2204.24  2210.74  2212.40  2219.01  2225.35
   
       mode:    242      243      244      245      246      247
  temp. (K):  2235.67  2335.12  2363.29  2369.70  2377.76  2385.20
   
       mode:    248      249      250      251      252      253
  temp. (K):  2389.57  2409.65  2419.04  2441.58  4344.02  4353.73
   
       mode:    254      255      256      257      258      259
  temp. (K):  4355.80  4356.25  4358.91  4363.26  4363.78  4364.99
   
       mode:    260      261      262      263      264      265
  temp. (K):  4367.65  4368.94  4370.54  4372.92  4380.75  4381.64
   
       mode:    266      267      268      269      270      271
  temp. (K):  4382.83  4390.59  4431.95  4437.27  4437.89  4438.51
   
       mode:    272      273      274      275      276      277
  temp. (K):  4447.73  4452.92  4466.14  4468.26  4469.38  4478.75
   
       mode:    278      279      280      281      282      283
  temp. (K):  4482.86  4496.35  4497.75  4510.33  4510.74  4522.41
   
       mode:    284      285      286      287      288      289
  temp. (K):  4535.51  4550.79  4555.46  4557.62  4562.79  4575.38
   
       mode:    290      291      292      293      294      295
  temp. (K):  4583.36  4588.12  4590.23  4596.37  4600.51  4602.59
   
       mode:    296      297      298      299      300      301
  temp. (K):  4615.51  4617.53  4618.18  4626.17  4627.64  4633.25
   
       mode:    302      303      304      305      306
  temp. (K):  4636.09  4644.02  4667.79  5061.58  5159.26
   
   
  Thermodynamic properties calculated assuming an ideal gas

  In the table below, the units for temperature
  are kelvins, the units for U, H, and G are
  kcal/mol and the units for Cv and S are cal/(mol K)

  The zero point energy (ZPE):    564.274 kcal/mol
  is not included in U, H, or G in the table below
  
 
  =============================================================================
  Thermodynamic properties for P = 1.00E+00 atm, calculated at   1 temperatures


  T =   298.15 K, P = 1.00E+00 atm
   
                  U         Cv          S          H          G        ln(Q)
              =========  =========  =========  =========  =========  =========
  trans.          0.889      2.981     45.831      1.481    -12.183   20.56285
  rot.            0.889      2.981     38.530      0.889    -10.599   17.88919
  vib.           27.913    185.338    169.778     27.913    -22.706   38.32393
  elec.           0.000      0.000      0.000      0.000      0.000    0.00000
  ----------------------------------------------------------------------------
  total          29.690    191.300    254.139     30.283    -45.489   76.77598
   
   Total internal energy, Utot(SCFE + ZPE + U):   -2480.441474 hartrees
   Total enthalpy, Htot (Utot + nRT), with n=1:   -2480.440530 hartrees
    Total Gibbs free energy, Gtot (Htot - T*S):   -2480.561280 hartrees
   
  end of program freq
   
 Time(freq)  user:       0.895  user+sys:       0.895  wallclock:       0.926
  
  start of program post
  
  Writing input files for PBF
  end of program post
   
 Time(post)  user:       0.328  user+sys:       0.328  wallclock:       0.420

 Total cpu seconds     user:  226056.471   user+sys:  226056.471
  
 Total elapsed time:    32968 seconds

Job L_Ar_OtBu_N_Ar_trans_PL145 completed on bp1-compute194 at Tue Nov 25 05:23:28 2025
