Job L_Ar_Br_N_Na_N_trans_PL145 started on bp1-compute122 at Tue Dec  2 19:03:31 2025
jobid: bp1-compute122-0-692f37fe

  +--------------------------------------------------------------------+
  |  Jaguar version 12.5, release 138                                  |
  |                                                                    |
  |  Copyright Schrodinger, Inc.                                       |
  |  All Rights Reserved.                                              |
  |                                                                    |
  |  The following have contributed to Jaguar (listed alphabetically): |
  |  Ty Balduf, Mike Beachy, Chandler Bennett, Art Bochevarov,         |
  |  Dale Braden, Yixiang Cao, Alan Chien, Chris Cortis,               |
  |  Rich Friesner, Jim Furness, Bill Goddard, Hod Greeley,            |
  |  Tom Hughes, Leif Jacobson, Jean-Marc Langlois, Daniel Levine,     |
  |  Rob Murphy, Dean Philipp, Tom Pollard, Murco Ringnalda,           |
  |  Daniel Mainz, Pablo Videla, Mark Watson, Haoyu Yu.                |
  |                                                                    |
  |  Use of this program should be acknowledged in publications as:    |
  |                                                                    |
  |  Jaguar, version 12.5, Schrodinger, Inc., New York, NY, 2024.      |
  |                                                                    |
  |  A. D. Bochevarov, E. Harder, T. F. Hughes, J. R. Greenwood,       |
  |  D. A. Braden, D. M. Philipp, D. Rinaldo, M. D. Halls,             |
  |  J. Zhang, R. A. Friesner, "Jaguar: A High-Performance Quantum     |
  |  Chemistry Software Program with Strengths in Life and Materials   |
  |  Sciences", Int. J. Quantum Chem., 2013, 113(18), 2110-2142.       |
  +--------------------------------------------------------------------+
  
  start of program pre
  
  Job name: L_Ar_Br_N_Na_N_trans_PL145
  Executables used: /software/local/apps/schrodinger2024-3/jaguar-v12.5/bin/Linux-x86_64
  Temporary files : /tmp/ar21627/L_Ar_Br_N_Na_N_trans_PL145#bp1-compute122-0-692f37fe
  Basis file : using default basis file from /software/local/apps/schrodinger2024-3
  Maestro file (input):  L_Ar_Br_N_Na_N_trans_PL145.mae
  Maestro file (output): L_Ar_Br_N_Na_N_trans_PL145.01.mae
  
 Contents of input file: &gen and (if present) &atomic sections only
 ----------------Contents start----------------
&gen
dftname=b3pw91-d3
basis=6-31G*
numd=5
ip11=2
iaccg=3
isolv=2
igeopt=1
solvent=benzene
ifreq=1
&
&atomic
atom basis
Pd2 lacv3p*
Br3 lacv3p*
&
 -----------------Contents end-----------------
 
  PS calculation requested. Using PS version of 6-31g*
  basis set:               non_standard                    
  net molecular charge:    0
  multiplicity:            1
  
  Using up to  18 threads per process
  
  This run will use ECP on            2  atoms
  number of basis functions....          754
  
 Input geometry:
                                   angstroms
  atom               x                 y                 z
  P1            0.0000000000      0.0000000000      0.0000000000 
  Pd2           0.0000000000      0.0000000000      2.2961784832 
  C73           4.7243174153      0.0000000000      2.6034798033 
  C74           4.0995783640      1.2235183802      2.4120153493 
  C75           2.7057078994      1.2632887745      2.3182738801 
  C76           1.9614546848      0.0851334812      2.4062921003 
  C77           2.6143769654     -1.1338539591      2.6230633963 
  C78           4.0057367226     -1.1814600339      2.7190339662 
  F79           6.0718364876     -0.0432510002      2.6879825947 
  H80           4.6975140575      2.1281735329      2.3457734920 
  H82           2.0438509426     -2.0547683030      2.7134860156 
  H83           4.5325965268     -2.1176658405      2.8813143981 
  H14           2.2154469909      2.2223556889      2.1842114402 
  C3           -1.5976762032      0.9194354809     -0.3530664019 
  C4            1.4469472160      0.8200309090     -0.8246551197 
  C5           -0.1227942698     -1.6539116127     -0.7817084985 
  C6           -2.2535159123      0.8195272414     -1.7380966455 
  C7           -3.5803158111      1.5885012603     -1.7647382606 
  C8           -3.3946796832      3.0488918304     -1.3520713677 
  C9           -2.7594363215      3.1406571540      0.0358921951 
  C10          -1.4295273838      2.3846482454      0.0923008183 
  C11           2.6477217262     -0.1406926508     -0.7677366929 
  C12           3.9309803179      0.5988890026     -1.1491275644 
  C13           3.8066728787      1.2288491446     -2.5396128126 
  C14           2.5742196909      2.1335713898     -2.6367069008 
  C15           1.2902844420      1.3893380653     -2.2410932664 
  C16          -0.0942420265     -1.7402391414     -2.1859338602 
  C17          -0.1656959446     -2.9599727924     -2.8484166305 
  C18          -0.2675610750     -4.1362581032     -2.1075534030 
  C19          -0.2634883453     -4.0681256407     -0.7205069744 
  C20          -0.1779951681     -2.8455869953     -0.0313421386 
  C21          -0.1088810417     -2.9672734595      1.4548040562 
  C22           1.0124874308     -3.6019038168      2.0341788743 
  C23           1.0211173386     -3.9414484484      3.3911491588 
  C24          -0.0951046367     -3.6543195976      4.1742011382 
  C25          -1.1968093955     -2.9903987328      3.6484285342 
  C26          -1.1686872466     -2.6150118324      2.3046508472 
  O27          -2.1378367020     -1.8070011416      1.7358511434 
  C28          -3.4522050961     -1.8207043445      2.3133585815 
  O29           2.0437197804     -3.8481336306      1.1862029453 
  C30           3.1975157422     -4.4952338193      1.6941490491 
  H31          -2.2845797011      0.4377042416      0.3606131038 
  H32          -1.5867926796      1.2291282087     -2.5083709216 
  H33          -2.4393702291     -0.2284375313     -1.9930850954 
  H34          -4.2903340653      1.1041425673     -1.0777189736 
  H35          -4.0200349496      1.5202241210     -2.7682816377 
  H36          -2.7444198225      3.5525503312     -2.0833331301 
  H37          -4.3560662362      3.5772847347     -1.3702082156 
  H38          -3.4458136412      2.7119012312      0.7809795752 
  H39          -2.5992078867      4.1875329637      0.3228231734 
  H40          -1.0309719911      2.4116150138      1.1129527262 
  H41          -0.6971254714      2.8890121185     -0.5535187049 
  H42           1.6572137125      1.6583894366     -0.1463613878 
  H43           2.7426640949     -0.5825387843      0.2295509522 
  H44           2.4728123457     -0.9733134638     -1.4635720381 
  H45           4.7831800285     -0.0920653844     -1.1167768702 
  H46           4.1273615676      1.3778071871     -0.3981691995 
  H47           4.7128225218      1.7965803910     -2.7871231022 
  H48           3.7224364026      0.4272282923     -3.2892863058 
  H49           2.4722663499      2.5343901301     -3.6536210715 
  H50           2.7037533238      2.9979413784     -1.9683531867 
  H51           1.1123369525      0.5764912322     -2.9575890521 
  H52           0.4347066652      2.0706898532     -2.3039174502 
  H53          -0.0060251457     -0.8370532008     -2.7778226846 
  H54          -0.1416131827     -2.9876886815     -3.9355465978 
  H55          -0.3360041277     -5.1011505879     -2.6052457379 
  H56          -0.3152477582     -4.9834531779     -0.1368596581 
  H57           1.8792701289     -4.4316016843      3.8387027777 
  H58          -0.0912657818     -3.9260271525      5.2270700908 
  H59          -2.0192357784     -2.6967340504      4.2893173460 
  H60          -4.0848960597     -1.2801910765      1.6076763142 
  H61          -3.4581558334     -1.3060618698      3.2783621028 
  H62          -3.8034696785     -2.8524191472      2.4180019059 
  H63           3.6792532980     -3.9008166657      2.4821052024 
  H64           3.8802354350     -4.5916682606      0.8477898839 
  H65           2.9621700907     -5.4946107091      2.0860716530 
  N104          0.0346946859      0.0050120223      4.4474484759 
  H105          0.5570964960     -0.8456887315      4.6605748468 
  C107          0.6517793268      1.0775776986      5.0949430798 
  C108          1.7977861158      3.2851366804      6.4628091205 
  C109          1.7292150665      0.9058606545      5.9896227469 
  C110          0.1742211499      2.3938301384      4.8923711886 
  C111          0.7388431344      3.4716410221      5.5695469532 
  C112          2.2897204136      1.9910085932      6.6569595034 
  H113          2.1424320905     -0.0929057500      6.1286478985 
  H114         -0.6286833482      2.5450074537      4.1717405584 
  H115          0.3527836247      4.4736532333      5.3838965453 
  H116          3.1310446203      1.8248728940      7.3284536070 
  H117          2.2440019944      4.1314028850      6.9801850046 
  Na119        -2.0629831442      0.4430122592      5.6989022154 
  Br3          -3.1830921975      1.4208777318      3.3192988805 
   
  principal moments of inertia:
        amu*angstrom^2:              7675.07037              8298.88245              9786.17427
                g*cm^2:          1.27447526E-36          1.37806168E-36          1.62503227E-36
   
  rotational constants:
               cm^(-1):      0.00219641      0.00203131      0.00172260
                   GHz:      0.06584682      0.06089724      0.05164214
   
  Molecular weight:     805.13 amu
   
  Stoichiometry: NaPdC38PNH45BrO2F
  Molecular Point Group: C1      
  Point Group used: C1
  
 
Number of optimization coordinates:   311
Number of independent coordinates:    311
Number of non-redundant coordinates:  267
Number of frozen coordinates:           0
Number of harmonic constraints:         0
 
Number of geometric degrees of freedom:   267
Maximum geometric degrees of freedom:     267
 " " " " " excluding dummy atoms:         267
 
 
  bond lengths (angstroms):
 
 P1      -Pd2     :   2.296178      P1      -C3      :   1.876856
 P1      -C4      :   1.856384      P1      -C5      :   1.833459
 Pd2     -C76     :   1.966387      Pd2     -N104    :   2.151556
 C73     -C74     :   1.387067      C73     -C78     :   1.387645
 C73     -F79     :   1.350859      C74     -C75     :   1.397585
 C74     -H80     :   1.086424      C75     -C76     :   1.396320
 C75     -H14     :   1.085421      C76     -C77     :   1.399724
 C77     -C78     :   1.395478      C77     -H82     :   1.087088
 C78     -H83     :   1.086461      C3      -C6      :   1.535714
 C3      -C10     :   1.540608      C3      -H31     :   1.101472
 C4      -C11     :   1.538860      C4      -C15     :   1.534585
 C4      -H42     :   1.098699      C5      -C16     :   1.407166
 C5      -C20     :   1.409321      C6      -C7      :   1.533763
 C6      -H32     :   1.098005      C6      -H33     :   1.094436
 C7      -C8      :   1.528887      C7      -H34     :   1.100329
 C7      -H35     :   1.097777      C8      -C9      :   1.529182
 C8      -H36     :   1.100570      C8      -H37     :   1.097175
 C9      -C10     :   1.530813      C9      -H38     :   1.100046
 C9      -H39     :   1.097247      C10     -H40     :   1.096040
 C10     -H41     :   1.099035      C11     -C12     :   1.529442
 C11     -H43     :   1.094909      C11     -H44     :   1.099108
 C12     -C13     :   1.531585      C12     -H45     :   1.097592
 C12     -H46     :   1.099644      C13     -C14     :   1.531956
 C13     -H47     :   1.097582      C13     -H48     :   1.100773
 C14     -C15     :   1.535866      C14     -H49     :   1.097800
 C14     -H50     :   1.100278      C15     -H51     :   1.098067
 C15     -H52     :   1.095537      C16     -C17     :   1.389870
 C16     -H53     :   1.083448      C17     -C18     :   1.393880
 C17     -H54     :   1.087750      C18     -C19     :   1.388725
 C18     -H55     :   1.087842      C19     -C20     :   1.406008
 C19     -H56     :   1.086806      C20     -C21     :   1.492721
 C21     -C22     :   1.412763      C21     -C26     :   1.403395
 C22     -C23     :   1.398833      C22     -O29     :   1.357620
 C23     -C24     :   1.393400      C23     -H57     :   1.084887
 C24     -C25     :   1.389597      C24     -H58     :   1.087370
 C25     -C26     :   1.395509      C25     -H59     :   1.083219
 C26     -O27     :   1.384076      O27     -C28     :   1.435711
 C28     -H60     :   1.091073      C28     -H61     :   1.093675
 C28     -H62     :   1.094885      O29     -C30     :   1.417037
 C30     -H63     :   1.098307      C30     -H64     :   1.091664
 C30     -H65     :   1.098975      N104    -H105    :   1.020793
 N104    -C107    :   1.396581      N104    -Na119   :   2.481579
 C107    -C109    :   1.410959      C107    -C110    :   1.414785
 C108    -C111    :   1.397877      C108    -C112    :   1.398020
 C108    -H117    :   1.087636      C109    -C112    :   1.391780
 C109    -H113    :   1.089775      C110    -C111    :   1.392495
 C110    -H114    :   1.089412      C111    -H115    :   1.089741
 C112    -H116    :   1.089189      Na119   -Br3     :   2.805954
 
  bond angles:
 
 C3      -P1      -Pd2     : 100.842852  C4      -P1      -Pd2     : 116.373860
 C4      -P1      -C3      : 111.317691  C5      -P1      -Pd2     : 115.236609
 C5      -P1      -C3      : 107.739594  C5      -P1      -C4      : 105.146060
 C76     -Pd2     -P1      :  93.210125  N104    -Pd2     -P1      : 179.066451
 N104    -Pd2     -C76     :  85.861003  C78     -C73     -C74     : 121.956890
 F79     -C73     -C74     : 119.088928  F79     -C73     -C78     : 118.953028
 C75     -C74     -C73     : 118.918539  H80     -C74     -C73     : 119.672158
 H80     -C74     -C75     : 121.407595  C76     -C75     -C74     : 120.222235
 H14     -C75     -C74     : 118.940828  H14     -C75     -C76     : 120.835305
 C75     -C76     -Pd2     : 124.379628  C77     -C76     -Pd2     : 115.865697
 C77     -C76     -C75     : 119.731769  C78     -C77     -C76     : 120.361133
 H82     -C77     -C76     : 120.386136  H82     -C77     -C78     : 119.252000
 C77     -C78     -C73     : 118.786105  H83     -C78     -C73     : 119.668772
 H83     -C78     -C77     : 121.545121  C6      -C3      -P1      : 120.087531
 C10     -C3      -P1      : 108.579227  C10     -C3      -C6      : 111.666548
 H31     -C3      -P1      : 101.228566  H31     -C3      -C6      : 106.832905
 H31     -C3      -C10     : 107.259867  C11     -C4      -P1      : 108.420651
 C15     -C4      -P1      : 119.625637  C15     -C4      -C11     : 110.206708
 H42     -C4      -P1      : 102.238698  H42     -C4      -C11     : 107.710630
 H42     -C4      -C15     : 107.835763  C16     -C5      -P1      : 118.649364
 C20     -C5      -P1      : 122.573394  C20     -C5      -C16     : 118.700995
 C7      -C6      -C3      : 110.639131  H32     -C6      -C3      : 110.432538
 H32     -C6      -C7      : 109.029932  H33     -C6      -C3      : 110.178239
 H33     -C6      -C7      : 109.215736  H33     -C6      -H32     : 107.269804
 C8      -C7      -C6      : 111.664991  H34     -C7      -C6      : 109.066307
 H34     -C7      -C8      : 109.286659  H35     -C7      -C6      : 109.341655
 H35     -C7      -C8      : 110.780461  H35     -C7      -H34     : 106.554807
 C9      -C8      -C7      : 110.655434  H36     -C8      -C7      : 109.240244
 H36     -C8      -C9      : 109.279324  H37     -C8      -C7      : 110.436199
 H37     -C8      -C9      : 110.493755  H37     -C8      -H36     : 106.638879
 C10     -C9      -C8      : 111.389388  H38     -C9      -C8      : 109.401480
 H38     -C9      -C10     : 108.942486  H39     -C9      -C8      : 110.809862
 H39     -C9      -C10     : 109.553707  H39     -C9      -H38     : 106.610428
 C9      -C10     -C3      : 111.359540  H40     -C10     -C3      : 109.407796
 H40     -C10     -C9      : 109.759474  H41     -C10     -C3      : 109.835279
 H41     -C10     -C9      : 109.308344  H41     -C10     -H40     : 107.072934
 C12     -C11     -C4      : 110.095497  H43     -C11     -C4      : 110.688620
 H43     -C11     -C12     : 110.457821  H44     -C11     -C4      : 108.986705
 H44     -C11     -C12     : 109.996977  H44     -C11     -H43     : 106.543385
 C13     -C12     -C11     : 110.927724  H45     -C12     -C11     : 109.857926
 H45     -C12     -C13     : 110.408099  H46     -C12     -C11     : 108.788227
 H46     -C12     -C13     : 110.068476  H46     -C12     -H45     : 106.685820
 C14     -C13     -C12     : 111.453303  H47     -C13     -C12     : 110.516505
 H47     -C13     -C14     : 110.146091  H48     -C13     -C12     : 108.964335
 H48     -C13     -C14     : 108.986354  H48     -C13     -H47     : 106.635555
 C15     -C14     -C13     : 111.717940  H49     -C14     -C13     : 110.428960
 H49     -C14     -C15     : 109.748340  H50     -C14     -C13     : 109.313318
 H50     -C14     -C15     : 108.821705  H50     -C14     -H49     : 106.665864
 C14     -C15     -C4      : 109.401000  H51     -C15     -C4      : 110.132482
 H51     -C15     -C14     : 109.032338  H52     -C15     -C4      : 111.308283
 H52     -C15     -C14     : 109.677294  H52     -C15     -H51     : 107.242121
 C17     -C16     -C5      : 121.900804  H53     -C16     -C5      : 119.713946
 H53     -C16     -C17     : 118.383300  C18     -C17     -C16     : 119.406460
 H54     -C17     -C16     : 119.841471  H54     -C17     -C18     : 120.752069
 C19     -C18     -C17     : 119.291455  H55     -C18     -C17     : 120.660102
 H55     -C18     -C19     : 120.043158  C20     -C19     -C18     : 122.167916
 H56     -C19     -C18     : 119.664536  H56     -C19     -C20     : 118.163169
 C19     -C20     -C5      : 118.465925  C21     -C20     -C5      : 126.669835
 C21     -C20     -C19     : 114.830250  C22     -C21     -C20     : 118.794203
 C26     -C21     -C20     : 123.193667  C26     -C21     -C22     : 117.634217
 C23     -C22     -C21     : 120.781382  O29     -C22     -C21     : 115.355862
 O29     -C22     -C23     : 123.862498  C24     -C23     -C22     : 119.353277
 H57     -C23     -C22     : 120.979836  H57     -C23     -C24     : 119.664756
 C25     -C24     -C23     : 121.395060  H58     -C24     -C23     : 119.328945
 H58     -C24     -C25     : 119.244853  C26     -C25     -C24     : 118.481924
 H59     -C25     -C24     : 120.505011  H59     -C25     -C26     : 120.803424
 C25     -C26     -C21     : 122.060547  O27     -C26     -C21     : 115.242831
 O27     -C26     -C25     : 122.591983  C28     -O27     -C26     : 118.044377
 H60     -C28     -O27     : 105.425078  H61     -C28     -O27     : 110.818606
 H61     -C28     -H60     : 109.536945  H62     -C28     -O27     : 109.946737
 H62     -C28     -H60     : 110.034796  H62     -C28     -H61     : 110.936767
 C30     -O29     -C22     : 118.516409  H63     -C30     -O29     : 111.540276
 H64     -C30     -O29     : 105.762255  H64     -C30     -H63     : 109.251593
 H65     -C30     -O29     : 111.637834  H65     -C30     -H63     : 109.283364
 H65     -C30     -H64     : 109.274014  H105    -N104    -Pd2     : 102.419541
 C107    -N104    -Pd2     : 118.195451  C107    -N104    -H105    : 108.487798
 Na119   -N104    -Pd2     : 119.407043  Na119   -N104    -H105    : 118.319786
 Na119   -N104    -C107    :  90.237256  C109    -C107    -N104    : 122.542486
 C110    -C107    -N104    : 119.932306  C110    -C107    -C109    : 117.501730
 C112    -C108    -C111    : 118.607650  H117    -C108    -C111    : 120.727032
 H117    -C108    -C112    : 120.652655  C112    -C109    -C107    : 121.109652
 H113    -C109    -C107    : 118.814655  H113    -C109    -C112    : 120.046190
 C111    -C110    -C107    : 120.904633  H114    -C110    -C107    : 118.202765
 H114    -C110    -C111    : 120.871316  C110    -C111    -C108    : 120.973939
 H115    -C111    -C108    : 119.994206  H115    -C111    -C110    : 119.026131
 C109    -C112    -C108    : 120.893445  H116    -C112    -C108    : 119.908538
 H116    -C112    -C109    : 119.193332  Br3     -Na119   -N104    :  88.353850
 
  torsional angles:
 
 P1      -Pd2     -C76     -C75     :  83.403782
 P1      -Pd2     -C76     -C77     : -98.348125
 P1      -Pd2     -N104    -H105    : -66.852724
 P1      -Pd2     -N104    -C107    :  52.256525
 P1      -Pd2     -N104    -Na119   : 160.168354
 P1      -C3      -C6      -C7      : 176.916650
 P1      -C3      -C6      -H32     : -62.277014
 P1      -C3      -C6      -H33     :  56.045091
 P1      -C3      -C10     -C9      :-171.185922
 P1      -C3      -C10     -H40     : -49.675278
 P1      -C3      -C10     -H41     :  67.582359
 P1      -C4      -C11     -C12     :-167.473816
 P1      -C4      -C11     -H43     : -45.062523
 P1      -C4      -C11     -H44     :  71.797693
 P1      -C4      -C15     -C14     : 174.301367
 P1      -C4      -C15     -H51     : -65.874649
 P1      -C4      -C15     -H52     :  52.931904
 P1      -C5      -C16     -C17     : 179.182654
 P1      -C5      -C16     -H53     :  -0.301026
 P1      -C5      -C20     -C19     :-179.625632
 P1      -C5      -C20     -C21     :  -1.864658
 Pd2     -P1      -C3      -C6      :-161.859531
 Pd2     -P1      -C3      -C10     :  67.981564
 Pd2     -P1      -C3      -H31     : -44.715481
 Pd2     -P1      -C4      -C11     :  77.956444
 Pd2     -P1      -C4      -C15     :-154.583313
 Pd2     -P1      -C4      -H42     : -35.642994
 Pd2     -P1      -C5      -C16     :-178.382103
 Pd2     -P1      -C5      -C20     :  -1.601091
 Pd2     -C76     -C75     -C74     : 179.805509
 Pd2     -C76     -C75     -H14     :   0.275094
 Pd2     -C76     -C77     -C78     :-179.893459
 Pd2     -C76     -C77     -H82     :   0.419800
 Pd2     -N104    -C107    -C109    :-121.833649
 Pd2     -N104    -C107    -C110    :  59.973680
 Pd2     -N104    -Na119   -Br3     : -15.416306
 C73     -C74     -C75     -C76     :  -0.498404
 C73     -C74     -C75     -H14     : 179.040852
 C73     -C78     -C77     -C76     :   0.370704
 C73     -C78     -C77     -H82     :-179.939021
 C74     -C73     -C78     -C77     :   0.780447
 C74     -C73     -C78     -H83     :-179.205606
 C74     -C75     -C76     -C77     :   1.620913
 C75     -C74     -C73     -C78     :  -0.717896
 C75     -C74     -C73     -F79     : 179.677110
 C75     -C76     -Pd2     -N104    : -96.502693
 C75     -C76     -C77     -C78     :  -1.558504
 C75     -C76     -C77     -H82     : 178.754756
 C76     -Pd2     -P1      -C3      :-147.595043
 C76     -Pd2     -P1      -C4      : -27.056342
 C76     -Pd2     -P1      -C5      :  96.731383
 C76     -Pd2     -N104    -H105    : -61.111865
 C76     -Pd2     -N104    -C107    :  57.997385
 C76     -Pd2     -N104    -Na119   : 165.909213
 C76     -C75     -C74     -H80     : 179.978636
 C76     -C77     -C78     -H83     :-179.643515
 C77     -C76     -Pd2     -N104    :  81.745400
 C77     -C76     -C75     -H14     :-177.909502
 C77     -C78     -C73     -F79     :-179.614040
 C78     -C73     -C74     -H80     : 178.813514
 F79     -C73     -C74     -H80     :  -0.791480
 F79     -C73     -C78     -H83     :   0.399907
 H80     -C74     -C75     -H14     :  -0.482108
 H82     -C77     -C78     -H83     :   0.046759
 C3      -P1      -Pd2     -N104    :-141.860178
 C3      -P1      -C4      -C11     :-167.279211
 C3      -P1      -C4      -C15     : -39.818968
 C3      -P1      -C4      -H42     :  79.121351
 C3      -P1      -C5      -C16     :  69.955821
 C3      -P1      -C5      -C20     :-113.263167
 C3      -C6      -C7      -C8      :  55.903256
 C3      -C6      -C7      -H34     : -64.982280
 C3      -C6      -C7      -H35     : 178.861455
 C3      -C10     -C9      -C8      : -54.980098
 C3      -C10     -C9      -H38     :  65.791135
 C3      -C10     -C9      -H39     :-177.937411
 C4      -P1      -Pd2     -N104    : -21.321477
 C4      -P1      -C3      -C6      :  74.066272
 C4      -P1      -C3      -C10     : -56.092634
 C4      -P1      -C3      -H31     :-168.789678
 C4      -P1      -C5      -C16     : -48.861319
 C4      -P1      -C5      -C20     : 127.919693
 C4      -C11     -C12     -C13     : -57.102571
 C4      -C11     -C12     -H45     :-179.449935
 C4      -C11     -C12     -H46     :  64.105898
 C4      -C15     -C14     -C13     :  56.578717
 C4      -C15     -C14     -H49     : 179.411477
 C4      -C15     -C14     -H50     : -64.210464
 C5      -P1      -Pd2     -N104    : 102.466248
 C5      -P1      -C3      -C6      : -40.724823
 C5      -P1      -C3      -C10     :-170.883728
 C5      -P1      -C3      -H31     :  76.419227
 C5      -P1      -C4      -C11     : -50.889688
 C5      -P1      -C4      -C15     :  76.570555
 C5      -P1      -C4      -H42     :-164.489126
 C5      -C16     -C17     -C18     :  -0.056828
 C5      -C16     -C17     -H54     : 179.949162
 C5      -C20     -C19     -C18     :   1.331662
 C5      -C20     -C19     -H56     :-179.432764
 C5      -C20     -C21     -C22     :-113.425427
 C5      -C20     -C21     -C26     :  73.806017
 C6      -C3      -C10     -C9      :  54.175702
 C6      -C3      -C10     -H40     : 175.686345
 C6      -C3      -C10     -H41     : -67.056018
 C6      -C7      -C8      -C9      : -56.871302
 C6      -C7      -C8      -H36     :  63.480349
 C6      -C7      -C8      -H37     :-179.538318
 C7      -C6      -C3      -C10     : -54.298333
 C7      -C6      -C3      -H31     :  62.685990
 C7      -C8      -C9      -C10     :  56.178614
 C7      -C8      -C9      -H38     : -64.323163
 C7      -C8      -C9      -H39     : 178.413830
 C8      -C7      -C6      -H32     : -65.733073
 C8      -C7      -C6      -H33     : 177.344751
 C8      -C9      -C10     -H40     :-176.285838
 C8      -C9      -C10     -H41     :  66.558714
 C9      -C8      -C7      -H34     :  63.885790
 C9      -C8      -C7      -H35     :-179.006204
 C9      -C10     -C3      -H31     : -62.550073
 C10     -C3      -C6      -H32     :  66.508003
 C10     -C3      -C6      -H33     :-175.169892
 C10     -C9      -C8      -H36     : -64.149706
 C10     -C9      -C8      -H37     : 178.812109
 C11     -C4      -C15     -C14     : -59.067729
 C11     -C4      -C15     -H51     :  60.756255
 C11     -C4      -C15     -H52     : 179.562808
 C11     -C12     -C13     -C14     :  54.544884
 C11     -C12     -C13     -H47     : 177.376352
 C11     -C12     -C13     -H48     : -65.764001
 C12     -C11     -C4      -C15     :  59.855525
 C12     -C11     -C4      -H42     : -57.541524
 C12     -C13     -C14     -C15     : -54.618201
 C12     -C13     -C14     -H49     :-177.062309
 C12     -C13     -C14     -H50     :  65.884175
 C13     -C12     -C11     -H43     :-179.649952
 C13     -C12     -C11     -H44     :  63.016990
 C13     -C14     -C15     -H51     : -63.918771
 C13     -C14     -C15     -H52     : 178.929063
 C14     -C13     -C12     -H45     : 176.571802
 C14     -C13     -C12     -H46     : -65.906973
 C14     -C15     -C4      -H42     :  58.251799
 C15     -C4      -C11     -H43     :-177.733182
 C15     -C4      -C11     -H44     : -60.872967
 C15     -C14     -C13     -H47     :-177.661522
 C15     -C14     -C13     -H48     :  65.677728
 C16     -C5      -C20     -C19     :  -2.846208
 C16     -C5      -C20     -C21     : 174.914766
 C16     -C17     -C18     -C19     :  -1.525182
 C16     -C17     -C18     -H55     : 179.310788
 C17     -C16     -C5      -C20     :   2.275143
 C17     -C18     -C19     -C20     :   0.887985
 C17     -C18     -C19     -H56     :-178.336442
 C18     -C17     -C16     -H53     : 179.433470
 C18     -C19     -C20     -C21     :-176.689616
 C19     -C18     -C17     -H54     : 178.468773
 C19     -C20     -C21     -C22     :  64.405783
 C19     -C20     -C21     -C26     :-108.362773
 C20     -C5      -C16     -H53     :-177.208537
 C20     -C19     -C18     -H55     :-179.942730
 C20     -C21     -C22     -C23     :-169.123641
 C20     -C21     -C22     -O29     :  10.698357
 C20     -C21     -C26     -C25     : 166.319683
 C20     -C21     -C26     -O27     : -17.310162
 C21     -C20     -C19     -H56     :   2.545957
 C21     -C22     -C23     -C24     :   0.342739
 C21     -C22     -C23     -H57     : 179.809873
 C21     -C22     -O29     -C30     :-179.356030
 C21     -C26     -C25     -C24     :   4.461570
 C21     -C26     -C25     -H59     : 179.226600
 C21     -C26     -O27     -C28     : 156.489911
 C22     -C21     -C26     -C25     :  -6.527410
 C22     -C21     -C26     -O27     : 169.842744
 C22     -C23     -C24     -C25     :  -2.558952
 C22     -C23     -C24     -H58     : 179.486505
 C22     -O29     -C30     -H63     : -61.628020
 C22     -O29     -C30     -H64     : 179.703696
 C22     -O29     -C30     -H65     :  60.955906
 C23     -C22     -C21     -C26     :   4.047679
 C23     -C22     -O29     -C30     :   0.459805
 C23     -C24     -C25     -C26     :   0.219209
 C23     -C24     -C25     -H59     :-174.562001
 C24     -C23     -C22     -O29     :-179.463549
 C24     -C25     -C26     -O27     :-171.641156
 C25     -C24     -C23     -H57     : 177.966808
 C25     -C26     -O27     -C28     : -27.161331
 C26     -C21     -C22     -O29     :-176.130323
 C26     -C25     -C24     -H58     : 178.175436
 C26     -O27     -C28     -H60     :-169.299095
 C26     -O27     -C28     -H61     :  72.272780
 C26     -O27     -C28     -H62     : -50.730667
 O27     -C26     -C25     -H59     :   3.123875
 O29     -C22     -C23     -H57     :   0.003586
 H31     -C3      -C6      -H32     :-176.507675
 H31     -C3      -C6      -H33     : -58.185570
 H31     -C3      -C10     -H40     :  58.960571
 H31     -C3      -C10     -H41     : 176.218207
 H32     -C6      -C7      -H34     : 173.381390
 H32     -C6      -C7      -H35     :  57.225125
 H33     -C6      -C7      -H34     :  56.459214
 H33     -C6      -C7      -H35     : -59.697051
 H34     -C7      -C8      -H36     :-175.762560
 H34     -C7      -C8      -H37     : -58.781226
 H35     -C7      -C8      -H36     : -58.654554
 H35     -C7      -C8      -H37     :  58.326779
 H36     -C8      -C9      -H38     : 175.348517
 H36     -C8      -C9      -H39     :  58.085510
 H37     -C8      -C9      -H38     :  58.310332
 H37     -C8      -C9      -H39     : -58.952675
 H38     -C9      -C10     -H40     : -55.514605
 H38     -C9      -C10     -H41     :-172.670053
 H39     -C9      -C10     -H40     :  60.756849
 H39     -C9      -C10     -H41     : -56.398599
 H42     -C4      -C11     -H43     :  64.869769
 H42     -C4      -C11     -H44     :-178.270016
 H42     -C4      -C15     -H51     : 178.075783
 H42     -C4      -C15     -H52     : -63.117664
 H43     -C11     -C12     -H45     :  58.002685
 H43     -C11     -C12     -H46     : -58.441482
 H44     -C11     -C12     -H45     : -59.330373
 H44     -C11     -C12     -H46     :-175.774540
 H45     -C12     -C13     -H47     : -60.596731
 H45     -C12     -C13     -H48     :  56.262917
 H46     -C12     -C13     -H47     :  56.924494
 H46     -C12     -C13     -H48     : 173.784142
 H47     -C13     -C14     -H49     :  59.894369
 H47     -C13     -C14     -H50     : -57.159146
 H48     -C13     -C14     -H49     : -56.766380
 H48     -C13     -C14     -H50     :-173.819895
 H49     -C14     -C15     -H51     :  58.913990
 H49     -C14     -C15     -H52     : -58.238177
 H50     -C14     -C15     -H51     : 175.292049
 H50     -C14     -C15     -H52     :  58.139882
 H53     -C16     -C17     -H54     :  -0.560541
 H54     -C17     -C18     -H55     :  -0.695257
 H55     -C18     -C19     -H56     :   0.832842
 H57     -C23     -C24     -H58     :   0.012264
 H58     -C24     -C25     -H59     :   3.394226
 N104    -C107    -C109    -C112    :-177.574046
 N104    -C107    -C109    -H113    :   4.401054
 N104    -C107    -C110    -C111    : 177.353756
 N104    -C107    -C110    -H114    :  -4.310160
 H105    -N104    -C107    -C109    :  -5.949655
 H105    -N104    -C107    -C110    : 175.857674
 H105    -N104    -Na119   -Br3     :-141.161331
 C107    -N104    -Na119   -Br3     : 107.587921
 C107    -C109    -C112    -C108    :   0.192149
 C107    -C109    -C112    -H116    :-179.019700
 C107    -C110    -C111    -C108    :   0.352287
 C107    -C110    -C111    -H115    : 179.481821
 C108    -C111    -C110    -H114    :-177.939276
 C108    -C112    -C109    -H113    : 178.192941
 C109    -C107    -N104    -Na119   : 114.156004
 C109    -C107    -C110    -C111    :  -0.928604
 C109    -C107    -C110    -H114    : 177.407480
 C109    -C112    -C108    -C111    :  -0.785515
 C109    -C112    -C108    -H117    :-179.500421
 C110    -C107    -N104    -Na119   : -64.036667
 C110    -C107    -C109    -C112    :   0.660166
 C110    -C107    -C109    -H113    :-177.364733
 C110    -C111    -C108    -C112    :   0.514811
 C110    -C111    -C108    -H117    : 179.228726
 C111    -C108    -C112    -H116    : 178.420736
 C112    -C108    -C111    -H115    :-178.606357
 H113    -C109    -C112    -H116    :  -1.018909
 H114    -C110    -C111    -H115    :   1.190257
 H115    -C111    -C108    -H117    :   0.107558
 H116    -C112    -C108    -H117    :  -0.294169
 
  nuclear repulsion energy.......          7121.999729406 hartrees
  
  Detected an organometallic with only one TM atom. 
  
  Oxidation state on metal       2 is     2
  Formal multiplet on metal      2 is     1
  Formal charge on ligand        3 is    -1
  Formal multiplet on ligand     3 is     1
  Formal charge on ligand        4 is    -1
  Formal multiplet on ligand     4 is     1
  
 
  Will use High-Quality Initial guess for organometallics
       including d-d repulsion (iguess=30)
 
 Non-default options chosen:
   SCF calculation type: DFT(b3pw91-d3)              
   DFT=Becke_3_Parameter/HF+Slater+Becke88+PW91+PW-GGAIIC (B3PW91-D3)
   Geometry will be optimized in redundant internal coordinates
   Solvation energy will be computed using PBF
     -solute cavity energy will not be included
     -surface area terms will not be included
   Vibrational frequencies and related properties will be computed
      from analytic second derivatives
   IR intensities will be computed
   Thermochemical properties will be computed
   Maximum number of geometry steps: 100
   Scaling standard convergence criteria by a factor of   5.00
   Solvent: benzene                                                         
   Internal dielectric constant:    1.000
   Continuum dielectric constant:   2.283
   Solvent probe molecule radius:   2.600
  
 Non-default print settings:
     11=  2
  
 Temporary integer options set:
     21= -1  73=  2
  
  atom       vdw   vdw2    cov     mass  grid  daf  charge   basis
  P1        2.147  2.074  1.060   30.974    Y    Y      Y    ps_6-31g*
  Pd2       1.450  1.450  1.280  105.903    Y    Y      Y    lacv3p*
  C73       1.949  1.900  0.770   12.000    Y    Y      Y    ps_6-31g*
  C74       1.949  1.900  0.770   12.000    Y    Y      Y    ps_6-31g*
  C75       1.949  1.900  0.770   12.000    Y    Y      Y    ps_6-31g*
  C76       1.949  1.900  0.770   12.000    Y    Y      Y    ps_6-31g*
  C77       1.949  1.900  0.770   12.000    Y    Y      Y    ps_6-31g*
  C78       1.949  1.900  0.770   12.000    Y    Y      Y    ps_6-31g*
  F79       1.736  1.682  0.720   18.998    Y    Y      Y    ps_6-31g*
  H80       1.597  1.150  0.320    1.008    Y    Y      Y    ps_6-31g*
  H82       1.597  1.150  0.320    1.008    Y    Y      Y    ps_6-31g*
  H83       1.597  1.150  0.320    1.008    Y    Y      Y    ps_6-31g*
  H14       1.597  1.150  0.320    1.008    Y    Y      Y    ps_6-31g*
  C3        1.949  1.900  0.770   12.000    Y    Y      Y    ps_6-31g*
  C4        1.949  1.900  0.770   12.000    Y    Y      Y    ps_6-31g*
  C5        1.949  1.900  0.770   12.000    Y    Y      Y    ps_6-31g*
  C6        1.949  1.900  0.770   12.000    Y    Y      Y    ps_6-31g*
  C7        1.949  1.900  0.770   12.000    Y    Y      Y    ps_6-31g*
  C8        1.949  1.900  0.770   12.000    Y    Y      Y    ps_6-31g*
  C9        1.949  1.900  0.770   12.000    Y    Y      Y    ps_6-31g*
  C10       1.949  1.900  0.770   12.000    Y    Y      Y    ps_6-31g*
  C11       1.949  1.900  0.770   12.000    Y    Y      Y    ps_6-31g*
  C12       1.949  1.900  0.770   12.000    Y    Y      Y    ps_6-31g*
  C13       1.949  1.900  0.770   12.000    Y    Y      Y    ps_6-31g*
  C14       1.949  1.900  0.770   12.000    Y    Y      Y    ps_6-31g*
  C15       1.949  1.900  0.770   12.000    Y    Y      Y    ps_6-31g*
  C16       1.949  1.900  0.770   12.000    Y    Y      Y    ps_6-31g*
  C17       1.949  1.900  0.770   12.000    Y    Y      Y    ps_6-31g*
  C18       1.949  1.900  0.770   12.000    Y    Y      Y    ps_6-31g*
  C19       1.949  1.900  0.770   12.000    Y    Y      Y    ps_6-31g*
  C20       1.949  1.900  0.770   12.000    Y    Y      Y    ps_6-31g*
  C21       1.949  1.900  0.770   12.000    Y    Y      Y    ps_6-31g*
  C22       1.949  1.900  0.770   12.000    Y    Y      Y    ps_6-31g*
  C23       1.949  1.900  0.770   12.000    Y    Y      Y    ps_6-31g*
  C24       1.949  1.900  0.770   12.000    Y    Y      Y    ps_6-31g*
  C25       1.949  1.900  0.770   12.000    Y    Y      Y    ps_6-31g*
  C26       1.949  1.900  0.770   12.000    Y    Y      Y    ps_6-31g*
  O27       1.702  1.600  0.730   15.995    Y    Y      Y    ps_6-31g*
  C28       1.949  1.900  0.770   12.000    Y    Y      Y    ps_6-31g*
  O29       1.702  1.600  0.730   15.995    Y    Y      Y    ps_6-31g*
  C30       1.949  1.900  0.770   12.000    Y    Y      Y    ps_6-31g*
  H31       1.597  1.150  0.320    1.008    Y    Y      Y    ps_6-31g*
  H32       1.597  1.150  0.320    1.008    Y    Y      Y    ps_6-31g*
  H33       1.597  1.150  0.320    1.008    Y    Y      Y    ps_6-31g*
  H34       1.597  1.150  0.320    1.008    Y    Y      Y    ps_6-31g*
  H35       1.597  1.150  0.320    1.008    Y    Y      Y    ps_6-31g*
  H36       1.597  1.150  0.320    1.008    Y    Y      Y    ps_6-31g*
  H37       1.597  1.150  0.320    1.008    Y    Y      Y    ps_6-31g*
  H38       1.597  1.150  0.320    1.008    Y    Y      Y    ps_6-31g*
  H39       1.597  1.150  0.320    1.008    Y    Y      Y    ps_6-31g*
  H40       1.597  1.150  0.320    1.008    Y    Y      Y    ps_6-31g*
  H41       1.597  1.150  0.320    1.008    Y    Y      Y    ps_6-31g*
  H42       1.597  1.150  0.320    1.008    Y    Y      Y    ps_6-31g*
  H43       1.597  1.150  0.320    1.008    Y    Y      Y    ps_6-31g*
  H44       1.597  1.150  0.320    1.008    Y    Y      Y    ps_6-31g*
  H45       1.597  1.150  0.320    1.008    Y    Y      Y    ps_6-31g*
  H46       1.597  1.150  0.320    1.008    Y    Y      Y    ps_6-31g*
  H47       1.597  1.150  0.320    1.008    Y    Y      Y    ps_6-31g*
  H48       1.597  1.150  0.320    1.008    Y    Y      Y    ps_6-31g*
  H49       1.597  1.150  0.320    1.008    Y    Y      Y    ps_6-31g*
  H50       1.597  1.150  0.320    1.008    Y    Y      Y    ps_6-31g*
  H51       1.597  1.150  0.320    1.008    Y    Y      Y    ps_6-31g*
  H52       1.597  1.150  0.320    1.008    Y    Y      Y    ps_6-31g*
  H53       1.597  1.150  0.320    1.008    Y    Y      Y    ps_6-31g*
  H54       1.597  1.150  0.320    1.008    Y    Y      Y    ps_6-31g*
  H55       1.597  1.150  0.320    1.008    Y    Y      Y    ps_6-31g*
  H56       1.597  1.150  0.320    1.008    Y    Y      Y    ps_6-31g*
  H57       1.597  1.150  0.320    1.008    Y    Y      Y    ps_6-31g*
  H58       1.597  1.150  0.320    1.008    Y    Y      Y    ps_6-31g*
  H59       1.597  1.150  0.320    1.008    Y    Y      Y    ps_6-31g*
  H60       1.597  1.150  0.320    1.008    Y    Y      Y    ps_6-31g*
  H61       1.597  1.150  0.320    1.008    Y    Y      Y    ps_6-31g*
  H62       1.597  1.150  0.320    1.008    Y    Y      Y    ps_6-31g*
  H63       1.597  1.150  0.320    1.008    Y    Y      Y    ps_6-31g*
  H64       1.597  1.150  0.320    1.008    Y    Y      Y    ps_6-31g*
  H65       1.597  1.150  0.320    1.008    Y    Y      Y    ps_6-31g*
  N104      1.831  1.600  0.750   14.003    Y    Y      Y    ps_6-31g*
  H105      1.597  1.150  0.320    1.008    Y    Y      Y    ps_6-31g*
  C107      1.949  1.900  0.770   12.000    Y    Y      Y    ps_6-31g*
  C108      1.949  1.900  0.770   12.000    Y    Y      Y    ps_6-31g*
  C109      1.949  1.900  0.770   12.000    Y    Y      Y    ps_6-31g*
  C110      1.949  1.900  0.770   12.000    Y    Y      Y    ps_6-31g*
  C111      1.949  1.900  0.770   12.000    Y    Y      Y    ps_6-31g*
  C112      1.949  1.900  0.770   12.000    Y    Y      Y    ps_6-31g*
  H113      1.597  1.150  0.320    1.008    Y    Y      Y    ps_6-31g*
  H114      1.597  1.150  0.320    1.008    Y    Y      Y    ps_6-31g*
  H115      1.597  1.150  0.320    1.008    Y    Y      Y    ps_6-31g*
  H116      1.597  1.150  0.320    1.008    Y    Y      Y    ps_6-31g*
  H117      1.597  1.150  0.320    1.008    Y    Y      Y    ps_6-31g*
  Na119     2.308  1.492  1.540   22.990    Y    Y      Y    ps_6-31g*
  Br3       2.095  2.095  1.140   78.918    Y    Y      Y    lav3p*
 
  atom      formal  2spin      esp    mulk    frag
  P1           0       0        Y    0.000       0
  Pd2          2       0        Y    0.000       0
  C73         -1       0        Y    0.000       0
  N104        -1       0        Y    0.000       0
  
  end of program pre
   
 Time(pre)  user:       5.326  user+sys:       5.326  wallclock:       1.193
  
  start of program onee
  
  smallest eigenvalue of S:    3.669E-04
  number of canonical orbitals.....          750
  end of program onee
   
 Time(onee)  user:      18.240  user+sys:      18.240  wallclock:       2.959
  
  start of program hfig
  
  initial wavefunction generated automatically from atomic wavefunctions
  Only one state below 0.010000
  Skip d-d repulsion considerations 
 
  Irreducible     Total no   No of occupied orbitals 
  representation  orbitals   Shell_1  Shell_2    ...
  No Symm          750        178
  ------------------------
  Orbital occupation/shell    1.000
 
  end of program hfig
   
 Time(hfig)  user:       3.709  user+sys:       3.709  wallclock:       1.523
  
  start of program probe
  
  end of program probe
   
 Time(probe)  user:       1.924  user+sys:       1.924  wallclock:       0.491
  
  start of program grid
  
   grid     grid set  grid #  grid sym
  ------    --------  ------  --------
  coarse        0        0        1
  medium        2        1        1
  fine          0        0        1
  ultrafine     4        2        1
  charge       -1        3        1
  gradient      4        2        1
  density       0        0        1
  DFT-fine    -11        4        1
  DFT-med.    -10        5        1
  DFT-grad    -12        6        1
  DFT-der2     -8        7        1
  DFT-cphf     -9        8        1
  LMP2-enrg     4        2        1
  LMP2-grad     2        1        1
  DFT-cphf2   -15        9        1
  PBF-dens      0        0        1
  plotting      0        0        1
  Rel-grad    -17        0        1
  
  number of gridpoints: 
     atom           P1         Pd2         C73         C74         C75         C76         C77
  grid # 1         604         349          78          92          94          99          94
  grid # 2         420         308         331         320         321         389         318
  grid # 3           8         215          26          17          11           7          11
  grid # 4        8582        8582        8582        8582        8582        8582        8582
  grid # 5        1192        1192        1192        1192        1192        1192        1192
  grid # 6        9488        9488        6164        6164        6164        6164        6164
  grid # 7       23054       32756       14018       14018       14018       14018       14018
  grid # 8         724        1144         750         750         750         750         750
  grid # 9         380        2168         406         406         406         406         406
   
  number of gridpoints: 
     atom          C78         F79         H80         H82         H83         H14          C3
  grid # 1          92         584         114         102         108         113          82
  grid # 2         318         565         460         415         445         451         329
  grid # 3          18         339         350          48         237         206           6
  grid # 4        8582        8582        8582        8582        8582        8582        8582
  grid # 5        1192        1192        1192        1192        1192        1192        1192
  grid # 6        6164        6164        6164        6164        6164        6164        6164
  grid # 7       14018       23160       15170       15170       15170       15170       14018
  grid # 8         750         778         792         792         792         792         750
  grid # 9         406         424         420         420         420         420         406
   
  number of gridpoints: 
     atom           C4          C5          C6          C7          C8          C9         C10
  grid # 1          81          93          92          92          92          92          90
  grid # 2         327         381         277         277         278         275         282
  grid # 3           6          13           6           6           6           6           6
  grid # 4        8582        8582        8582        8582        8582        8582        8582
  grid # 5        1192        1192        1192        1192        1192        1192        1192
  grid # 6        6164        6164        6164        6164        6164        6164        6164
  grid # 7       14018       14018       14018       14018       14018       14018       14018
  grid # 8         750         750         750         750         750         750         750
  grid # 9         406         406         406         406         406         406         406
   
  number of gridpoints: 
     atom          C11         C12         C13         C14         C15         C16         C17
  grid # 1          90          92          92          92          92          93          95
  grid # 2         278         277         279         278         279         324         324
  grid # 3           6           6           6           6           6          12          32
  grid # 4        8582        8582        8582        8582        8582        8582        8582
  grid # 5        1192        1192        1192        1192        1192        1192        1192
  grid # 6        6164        6164        6164        6164        6164        6164        6164
  grid # 7       14018       14018       14018       14018       14018       14018       14018
  grid # 8         750         750         750         750         750         750         750
  grid # 9         406         406         406         406         406         406         406
   
  number of gridpoints: 
     atom          C18         C19         C20         C21         C22         C23         C24
  grid # 1          97          96          98          96          89          95          96
  grid # 2         324         326         358         356         331         318         324
  grid # 3          45          33          22          10          13          25          32
  grid # 4        8582        8582        8582        8582        8582        8582        8582
  grid # 5        1192        1192        1192        1192        1192        1192        1192
  grid # 6        6164        6164        6164        6164        6164        6164        6164
  grid # 7       14018       14018       14018       14018       14018       14018       14018
  grid # 8         750         750         750         750         750         750         750
  grid # 9         406         406         406         406         406         406         406
   
  number of gridpoints: 
     atom          C25         C26         O27         C28         O29         C30         H31
  grid # 1          96          90         119          74         118          76          97
  grid # 2         322         349         453         226         448         225         424
  grid # 3          25          16          31           6          51           6          39
  grid # 4        8582        8582        8582        8582        8582        8582        8582
  grid # 5        1192        1192        1192        1192        1192        1192        1192
  grid # 6        6164        6164        6164        6164        6164        6164        6164
  grid # 7       14018       14018       23358       14018       23358       14018       15170
  grid # 8         750         750         774         750         774         750         792
  grid # 9         406         406         412         406         412         406         420
   
  number of gridpoints: 
     atom          H32         H33         H34         H35         H36         H37         H38
  grid # 1         104         110         109         112         110         112         107
  grid # 2         434         442         445         457         452         458         439
  grid # 3         120         198         231         322         257         329         131
  grid # 4        8582        8582        8582        8582        8582        8582        8582
  grid # 5        1192        1192        1192        1192        1192        1192        1192
  grid # 6        6164        6164        6164        6164        6164        6164        6164
  grid # 7       15170       15170       15170       15170       15170       15170       15170
  grid # 8         792         792         792         792         792         792         792
  grid # 9         420         420         420         420         420         420         420
   
  number of gridpoints: 
     atom          H39         H40         H41         H42         H43         H44         H45
  grid # 1         112         103         104          99         102         105         111
  grid # 2         456         432         434         420         422         433         455
  grid # 3         315          98         130          58          70         147         287
  grid # 4        8582        8582        8582        8582        8582        8582        8582
  grid # 5        1192        1192        1192        1192        1192        1192        1192
  grid # 6        6164        6164        6164        6164        6164        6164        6164
  grid # 7       15170       15170       15170       15170       15170       15170       15170
  grid # 8         792         792         792         792         792         792         792
  grid # 9         420         420         420         420         420         420         420
   
  number of gridpoints: 
     atom          H46         H47         H48         H49         H50         H51         H52
  grid # 1         107         112         110         112         110         103         104
  grid # 2         436         456         453         455         447         418         426
  grid # 3         133         326         262         324         253         109         108
  grid # 4        8582        8582        8582        8582        8582        8582        8582
  grid # 5        1192        1192        1192        1192        1192        1192        1192
  grid # 6        6164        6164        6164        6164        6164        6164        6164
  grid # 7       15170       15170       15170       15170       15170       15170       15170
  grid # 8         792         792         792         792         792         792         792
  grid # 9         420         420         420         420         420         420         420
   
  number of gridpoints: 
     atom          H53         H54         H55         H56         H57         H58         H59
  grid # 1         102         118         118         115         110         117         108
  grid # 2         420         465         467         456         443         466         440
  grid # 3          97         414         424         314         237         371         156
  grid # 4        8582        8582        8582        8582        8582        8582        8582
  grid # 5        1192        1192        1192        1192        1192        1192        1192
  grid # 6        6164        6164        6164        6164        6164        6164        6164
  grid # 7       15170       15170       15170       15170       15170       15170       15170
  grid # 8         792         792         792         792         792         792         792
  grid # 9         420         420         420         420         420         420         420
   
  number of gridpoints: 
     atom          H60         H61         H62         H63         H64         H65        N104
  grid # 1         108         102         113         105         111         111         103
  grid # 2         450         431         456         422         462         451         376
  grid # 3         252         101         343         128         371         314           7
  grid # 4        8582        8582        8582        8582        8582        8582        8582
  grid # 5        1192        1192        1192        1192        1192        1192        1192
  grid # 6        6164        6164        6164        6164        6164        6164        6164
  grid # 7       15170       15170       15170       15170       15170       15170       14142
  grid # 8         792         792         792         792         792         792         778
  grid # 9         420         420         420         420         420         420         416
   
  number of gridpoints: 
     atom         H105        C107        C108        C109        C110        C111        C112
  grid # 1         103          92          96          95          95          95          96
  grid # 2         423         346         325         327         323         326         328
  grid # 3          82           9          36          21          10          25          32
  grid # 4        8582        8582        8582        8582        8582        8582        8582
  grid # 5        1192        1192        1192        1192        1192        1192        1192
  grid # 6        6164        6164        6164        6164        6164        6164        6164
  grid # 7       15170       14018       14018       14018       14018       14018       14018
  grid # 8         792         750         750         750         750         750         750
  grid # 9         420         406         406         406         406         406         406
   
  number of gridpoints: 
     atom         H113        H114        H115        H116        H117       Na119         Br3
  grid # 1         113         106         118         118         118         713         482
  grid # 2         454         442         466         466         466         689         469
  grid # 3         287         117         396         410         425         324         201
  grid # 4        8582        8582        8582        8582        8582        8582        8582
  grid # 5        1192        1192        1192        1192        1192        1192        1192
  grid # 6        6164        6164        6164        6164        6164        9488        9488
  grid # 7       15170       15170       15170       15170       15170       21102       11604
  grid # 8         792         792         792         792         792         642         714
  grid # 9         420         420         420         420         420         338         360
   
  number of gridpoints: 
     atom        total
  grid # 1       11459
  grid # 2       35635
  grid # 3       12088
  grid # 4      780962
  grid # 5      108472
  grid # 6      574220
  grid # 7     1387868
  grid # 8       70468
  grid # 9       39238
   
  end of program grid
   
 Time(grid)  user:     625.777  user+sys:     625.777  wallclock:      42.345
  
  start of program rwr
  
  end of program rwr
   
 Time(rwr)  user:      68.019  user+sys:      68.019  wallclock:      17.029
  
  start of program scf
  
 number of electrons..........        356
 number of alpha electrons....        178
 number of beta electrons.....        178
 number of orbitals, total....        750
 number of doubly-occ'd orbs..        178
 number of open shell orbs....          0
 number of occupied orbitals..        178
 number of virtual orbitals...        572
 number of hamiltonians.......          1
 number of shells.............          1
 SCF type: DFT=Becke_3_Parameter/HF+Slater+Becke88+PW91+PW-GGAIIC (B3PW91-D3)
 Energy computed using pseudospectral method.
 Convergence Criterion:
    Energy (econv):       1.00E-05
    RMS density (dconv):  5.00E-06
  
       i  u  d  i  g                   
       t  p  i  c  r                                 RMS    maximum
       e  d  i  u  i                       energy  density   DIIS  
       r  t  s  t  d       total energy    change  change    error 
  
etot    1  N  N  5  M   -2417.47718809825           1.8E-03  1.7E-01
etot    2  Y  Y  6  M   -2421.47391657851  4.0E+00  2.9E-03  1.0E-01
etot    3  Y  Y  6  M   -2422.60074283198  1.1E+00  1.2E-03  6.4E-02
etot    4  N  Y  2  U   -2422.99727382762  4.0E-01  8.7E-04  6.8E-02
etot    5  Y  Y  6  M   -2423.09696243060  1.0E-01  5.1E-04  4.1E-02
etot    6  N  Y  2  U   -2423.10941403136  1.2E-02  6.6E-04  2.4E-02
etot    7  Y  Y  6  M   -2423.11676923569  7.4E-03  9.6E-05  3.5E-03
etot    8  N  Y  2  U   -2423.12396361783  7.2E-03  3.5E-05  1.3E-03
etot    9  N  Y  2  U   -2423.12420624600  2.4E-04  1.2E-05  3.2E-04
etot   10  N  Y  2  U   -2423.12421743989  1.1E-05  4.9E-06  1.3E-04
etot   11  N  N  2  U   -2423.12422132963  3.9E-06  0.0E+00  0.0E+00
 
  Computing the dispersion energy correction and its gradients...
  
  
 Energy components, in hartrees:
   (A)  Nuclear repulsion............    7121.99972940623
   (E)  Total one-electron terms.....  -17562.48147083832
   (F)    Electron-nuclear...........  -19883.20093646203
   (H)    Kinetic....................    2320.71946562371
   (I)  Total two-electron terms.....    8017.35752010246
   (J)    Coulomb....................    8327.75046076337
   (K)    Exchange+Correlation.......    -310.39294066092
   (L)  Electronic energy............   -9545.12395073586  (E+I)
   (N0) D3 correction................      -0.18719250518
   (N)  Total energy.................   -2423.31141383480  (A+L+N0)
   (O)  Gas phase energy.............   -2423.31141383480
  
 SCFE: SCF energy: DFT(b3pw91-d3)     -2423.31141383480 hartrees   iterations:  11
  
 
 HOMO energy:    -0.17357
 LUMO energy:    -0.03596
 
  Orbital energies (hartrees): 
   -77.06726   -38.47029   -24.67156   -19.17741   -19.17021   -14.27825
   -10.24546   -10.24463   -10.23611   -10.22754   -10.20605   -10.19824
   -10.19052   -10.18851   -10.18842   -10.18321   -10.18189   -10.18110
   -10.18000   -10.17891   -10.17799   -10.17779   -10.17663   -10.17196
   -10.17127   -10.16723   -10.16366   -10.16253   -10.16120   -10.16059
   -10.15685   -10.15529   -10.15524   -10.15324   -10.15149   -10.15138
   -10.15076   -10.15047   -10.14868   -10.14461   -10.14437   -10.14366
   -10.13745   -10.13575    -6.56894    -4.72690    -4.72633    -4.72382
    -3.32391    -2.23174    -2.05767    -2.05373    -2.02309    -1.20411
    -1.16077    -1.15890    -1.15812    -1.08501    -1.06481    -0.87879
    -0.86813    -0.86046    -0.84726    -0.83785    -0.82466    -0.80537
    -0.79503    -0.77274    -0.76636    -0.74677    -0.74379    -0.74329
    -0.74116    -0.73405    -0.73090    -0.72635    -0.72350    -0.71549
    -0.69281    -0.69147    -0.65563    -0.63678    -0.63498    -0.61252
    -0.60908    -0.60705    -0.60150    -0.59843    -0.59586    -0.59111
    -0.58757    -0.58614    -0.56422    -0.55836    -0.55643    -0.54657
    -0.53931    -0.53064    -0.51344    -0.51043    -0.49595    -0.49265
    -0.48698    -0.48473    -0.47577    -0.47156    -0.46893    -0.46455
    -0.46037    -0.45784    -0.45425    -0.45321    -0.44907    -0.44527
    -0.44056    -0.43945    -0.43231    -0.43136    -0.43025    -0.42810
    -0.42525    -0.42378    -0.41611    -0.41511    -0.41295    -0.40589
    -0.40181    -0.39725    -0.39504    -0.39433    -0.38712    -0.38490
    -0.38066    -0.37693    -0.37360    -0.37148    -0.36721    -0.36510
    -0.36298    -0.36003    -0.35549    -0.35159    -0.34992    -0.34223
    -0.34146    -0.33849    -0.33658    -0.33375    -0.33191    -0.32932
    -0.32724    -0.32242    -0.31768    -0.31542    -0.31431    -0.30712
    -0.30618    -0.30356    -0.29547    -0.29434    -0.28598    -0.28091
    -0.26787    -0.26321    -0.26167    -0.25368    -0.24929    -0.24515
    -0.24314    -0.23915    -0.23286    -0.22725    -0.21712    -0.20964
    -0.20778    -0.20401    -0.19389    -0.17357    -0.03596    -0.03176
    -0.02926    -0.02243    -0.00388    -0.00198     0.00652     0.01357
     0.02255     0.02410
 
  end of program scf
   
 Time(scf)  user:     894.788  user+sys:     894.788  wallclock:      81.621
  
  start of program der1a
  
  end of program der1a
   
 Time(der1a)  user:      47.673  user+sys:      47.673  wallclock:       3.800
  
  start of program rwr
  
  end of program rwr
   
 Time(rwr)  user:      52.556  user+sys:      52.556  wallclock:      20.943
  
  start of program der1b
  
   
  forces (hartrees/bohr) : total     
   
 atom  label           x              y              z
 ---- --------   -------------  -------------  -------------
    1 P1         -1.027740E-02   1.216107E-03   3.148983E-03
    2 Pd2         1.076248E-03   8.162214E-03   1.809934E-02
    3 C73         1.589192E-03   1.641584E-04   1.880052E-04
    4 C74        -1.070271E-03  -3.612044E-04   8.700153E-04
    5 C75        -7.394581E-04   2.481785E-04   1.033140E-03
    6 C76        -3.957339E-04  -4.851302E-03   1.221117E-03
    7 C77         5.208118E-03   3.856844E-03   2.685491E-03
    8 C78        -7.297732E-04   1.669957E-03   9.310228E-04
    9 F79        -4.115114E-04   2.004578E-04  -2.031949E-04
   10 H80         1.413272E-04  -2.922361E-04   1.093254E-04
   11 H82         6.227552E-03   1.195729E-02   2.132475E-03
   12 H83         1.333111E-03   1.846816E-03   4.189736E-04
   13 H14        -1.258309E-03   5.654855E-04   3.337659E-04
   14 C3         -1.266448E-03   3.142093E-04  -1.524490E-03
   15 C4         -1.083964E-04  -2.974056E-03  -4.169444E-05
   16 C5          1.867421E-03  -1.561952E-04  -7.208952E-04
   17 C6          2.444648E-03  -1.055946E-03  -1.355962E-04
   18 C7         -4.121826E-04  -1.054352E-04  -1.496354E-04
   19 C8          1.281670E-03   8.146939E-04   2.118008E-05
   20 C9         -2.500775E-03  -1.315236E-03   4.197514E-04
   21 C10         2.198710E-04  -9.598606E-05   5.112821E-04
   22 C11         1.943621E-03  -1.500019E-04   5.527164E-04
   23 C12         6.089513E-05  -1.324739E-04  -1.570822E-03
   24 C13         3.408236E-04  -8.260528E-06   3.413098E-05
   25 C14        -6.004435E-05  -4.278578E-04  -4.271147E-04
   26 C15         1.042609E-03   2.980830E-03   3.157370E-04
   27 C16        -2.982575E-03  -1.890607E-03   5.496390E-04
   28 C17        -2.834049E-04  -3.276887E-05   8.743339E-04
   29 C18         3.818945E-04   1.489322E-03   5.444085E-04
   30 C19        -9.982353E-05   4.642875E-04   3.952726E-04
   31 C20        -5.334220E-04   3.693845E-04  -1.652873E-03
   32 C21         2.541248E-03  -1.992674E-03   1.178216E-03
   33 C22        -9.510404E-03  -9.379592E-03  -3.913473E-03
   34 C23        -3.023035E-03  -5.409555E-03   1.675518E-03
   35 C24         8.555167E-04   4.822870E-04   6.996509E-05
   36 C25         2.869893E-03   4.918686E-04   1.118961E-03
   37 C26        -1.308550E-02   1.406775E-02  -7.252362E-03
   38 O27         3.668111E-03  -1.438917E-02   3.677789E-03
   39 C28         7.509388E-03  -3.631699E-03  -2.349586E-03
   40 O29         1.306713E-03  -2.354386E-03   1.535817E-04
   41 C30        -2.135189E-03  -1.047160E-04  -4.378912E-04
   42 H31         8.308064E-04   9.819648E-04   9.577642E-04
   43 H32         3.404788E-04  -1.193605E-04  -4.841038E-04
   44 H33         1.573249E-03  -1.904894E-03  -7.424474E-04
   45 H34         3.461866E-04   2.371003E-04   4.055648E-04
   46 H35        -1.518070E-04   3.942167E-05  -3.846973E-04
   47 H36         7.668100E-05   7.787957E-05  -1.219185E-03
   48 H37        -3.818286E-04  -1.970769E-05   1.140550E-04
   49 H38         2.320453E-03   6.197278E-04  -4.048064E-04
   50 H39         1.979422E-04   1.439244E-04  -4.793169E-05
   51 H40        -5.033463E-04   6.683361E-04   1.448772E-03
   52 H41         6.107569E-04   2.517720E-04  -1.155416E-03
   53 H42        -3.626639E-05   3.721980E-04   5.131752E-04
   54 H43         7.588240E-04   6.931751E-04  -3.199087E-03
   55 H44         4.494334E-04   4.780481E-04  -5.190852E-04
   56 H45         4.091204E-05   2.086728E-04   4.103148E-04
   57 H46        -3.976471E-07  -5.705734E-04  -6.278382E-04
   58 H47         1.053530E-04   1.135566E-04  -2.393342E-04
   59 H48        -1.598963E-05   2.021690E-05  -1.578835E-04
   60 H49        -2.266575E-05   1.890197E-04  -5.288593E-05
   61 H50        -7.046280E-05   1.419889E-04  -6.411639E-06
   62 H51         1.590216E-03   2.526813E-03   1.877953E-04
   63 H52        -5.547875E-05  -3.757262E-04   7.402912E-05
   64 H53        -3.009471E-03  -5.096889E-04   9.536508E-04
   65 H54        -8.996349E-05  -7.540247E-05   3.728072E-04
   66 H55         8.305848E-05   4.312360E-04   2.210183E-04
   67 H56         1.550121E-04   6.897321E-05   2.916032E-04
   68 H57        -2.746709E-04   7.251474E-04  -3.228527E-04
   69 H58         4.459366E-04  -5.180274E-04  -1.355686E-04
   70 H59        -1.117815E-03  -9.673935E-04  -9.736848E-04
   71 H60         8.575922E-04   1.607184E-03   2.713618E-03
   72 H61        -2.024732E-03   8.902100E-04  -2.666033E-03
   73 H62        -3.326062E-04  -2.267180E-03  -2.386250E-04
   74 H63        -8.704323E-04  -2.131461E-03  -1.105862E-03
   75 H64        -1.565796E-04   6.837250E-04   2.599805E-04
   76 H65        -3.407416E-04   2.331882E-04  -1.099743E-04
   77 N104       -2.488500E-03  -1.677067E-03  -4.690980E-03
   78 H105        1.793480E-04  -2.810699E-04   9.469129E-04
   79 C107        3.592844E-04  -7.940898E-04  -2.870707E-03
   80 C108       -3.119853E-04  -1.348714E-03  -1.030547E-03
   81 C109        7.359157E-04   5.552491E-04   8.121358E-04
   82 C110        3.041165E-04   4.113888E-04  -7.355256E-04
   83 C111        5.066431E-04  -4.259082E-04   5.750493E-04
   84 C112       -6.910313E-04   8.509992E-04   1.513380E-04
   85 H113       -7.793441E-05   2.196848E-04   1.821590E-05
   86 H114       -1.889663E-04   1.293641E-04   8.608481E-05
   87 H115        2.037657E-04  -8.463017E-04   2.398233E-04
   88 H116       -3.909593E-04   9.017365E-05  -1.866150E-04
   89 H117       -2.955971E-04  -4.727829E-04  -9.032514E-05
   90 Na119       6.168586E-03   3.281089E-03  -1.357636E-02
   91 Br3         1.704487E-03  -5.077013E-04   4.274487E-03
 -------------   -------------  -------------  -------------
     total        7.102379E-05   2.379164E-03   9.379265E-04
   
  end of program der1b
   
 Time(der1b)  user:     307.253  user+sys:     307.253  wallclock:      26.611
  
  start of program geopt
  
 ----------------------------------------------------------------------------
  Geometry optimization step  1
  Total energy:     -2423.31141383480 hartrees
 ----------------------------------------------------------------------------
  
  
  Level shifts adjusted to satisfy step-size constraints
   Step size:    0.3002708
   Cos(theta):   0.5200464
   Final level shift:  -1.2333301E-01
  
  gradient maximum:        1.3104E-01 .  (  2.2500E-03 )
  gradient rms:            1.7755E-02 .  (  1.5000E-03 )
  displacement maximum:    8.2084E-02 .  (  9.0000E-03 )
  displacement rms:        1.2730E-02 .  (  6.0000E-03 )
  
  predicted energy change:  -2.5991E-02
  step size:     0.22449
  trust radius:  0.30000
  
  molecular structure not yet converged...
  
  center of mass moved by:
     x:     5.7710E-02     y:     6.8723E-02     z:     4.2495E-02
  
  new geometry: 
                                   angstroms
  atom               x                 y                 z
  P1           -0.0103767074     -0.0384207449      0.0588766512 
  Pd2           0.0395963014     -0.0099029755      2.3632077857 
  C73           4.7512289728      0.3661489258      2.7286049729 
  C74           4.0174477429      1.5249913011      2.5337205891 
  C75           2.6289358696      1.4321239951      2.4204316456 
  C76           1.9933750857      0.1912424536      2.4923678136 
  C77           2.7539032698     -0.9636319934      2.7091427742 
  C78           4.1437608538     -0.8772160374      2.8271776993 
  F79           6.0952409533      0.4494684488      2.8320140118 
  H80           4.5286265726      2.4820068142      2.4808216924 
  H82           2.2671511805     -1.9349799900      2.7793185339 
  H83           4.7596116093     -1.7555565906      2.9947169149 
  H14           2.0494008599      2.3410056369      2.2860202113 
  C3           -1.6001707145      0.8682472372     -0.3291832306 
  C4            1.4311512120      0.7846934480     -0.7959424872 
  C5           -0.1821304437     -1.6860262683     -0.7491927656 
  C6           -2.2254614972      0.6991695368     -1.7205583360 
  C7           -3.5538623832      1.4613339219     -1.8065804324 
  C8           -3.3781488089      2.9409275303     -1.4608104818 
  C9           -2.7664910804      3.1015208305     -0.0670104075 
  C10          -1.4368382642      2.3530789132      0.0483789454 
  C11           2.6445706944     -0.1667929935     -0.7872868601 
  C12           3.9150812844      0.5824047126     -1.1946883942 
  C13           3.7530827830      1.2327777463     -2.5711954357 
  C14           2.5188001462      2.1377712605     -2.6163407100 
  C15           1.2459371411      1.3872027685     -2.1980669212 
  C16          -0.1900118655     -1.7217301970     -2.1553372985 
  C17          -0.3004550028     -2.9083400964     -2.8679132172 
  C18          -0.4137129055     -4.1109695391     -2.1777908444 
  C19          -0.3879127339     -4.1001521285     -0.7916004825 
  C20          -0.2597328731     -2.9124245390     -0.0524738325 
  C21          -0.2060560673     -3.1228544868      1.4206738145 
  C22           0.8679128723     -3.8426606411      1.9841293917 
  C23           0.8245485588     -4.2653556717      3.3171027102 
  C24          -0.2999566681     -3.9787257599      4.0868236023 
  C25          -1.3675227207     -3.2560799858      3.5662441009 
  C26          -1.2891064119     -2.8045199558      2.2478390554 
  O27          -2.2385584936     -2.0032123530      1.6701566691 
  C28          -3.5720515241     -2.0894899543      2.1792678244 
  O29           1.8974380387     -4.1039132011      1.1395212056 
  C30           2.9801253593     -4.8804370366      1.6151111205 
  H31          -2.2908610512      0.4164944373      0.3998927433 
  H32          -1.5454021922      1.0793166165     -2.4948583833 
  H33          -2.3921544008     -0.3630803029     -1.9325759689 
  H34          -4.2729223766      1.0082242100     -1.1078108284 
  H35          -3.9772414120      1.3430494627     -2.8128961534 
  H36          -2.7187481724      3.4101755687     -2.2077472536 
  H37          -4.3414816933      3.4635102020     -1.5182173040 
  H38          -3.4590054570      2.7086950649      0.6896153696 
  H39          -2.6121923527      4.1616749958      0.1705529673 
  H40          -1.0499781374      2.4331783453      1.0718316824 
  H41          -0.6969699595      2.8247599047     -0.6151393606 
  H42           1.6533072775      1.6179259977     -0.1143371490 
  H43           2.7743188363     -0.6250915628      0.1958660378 
  H44           2.4581206333     -0.9879425318     -1.4935806424 
  H45           4.7701323759     -0.1056637097     -1.1939209579 
  H46           4.1299126049      1.3513666245     -0.4396234118 
  H47           4.6516238541      1.8052025407     -2.8357401750 
  H48           3.6476009708      0.4431361734     -3.3309894474 
  H49           2.3872078926      2.5566340602     -3.6226466077 
  H50           2.6672160926      2.9905319043     -1.9369988002 
  H51           1.0502468427      0.5960540469     -2.9310857006 
  H52           0.3900905531      2.0702657535     -2.2258377201 
  H53          -0.1107961741     -0.7967727423     -2.7119567880 
  H54          -0.3012142740     -2.8891567584     -3.9551814768 
  H55          -0.5113479937     -5.0518426391     -2.7142411793 
  H56          -0.4528487044     -5.0373259426     -0.2449200658 
  H57           1.6485376787     -4.8184695663      3.7540080669 
  H58          -0.3338311835     -4.3111157662      5.1215927741 
  H59          -2.2059867076     -2.9798149868      4.1939406775 
  H60          -4.1884047210     -1.5296110511      1.4761858444 
  H61          -3.6495848586     -1.6240700385      3.1641652428 
  H62          -3.8924052262     -3.1380563610      2.2095363800 
  H63           3.4818118091     -4.4006418133      2.4636942404 
  H64           3.6797015373     -4.9535959595      0.7806453472 
  H65           2.6555876583     -5.8884238906      1.9084694760 
  N104          0.1083258610      0.0484067260      4.4880748401 
  H105          0.6394408318     -0.7911756314      4.7244185254 
  C107          0.7460103927      1.1310721435      5.0929477644 
  C108          1.9354218261      3.3601080678      6.3829590585 
  C109          1.8309943008      0.9712158522      5.9804680088 
  C110          0.2842442484      2.4468524627      4.8553796144 
  C111          0.8707612490      3.5349057085      5.4954816331 
  C112          2.4118316988      2.0670092511      6.6090181565 
  H113          2.2319255663     -0.0283914847      6.1455629575 
  H114         -0.5252290090      2.5881781743      4.1399917246 
  H115          0.4960080834      4.5355473282      5.2854097806 
  H116          3.2573109730      1.9091932913      7.2766929363 
  H117          2.3975274218      4.2143310485      6.8715293116 
  Na119        -1.9675472539      0.5699187671      5.6921647324 
  Br3          -3.0281276117      1.5539174980      3.3007123354 
   
 
  bond lengths (angstroms):
 
 P1      -Pd2     :   2.305049      P1      -C3      :   1.870851
 P1      -C4      :   1.867146      P1      -C5      :   1.843117
 Pd2     -C76     :   1.968348      Pd2     -N104    :   2.126778
 C73     -C74     :   1.385399      C73     -C78     :   1.387332
 C73     -F79     :   1.350557      C74     -C75     :   1.396218
 C74     -H80     :   1.086269      C75     -C76     :   1.396030
 C75     -H14     :   1.086275      C76     -C77     :   1.399689
 C77     -C78     :   1.397535      C77     -H82     :   1.088747
 C78     -H83     :   1.085736      C3      -C6      :   1.534764
 C3      -C10     :   1.540765      C3      -H31     :   1.101220
 C4      -C11     :   1.542008      C4      -C15     :   1.537295
 C4      -H42     :   1.099189      C5      -C16     :   1.406620
 C5      -C20     :   1.412619      C6      -C7      :   1.533931
 C6      -H32     :   1.098423      C6      -H33     :   1.095953
 C7      -C8      :   1.529585      C7      -H34     :   1.100288
 C7      -H35     :   1.098140      C8      -C9      :   1.530554
 C8      -H36     :   1.101325      C8      -H37     :   1.097451
 C9      -C10     :   1.530182      C9      -H38     :   1.098349
 C9      -H39     :   1.097347      C10     -H40     :   1.097056
 C10     -H41     :   1.100066      C11     -C12     :   1.530186
 C11     -H43     :   1.092457      C11     -H44     :   1.099046
 C12     -C13     :   1.531013      C12     -H45     :   1.097520
 C12     -H46     :   1.098899      C13     -C14     :   1.531178
 C13     -H47     :   1.097739      C13     -H48     :   1.100885
 C14     -C15     :   1.535736      C14     -H49     :   1.097914
 C14     -H50     :   1.100333      C15     -H51     :   1.096142
 C15     -H52     :   1.095363      C16     -C17     :   1.388526
 C16     -H53     :   1.082426      C17     -C18     :   1.391192
 C17     -H54     :   1.087438      C18     -C19     :   1.386473
 C18     -H55     :   1.087453      C19     -C20     :   1.404790
 C19     -H56     :   1.086909      C20     -C21     :   1.489069
 C21     -C22     :   1.410323      C21     -C26     :   1.399477
 C22     -C23     :   1.399060      C22     -O29     :   1.357033
 C23     -C24     :   1.392530      C23     -H57     :   1.084334
 C24     -C25     :   1.390294      C24     -H58     :   1.087372
 C25     -C26     :   1.395796      C25     -H59     :   1.083212
 C26     -O27     :   1.370135      O27     -C28     :   1.429980
 C28     -H60     :   1.089807      C28     -H61     :   1.092085
 C28     -H62     :   1.096829      O29     -C30     :   1.414704
 C30     -H63     :   1.096351      C30     -H64     :   1.091372
 C30     -H65     :   1.098827      N104    -H105    :   1.021195
 N104    -C107    :   1.394517      N104    -Na119   :   2.455821
 C107    -C109    :   1.410828      C107    -C110    :   1.414547
 C108    -C111    :   1.397023      C108    -C112    :   1.396486
 C108    -H117    :   1.087170      C109    -C112    :   1.390399
 C109    -H113    :   1.089595      C110    -C111    :   1.391974
 C110    -H114    :   1.089495      C111    -H115    :   1.088969
 C112    -H116    :   1.088821      Na119   -Br3     :   2.795019
 
  bond angles:
 
 C3      -P1      -Pd2     : 102.696509  C4      -P1      -Pd2     : 115.816264
 C4      -P1      -C3      : 110.331853  C5      -P1      -Pd2     : 116.831531
 C5      -P1      -C3      : 105.253712  C5      -P1      -C4      : 105.384900
 C76     -Pd2     -P1      :  95.070512  N104    -Pd2     -P1      : 178.943763
 N104    -Pd2     -C76     :  84.235586  C78     -C73     -C74     : 121.853049
 F79     -C73     -C74     : 119.094625  F79     -C73     -C78     : 119.051548
 C75     -C74     -C73     : 118.849311  H80     -C74     -C73     : 119.639622
 H80     -C74     -C75     : 121.509014  C76     -C75     -C74     : 120.510138
 H14     -C75     -C74     : 119.009242  H14     -C75     -C76     : 120.477463
 C75     -C76     -Pd2     : 122.639069  C77     -C76     -Pd2     : 117.721848
 C77     -C76     -C75     : 119.604325  C78     -C77     -C76     : 120.160990
 H82     -C77     -C76     : 120.211014  H82     -C77     -C78     : 119.626419
 C77     -C78     -C73     : 119.004558  H83     -C78     -C73     : 119.184799
 H83     -C78     -C77     : 121.810612  C6      -C3      -P1      : 118.742106
 C10     -C3      -P1      : 109.033727  C10     -C3      -C6      : 111.808756
 H31     -C3      -P1      : 101.352432  H31     -C3      -C6      : 107.426357
 H31     -C3      -C10     : 107.432869  C11     -C4      -P1      : 109.447560
 C15     -C4      -P1      : 119.823335  C15     -C4      -C11     : 109.984372
 H42     -C4      -P1      : 101.906793  H42     -C4      -C11     : 107.771625
 H42     -C4      -C15     : 107.027256  C16     -C5      -P1      : 117.483281
 C20     -C5      -P1      : 124.399774  C20     -C5      -C16     : 118.079726
 C7      -C6      -C3      : 110.421943  H32     -C6      -C3      : 110.407356
 H32     -C6      -C7      : 108.946011  H33     -C6      -C3      : 110.128468
 H33     -C6      -C7      : 109.817321  H33     -C6      -H32     : 107.051973
 C8      -C7      -C6      : 111.621263  H34     -C7      -C6      : 109.009454
 H34     -C7      -C8      : 109.260425  H35     -C7      -C6      : 109.375278
[...]
    H80      X    -0.00004  -0.00430   0.00013
    H80      Y    -0.00007  -0.00794   0.00016
    H80      Z    -0.00000  -0.00025   0.00004
    H82      X     0.00063   0.44525  -0.00074
    H82      Y     0.00110   0.83553  -0.00137
    H82      Z     0.00011   0.07025  -0.00033
    H83      X    -0.00006  -0.05314   0.00008
    H83      Y     0.00011   0.07796  -0.00011
    H83      Z     0.00001   0.00955  -0.00005
    H14      X    -0.00015  -0.00197  -0.00038
    H14      Y     0.00027   0.00295   0.00067
    H14      Z     0.00005   0.00043  -0.00010
    C3       X     0.00000   0.00000  -0.00001
    C3       Y    -0.00001  -0.00002  -0.00000
    C3       Z    -0.00003  -0.00002   0.00001
    C4       X     0.00001  -0.00000   0.00001
    C4       Y    -0.00004   0.00000  -0.00000
    C4       Z    -0.00002  -0.00002   0.00001
    C5       X    -0.00005  -0.00003  -0.00000
    C5       Y     0.00007   0.00002   0.00000
    C5       Z     0.00033   0.00000  -0.00002
    C6       X     0.00002  -0.00001  -0.00000
    C6       Y    -0.00003   0.00004   0.00000
    C6       Z    -0.00005   0.00001  -0.00000
    C7       X    -0.00001   0.00002   0.00000
    C7       Y    -0.00000   0.00001   0.00000
    C7       Z     0.00002  -0.00002  -0.00000
    C8       X    -0.00001   0.00001  -0.00000
    C8       Y    -0.00000   0.00000   0.00000
    C8       Z     0.00000  -0.00000  -0.00000
    C9       X    -0.00002   0.00001   0.00001
    C9       Y    -0.00002   0.00001   0.00000
    C9       Z     0.00001  -0.00001  -0.00001
    C10      X     0.00001   0.00001  -0.00000
    C10      Y    -0.00001   0.00001   0.00000
    C10      Z     0.00002   0.00000   0.00000
    C11      X    -0.00001   0.00013   0.00000
    C11      Y    -0.00004  -0.00016  -0.00000
    C11      Z    -0.00009   0.00038   0.00000
    C12      X     0.00000  -0.00001  -0.00000
    C12      Y    -0.00001   0.00003   0.00000
    C12      Z    -0.00000  -0.00000   0.00000
    C13      X     0.00000   0.00000   0.00000
    C13      Y    -0.00000   0.00000  -0.00000
    C13      Z    -0.00001   0.00002  -0.00000
    C14      X    -0.00001   0.00001   0.00000
    C14      Y    -0.00002  -0.00001  -0.00000
    C14      Z    -0.00004   0.00001   0.00000
    C15      X    -0.00000   0.00003  -0.00001
    C15      Y    -0.00003   0.00000  -0.00000
    C15      Z    -0.00012   0.00002  -0.00000
    C16      X     0.00062   0.00001  -0.00000
    C16      Y     0.00889   0.00011  -0.00001
    C16      Z    -0.00509  -0.00004   0.00000
    C17      X     0.00028   0.00000   0.00000
    C17      Y    -0.00026  -0.00002   0.00000
    C17      Z    -0.00190  -0.00003  -0.00000
    C18      X     0.00004   0.00000  -0.00000
    C18      Y    -0.00048  -0.00002  -0.00000
    C18      Z    -0.00015  -0.00002  -0.00000
    C19      X    -0.00006   0.00002  -0.00000
    C19      Y    -0.00037   0.00021   0.00000
    C19      Z     0.00028  -0.00008  -0.00000
    C20      X    -0.00004   0.00001  -0.00000
    C20      Y    -0.00004   0.00001  -0.00000
    C20      Z    -0.00001  -0.00009  -0.00000
    C21      X     0.00041   0.00025   0.00000
    C21      Y    -0.00013  -0.00011   0.00000
    C21      Z    -0.00003   0.00002  -0.00000
    C22      X     0.00022  -0.00151  -0.00002
    C22      Y    -0.00002  -0.00002   0.00000
    C22      Z    -0.00019   0.00039   0.00001
    C23      X     0.00420   0.00031   0.00002
    C23      Y    -0.00273  -0.00011   0.00000
    C23      Z     0.00329  -0.00006  -0.00000
    C24      X    -0.00166  -0.00012  -0.00000
    C24      Y    -0.00327  -0.00002  -0.00000
    C24      Z     0.01223   0.00019   0.00001
    C25      X    -0.07581   0.00022   0.00001
    C25      Y     0.02179  -0.00005  -0.00000
    C25      Z     0.02245  -0.00008   0.00000
    C26      X     0.00057  -0.00012   0.00000
    C26      Y     0.00088   0.00006   0.00000
    C26      Z    -0.00322   0.00001  -0.00001
    O27      X    -0.00016   0.00005  -0.00000
    O27      Y    -0.00005  -0.00003   0.00000
    O27      Z     0.00032   0.00003  -0.00000
    C28      X    -0.00038  -0.00005  -0.00000
    C28      Y    -0.00074   0.00004   0.00001
    C28      Z     0.00154  -0.00006   0.00000
    O29      X     0.00004   0.00013   0.00001
    O29      Y    -0.00002  -0.00054  -0.00000
    O29      Z     0.00002  -0.00016   0.00000
    C30      X    -0.00001   0.00018  -0.00002
    C30      Y     0.00002  -0.00136  -0.00002
    C30      Z     0.00000   0.00054  -0.00003
    H31      X    -0.00016  -0.00002   0.00014
    H31      Y    -0.00005   0.00013   0.00008
    H31      Z     0.00025  -0.00006  -0.00018
    H32      X    -0.00057  -0.00005  -0.00000
    H32      Y    -0.00033  -0.00005  -0.00000
    H32      Z     0.00051   0.00008  -0.00000
    H33      X     0.00011  -0.00001   0.00000
    H33      Y     0.00073  -0.00032  -0.00001
    H33      Z     0.00002  -0.00009  -0.00000
    H34      X     0.00007  -0.00016  -0.00001
    H34      Y     0.00003  -0.00011  -0.00001
    H34      Z    -0.00006   0.00015   0.00001
    H35      X     0.00003  -0.00005  -0.00000
    H35      Y    -0.00001   0.00001   0.00000
    H35      Z    -0.00000  -0.00005   0.00001
    H36      X     0.00006  -0.00005  -0.00001
    H36      Y     0.00007  -0.00006  -0.00001
    H36      Z    -0.00009   0.00007   0.00002
    H37      X     0.00003  -0.00008  -0.00000
    H37      Y    -0.00001   0.00003   0.00000
    H37      Z     0.00001  -0.00002  -0.00001
    H38      X     0.00019  -0.00011  -0.00006
    H38      Y     0.00011  -0.00007  -0.00003
    H38      Z    -0.00015   0.00010   0.00003
    H39      X     0.00004  -0.00000  -0.00000
    H39      Y     0.00000  -0.00003   0.00002
    H39      Z     0.00001  -0.00001   0.00000
    H40      X    -0.00007   0.00000   0.00002
    H40      Y    -0.00001  -0.00002  -0.00001
    H40      Z     0.00006  -0.00014  -0.00008
    H41      X     0.00013  -0.00010  -0.00001
    H41      Y     0.00012  -0.00012  -0.00001
    H41      Z    -0.00018   0.00011   0.00002
    H42      X    -0.00002  -0.00005   0.00001
    H42      Y     0.00016  -0.00006  -0.00000
    H42      Z     0.00014   0.00003   0.00004
    H43      X     0.00013  -0.00155  -0.00003
    H43      Y    -0.00016   0.00178   0.00006
    H43      Z     0.00041  -0.00394  -0.00004
    H44      X     0.00001  -0.00006   0.00000
    H44      Y     0.00061  -0.00054  -0.00001
    H44      Z     0.00061  -0.00044  -0.00004
    H45      X    -0.00006  -0.00005  -0.00001
    H45      Y     0.00003  -0.00001   0.00000
    H45      Z     0.00001   0.00002   0.00000
    H46      X     0.00006  -0.00004  -0.00001
    H46      Y     0.00013  -0.00020  -0.00001
    H46      Z     0.00011  -0.00017  -0.00000
    H47      X    -0.00004   0.00010  -0.00000
    H47      Y    -0.00002   0.00013   0.00000
    H47      Z     0.00001  -0.00007  -0.00000
    H48      X     0.00000  -0.00004  -0.00000
    H48      Y     0.00007  -0.00011  -0.00000
    H48      Z     0.00008  -0.00017  -0.00001
    H49      X     0.00002  -0.00006  -0.00001
    H49      Y    -0.00010   0.00013  -0.00000
    H49      Z     0.00018  -0.00019  -0.00000
    H50      X     0.00001  -0.00001   0.00000
    H50      Y     0.00018  -0.00004  -0.00001
    H50      Z     0.00022  -0.00002  -0.00000
    H51      X     0.00077  -0.00003   0.00000
    H51      Y     0.00252  -0.00017   0.00001
    H51      Z     0.00181  -0.00023  -0.00000
    H52      X    -0.00008  -0.00033   0.00001
    H52      Y    -0.00013   0.00024   0.00000
    H52      Z    -0.00012  -0.00000  -0.00001
    H53      X    -0.00762  -0.00008   0.00000
    H53      Y    -0.10281  -0.00144   0.00004
    H53      Z     0.05918   0.00092  -0.00002
    H54      X    -0.00275  -0.00005   0.00000
    H54      Y    -0.00005  -0.00004  -0.00001
    H54      Z     0.01897   0.00037  -0.00002
    H55      X    -0.00043  -0.00001   0.00000
    H55      Y     0.00439   0.00027  -0.00000
    H55      Z     0.00235   0.00017  -0.00000
    H56      X     0.00042  -0.00032  -0.00001
    H56      Y     0.00380  -0.00247  -0.00003
    H56      Z    -0.00229   0.00123   0.00001
    H57      X    -0.03843  -0.00139  -0.00013
    H57      Y     0.02879   0.00114   0.00002
    H57      Z    -0.04112  -0.00139  -0.00006
    H58      X     0.03639   0.00092   0.00007
    H58      Y     0.02349   0.00045   0.00004
    H58      Z    -0.11346  -0.00230  -0.00013
    H59      X     0.86392  -0.00175  -0.00010
    H59      Y    -0.25188   0.00050  -0.00001
    H59      Z    -0.25436   0.00051   0.00002
    H60      X    -0.00287   0.00038   0.00000
    H60      Y     0.00432  -0.00030   0.00001
    H60      Z    -0.01218   0.00083   0.00001
    H61      X     0.00039   0.00009  -0.00002
    H61      Y    -0.00605   0.00005  -0.00010
    H61      Z    -0.00824  -0.00003  -0.00009
    H62      X     0.00520  -0.00005  -0.00001
    H62      Y     0.01259  -0.00018   0.00001
    H62      Z    -0.00437  -0.00001   0.00001
    H63      X     0.00011  -0.00031   0.00008
    H63      Y    -0.00010  -0.00040   0.00012
    H63      Z    -0.00017  -0.00097   0.00019
    H64      X     0.00015  -0.00292  -0.00003
    H64      Y     0.00001   0.00121   0.00004
    H64      Z    -0.00023   0.00160   0.00007
    H65      X     0.00010   0.00320   0.00004
    H65      Y    -0.00008   0.00926   0.00008
    H65      Z    -0.00007  -0.00471   0.00003
    N104     X     0.00001   0.00009   0.04332
    N104     Y    -0.00001  -0.00007  -0.05241
    N104     Z    -0.00001   0.00004   0.00628
    H105     X     0.00005  -0.00104  -0.63297
    H105     Y     0.00014   0.00103   0.71968
    H105     Z     0.00001  -0.00103  -0.09336
    C107     X     0.00001  -0.00003   0.00295
    C107     Y     0.00001  -0.00001  -0.00031
    C107     Z     0.00000   0.00000   0.00078
    C108     X    -0.00000  -0.00000   0.00002
    C108     Y    -0.00001  -0.00001   0.00016
    C108     Z    -0.00000  -0.00000   0.00003
    C109     X    -0.00001   0.00003   0.00002
    C109     Y     0.00001  -0.00004   0.00080
    C109     Z    -0.00000   0.00001   0.00019
    C110     X     0.00006  -0.00001  -0.00055
    C110     Y    -0.00000   0.00002   0.00050
    C110     Z     0.00003   0.00000  -0.00028
    C111     X     0.00001   0.00000   0.00008
    C111     Y    -0.00001  -0.00003  -0.00008
    C111     Z     0.00000  -0.00000   0.00011
    C112     X    -0.00000  -0.00001  -0.00013
    C112     Y     0.00000   0.00000  -0.00015
    C112     Z    -0.00000  -0.00000  -0.00001
    H113     X     0.00009  -0.00027  -0.00224
    H113     Y    -0.00013   0.00041  -0.00070
    H113     Z     0.00002  -0.00007  -0.00198
    H114     X    -0.00074   0.00023   0.00126
    H114     Y    -0.00002   0.00001   0.00094
    H114     Z    -0.00038   0.00009   0.00041
    H115     X    -0.00003  -0.00013  -0.00026
    H115     Y     0.00005   0.00025  -0.00068
    H115     Z    -0.00001  -0.00003  -0.00020
    H116     X     0.00003   0.00003   0.00027
    H116     Y    -0.00000  -0.00001  -0.00001
    H116     Z     0.00002  -0.00001   0.00012
    H117     X     0.00005   0.00008  -0.00034
    H117     Y     0.00008   0.00017  -0.00058
    H117     Z     0.00003   0.00006  -0.00050
    Na119    X    -0.00003   0.00001   0.00000
    Na119    Y    -0.00002   0.00001  -0.00009
    Na119    Z    -0.00002   0.00000   0.00006
    Br3      X     0.00001  -0.00000  -0.00001
    Br3      Y     0.00002  -0.00000   0.00000
    Br3      Z    -0.00001  -0.00000   0.00000
  
  Number of imaginary frequencies:   0
   
  Writing vibrational animation data to L_Ar_Br_N_Na_N_trans_PL145.vib
  Writing IR vibrational spectrum data to L_Ar_Br_N_Na_N_trans_PL145_vib.spm
  rotational symmetry number:  1

  rotational temperatures (K):      0.003176      0.002917      0.002608
   
  The Quasi-Harmonic approximation will be applied to compute
  vibrational constributions to thermodynamic properties.
  Frequencies will be adjusted to a minimum value of  100.00 cm^-1.

  vibrational temperatures:
       mode:      1        2        3        4        5        6
  temp. (K):   143.88   143.88   143.88   143.88   143.88   143.88
   
       mode:      7        8        9       10       11       12
  temp. (K):   143.88   143.88   143.88   143.88   143.88   143.88
   
       mode:     13       14       15       16       17       18
  temp. (K):   143.88   143.88   143.88   143.88   143.88   143.88
   
       mode:     19       20       21       22       23       24
  temp. (K):   143.88   150.12   169.23   175.22   176.86   198.90
   
       mode:     25       26       27       28       29       30
  temp. (K):   209.13   218.82   233.02   235.38   242.96   253.63
   
       mode:     31       32       33       34       35       36
  temp. (K):   273.18   275.98   288.54   295.39   304.46   312.79
   
       mode:     37       38       39       40       41       42
  temp. (K):   315.92   318.19   332.18   356.00   368.62   386.79
   
       mode:     43       44       45       46       47       48
  temp. (K):   394.42   413.40   415.96   443.49   467.91   477.96
   
       mode:     49       50       51       52       53       54
  temp. (K):   487.90   494.81   509.36   539.98   548.63   565.12
   
       mode:     55       56       57       58       59       60
  temp. (K):   581.32   590.82   602.76   609.72   616.79   636.68
   
       mode:     61       62       63       64       65       66
  temp. (K):   641.83   647.94   686.39   696.64   707.35   729.96
   
       mode:     67       68       69       70       71       72
  temp. (K):   738.75   755.13   760.86   772.37   788.58   795.02
   
       mode:     73       74       75       76       77       78
  temp. (K):   808.40   830.50   841.06   873.63   895.55   909.00
   
       mode:     79       80       81       82       83       84
  temp. (K):   913.75   916.07   974.94  1033.78  1033.97  1044.33
   
       mode:     85       86       87       88       89       90
  temp. (K):  1055.03  1066.60  1074.70  1103.67  1125.06  1127.86
   
       mode:     91       92       93       94       95       96
  temp. (K):  1138.35  1158.48  1164.50  1166.86  1193.57  1196.65
   
       mode:     97       98       99      100      101      102
  temp. (K):  1200.60  1203.09  1209.44  1210.81  1213.94  1222.68
   
       mode:    103      104      105      106      107      108
  temp. (K):  1256.68  1260.74  1286.83  1292.85  1303.88  1314.53
   
       mode:    109      110      111      112      113      114
  temp. (K):  1317.46  1322.18  1330.34  1354.28  1356.89  1360.78
   
       mode:    115      116      117      118      119      120
  temp. (K):  1379.65  1390.41  1410.47  1412.47  1415.03  1437.56
   
       mode:    121      122      123      124      125      126
  temp. (K):  1449.58  1456.03  1473.16  1478.64  1482.59  1489.24
   
       mode:    127      128      129      130      131      132
  temp. (K):  1522.57  1527.11  1530.29  1539.06  1541.54  1561.95
   
       mode:    133      134      135      136      137      138
  temp. (K):  1564.27  1569.15  1591.51  1596.16  1601.91  1602.18
   
       mode:    139      140      141      142      143      144
  temp. (K):  1606.07  1613.04  1620.38  1640.50  1653.99  1659.61
   
       mode:    145      146      147      148      149      150
  temp. (K):  1671.53  1685.34  1704.84  1706.97  1723.43  1724.69
   
       mode:    151      152      153      154      155      156
  temp. (K):  1741.10  1742.11  1748.73  1754.61  1759.72  1762.45
   
       mode:    157      158      159      160      161      162
  temp. (K):  1774.36  1786.16  1806.36  1811.39  1836.23  1846.80
   
       mode:    163      164      165      166      167      168
  temp. (K):  1862.11  1866.89  1873.05  1881.43  1886.28  1891.64
   
       mode:    169      170      171      172      173      174
  temp. (K):  1898.97  1900.66  1906.71  1910.86  1928.27  1933.26
   
       mode:    175      176      177      178      179      180
  temp. (K):  1940.98  1942.14  1944.33  1971.68  1978.30  1982.72
   
       mode:    181      182      183      184      185      186
  temp. (K):  1990.32  1991.06  2003.04  2005.95  2007.96  2015.02
   
       mode:    187      188      189      190      191      192
  temp. (K):  2015.68  2016.58  2021.07  2022.42  2054.09  2120.29
   
       mode:    193      194      195      196      197      198
  temp. (K):  2133.21  2152.33  2163.19  2170.39  2173.44  2174.11
   
       mode:    199      200      201      202      203      204
  temp. (K):  2175.74  2177.06  2177.66  2179.48  2184.49  2186.43
   
       mode:    205      206      207      208      209      210
  temp. (K):  2189.45  2190.34  2198.11  2201.23  2202.55  2205.35
   
       mode:    211      212      213      214      215      216
  temp. (K):  2208.29  2210.39  2213.51  2225.77  2339.56  2348.95
   
       mode:    217      218      219      220      221      222
  temp. (K):  2361.90  2369.55  2380.51  2384.57  2390.37  2391.44
   
       mode:    223      224      225      226      227      228
  temp. (K):  4345.94  4350.79  4355.37  4359.72  4360.24  4362.17
   
       mode:    229      230      231      232      233      234
  temp. (K):  4372.19  4376.66  4382.69  4399.08  4405.22  4406.70
   
       mode:    235      236      237      238      239      240
  temp. (K):  4416.28  4428.14  4430.41  4434.24  4436.25  4444.76
   
       mode:    241      242      243      244      245      246
  temp. (K):  4449.60  4455.34  4458.01  4479.37  4485.87  4488.67
   
       mode:    247      248      249      250      251      252
  temp. (K):  4530.24  4542.47  4549.59  4553.65  4555.93  4569.79
   
       mode:    253      254      255      256      257      258
  temp. (K):  4570.28  4573.90  4581.56  4582.52  4591.19  4602.85
   
       mode:    259      260      261      262      263      264
  temp. (K):  4604.41  4605.12  4620.19  4625.52  4649.53  4674.66
   
       mode:    265      266      267
  temp. (K):  4675.12  4699.09  4998.84
   
   
  Thermodynamic properties calculated assuming an ideal gas

  In the table below, the units for temperature
  are kelvins, the units for U, H, and G are
  kcal/mol and the units for Cv and S are cal/(mol K)

  The zero point energy (ZPE):    477.599 kcal/mol
  is not included in U, H, or G in the table below
  
 
  =============================================================================
  Thermodynamic properties for P = 1.00E+00 atm, calculated at   1 temperatures


  T =   298.15 K, P = 1.00E+00 atm
   
                  U         Cv          S          H          G        ln(Q)
              =========  =========  =========  =========  =========  =========
  trans.          0.889      2.981     45.936      1.481    -12.214   20.61563
  rot.            0.889      2.981     38.528      0.889    -10.598   17.88814
  vib.           26.208    169.780    161.914     26.208    -22.067   37.24449
  elec.           0.000      0.000      0.000      0.000      0.000    0.00000
  ----------------------------------------------------------------------------
  total          27.985    175.742    246.378     28.578    -44.880   75.74826
   
   Total internal energy, Utot(SCFE + ZPE + U):   -2422.559461 hartrees
   Total enthalpy, Htot (Utot + nRT), with n=1:   -2422.558516 hartrees
    Total Gibbs free energy, Gtot (Htot - T*S):   -2422.675579 hartrees
   
  end of program freq
   
 Time(freq)  user:       1.130  user+sys:       1.130  wallclock:       0.362
  
  start of program post
  
  Writing input files for PBF
  end of program post
   
 Time(post)  user:       0.341  user+sys:       0.341  wallclock:       0.108

 Total cpu seconds     user:  213394.909   user+sys:  213394.909
  
 Total elapsed time:    24819 seconds

Job L_Ar_Br_N_Na_N_trans_PL145 completed on bp1-compute122 at Wed Dec  3 01:57:10 2025
