Job ox_add_Br_trans_L1_PL145 started on bp1-compute031.data.bp.acrc.priv at Fri Mar 15 14:35:51 2024
jobid: bp1-compute031-0-65f45cc4

  +--------------------------------------------------------------------+
  |  Jaguar version 11.4, release 135                                  |
  |                                                                    |
  |  Copyright Schrodinger, Inc.                                       |
  |  All Rights Reserved.                                              |
  |                                                                    |
  |  The following have contributed to Jaguar (listed alphabetically): |
  |  Mike Beachy, Art Bochevarov, Dale Braden, Yixiang Cao,            |
  |  Alan Chien, Chris Cortis, Rich Friesner, Bill Goddard,            |
  |  Hod Greeley, Tom Hughes, Leif Jacobson, Jean-Marc Langlois,       |
  |  Daniel Levine, Daniel Mainz, Rob Murphy, Dean Philipp,            |
  |  Tom Pollard, Murco Ringnalda, Mark Watson, Haoyu Yu.              |
  |                                                                    |
  |  Use of this program should be acknowledged in publications as:    |
  |                                                                    |
  |  Jaguar, version 11.4, Schrodinger, Inc., New York, NY, 2021.      |
  |                                                                    |
  |  A. D. Bochevarov, E. Harder, T. F. Hughes, J. R. Greenwood,       |
  |  D. A. Braden, D. M. Philipp, D. Rinaldo, M. D. Halls,             |
  |  J. Zhang, R. A. Friesner, "Jaguar: A High-Performance Quantum     |
  |  Chemistry Software Program with Strengths in Life and Materials   |
  |  Sciences", Int. J. Quantum Chem., 2013, 113(18), 2110-2142.       |
  +--------------------------------------------------------------------+
  
  start of program pre
  
  Job name: ox_add_Br_trans_L1_PL145
  Executables used: /sw/apps/schrodinger2021-4/jaguar-v11.4/bin/Linux-x86_64
  Temporary files : /tmp/ar21627/ox_add_Br_trans_L1_PL145
  Maestro file (input):  ox_add_Br_trans_L1_PL145.mae
  Maestro file (output): ox_add_Br_trans_L1_PL145.01.mae
  
 Contents of input file: &gen section only
 ----------------Contents start----------------
&gen
dftname=b3pw91-d3
basis=6-31G*
numd=5
ip11=2
iaccg=3
isolv=2
igeopt=1
solvent=benzene
ifreq=1
&
 -----------------Contents end-----------------
 
  basis set:             non_standard                    
  net molecular charge:    0
  multiplicity:            1
  
  This run will use ECP on            2  atoms
  number of basis functions....          626
  
 Input geometry:
                                   angstroms
  atom               x                 y                 z
  P1            0.0000000000      0.0000000000      0.0000000000 
  Pd2           0.0000000000      0.0000000000      2.3939100518 
  Br3           2.4356423847      0.0000000000      2.9438771575 
  C73          -1.3099704604     -0.1220839423      6.9743739903 
  C74          -1.0539546789      1.1086735116      6.3855515605 
  C75          -0.5609059573      1.1340261808      5.0773016488 
  C76          -0.3472548240     -0.0530180702      4.3631094256 
  C77          -0.5915658045     -1.2748482943      5.0022370772 
  C78          -1.0813195377     -1.3194478731      6.3101427576 
  F79          -1.7900114769     -0.1569033664      8.2397291806 
  H80          -1.2304428206      2.0212751892      6.9491590222 
  H81          -0.3433660729      2.0960382521      4.6160493344 
  H82          -0.4023638020     -2.2111601822      4.4813268881 
  H83          -1.2800057517     -2.2609324443      6.8166244065 
  C3            1.7608762509      0.0000000000     -0.7421894815 
  C4           -0.8162921494     -1.5574842211     -0.7603611454 
  C5           -0.8021165931      1.4244115892     -0.9186980760 
  C6            1.9146491168      0.4060714136     -2.2245412319 
  C7            3.4081965324      0.5198683567     -2.6093393883 
  C8            4.1820583051     -0.7780787713     -2.3129690622 
  C9            3.9979547511     -1.2054981706     -0.8448675086 
  C10           2.5055327183     -1.3294493602     -0.4715173370 
  C11          -0.5455197860     -2.7866526259      0.1492917778 
  C12          -1.0570625867     -4.0881462915     -0.5066923764 
  C13          -2.5580681787     -4.0023100653     -0.8432255988 
  C14          -2.8559368860     -2.7577946663     -1.7013731388 
  C15          -2.3403995338     -1.4656803072     -1.0307062917 
  C16          -1.1242155392      1.2375240466     -2.2863189806 
  C17          -1.7234752811      2.2408517206     -3.0584062873 
  C18          -2.0198144825      3.4790428304     -2.4699975819 
  C19          -1.6929591617      3.6880696740     -1.1262848168 
  C20          -1.0799874677      2.6893800314     -0.3327116885 
  C21          -0.7623996973      3.0697307434      1.0795928611 
  C22          -1.8060053725      3.1900988101      2.0297503096 
  C23          -1.5366533592      3.5935126391      3.3513772174 
  C24          -0.2199254133      3.9021562911      3.7132034198 
  C25           0.8270891990      3.8420096765      2.7852567189 
  C26           0.5507539822      3.4236713384      1.4698104190 
  O27           1.4992583859      3.3522325147      0.4724543367 
  C28           2.8533384922      3.6072424938      0.8518659008 
  O29          -3.0643071908      2.9146500914      1.5548327362 
  C30          -4.0888055149      2.6783631170      2.5217698272 
  H31           2.2421854995      0.7738520556     -0.1134750923 
  H32           1.4329316660     -0.3500122301     -2.8812996894 
  H33           1.4134840190      1.3688954111     -2.4213778571 
  H34           3.8611219606      1.3524423143     -2.0321848305 
  H35           3.4995188980      0.7926625559     -3.6800344396 
  H36           3.8049954211     -1.5842430828     -2.9778874372 
  H37           5.2567009737     -0.6499016741     -2.5530046021 
  H38           4.4652851582     -0.4577396365     -0.1733620357 
  H39           4.5137412005     -2.1674241652     -0.6550191122 
  H40           2.4147364956     -1.5947898063      0.5957456873 
  H41           2.0516827871     -2.1429027840     -1.0752732074 
  H42          -0.2939447898     -1.7206024809     -1.7305084219 
  H43           0.5275806741     -2.8830777721      0.3851115867 
  H44          -1.0621044762     -2.6151042963      1.1126715030 
  H45          -0.8617024330     -4.9444561324      0.1681405100 
  H46          -0.4837773400     -4.2841225735     -1.4388434078 
  H47          -2.8956718967     -4.9231158530     -1.3605702372 
  H48          -3.1348928874     -3.9335170211      0.1008106230 
  H49          -3.9447637314     -2.6695714756     -1.8882345494 
  H50          -2.3755687108     -2.8775276004     -2.6973450990 
  H51          -2.8490477114     -1.3055056459     -0.0626442926 
  H52          -2.5893557442     -0.5973558068     -1.6636846196 
  H53          -0.8901137861      0.2818308150     -2.7668899433 
  H54          -1.9558460338      2.0507490735     -4.1138163845 
  H55          -2.4952346582      4.2768691893     -3.0539088487 
  H56          -1.9091748432      4.6533610507     -0.6543707284 
  H57          -2.3328536194      3.6277470654      4.0987289039 
  H58          -0.0003689518      4.1833500545      4.7492839160 
  H59           1.8495431705      4.0572237386      3.1025078095 
  H60           3.4462810625      3.4763850746     -0.0681000210 
  H61           3.1853497061      2.8828948570      1.6187207393 
  H62           2.9812619939      4.6462511135      1.2201099843 
  H63          -3.7922665394      1.8658495689      3.2092963185 
  H64          -4.9714892885      2.3641859827      1.9421291735 
  H65          -4.3384177598      3.5994186982      3.0895580454 
   
  principal moments of inertia:
        amu*angstrom^2:     5299.08323     7495.63116     7931.65525
                g*cm^2: 8.79933363E-37 1.24467868E-36 1.31708218E-36
   
  rotational constants:
               cm^(-1):      0.00318124      0.00224899      0.00212536
                   GHz:      0.09537103      0.06742314      0.06371671
   
  Molecular weight:     690.09 amu
   
  Stoichiometry: PdC32PH39BrO2F
  Molecular Point Group: C1      
  Point Group used: C1
  
 
Number of optimization coordinates:   263
Number of independent coordinates:    263
Number of non-redundant coordinates:  225
Number of frozen coordinates:           0
Number of harmonic constraints:         0
 
Number of geometric degrees of freedom:   225
Maximum geometric degrees of freedom:     225
 " " " " " excluding dummy atoms:         225
 
 
  bond lengths (angstroms):
 
 P1      -Pd2     :   2.393910      P1      -C3      :   1.910898
 P1      -C4      :   1.915787      P1      -C5      :   1.875192
 Pd2     -Br3     :   2.496962      Pd2     -C76     :   2.000286
 C73     -C74     :   1.388171      C73     -C78     :   1.388224
 C73     -F79     :   1.353800      C74     -C75     :   1.398305
 C74     -H80     :   1.087034      C75     -C76     :   1.401710
 C75     -H81     :   1.088827      C76     -C77     :   1.400372
 C77     -C78     :   1.397306      C77     -H82     :   1.088037
 C78     -H83     :   1.087379      C3      -C6      :   1.544638
 C3      -C10     :   1.547647      C3      -H31     :   1.107153
 C4      -C11     :   1.552946      C4      -C15     :   1.550619
 C4      -H42     :   1.113840      C5      -C16     :   1.417414
 C5      -C20     :   1.421526      C6      -C7      :   1.546513
 C6      -H32     :   1.111326      C6      -H33     :   1.103151
 C7      -C8      :   1.539923      C7      -H34     :   1.109697
 C7      -H35     :   1.108668      C8      -C9      :   1.540099
 C8      -H36     :   1.110943      C8      -H37     :   1.108559
 C9      -C10     :   1.543398      C9      -H38     :   1.108359
 C9      -H39     :   1.107872      C10     -H40     :   1.103494
 C10     -H41     :   1.110048      C11     -C12     :   1.544628
 C11     -H43     :   1.102929      C11     -H44     :   1.106521
 C12     -C13     :   1.540662      C12     -H45     :   1.107624
 C12     -H46     :   1.111741      C13     -C14     :   1.540767
 C13     -H47     :   1.108830      C13     -H48     :   1.108451
 C14     -C15     :   1.544387      C14     -H49     :   1.108262
 C14     -H50     :   1.112227      C15     -H51     :   1.105225
 C15     -H52     :   1.103009      C16     -C17     :   1.400678
 C16     -H53     :   1.095035      C17     -C18     :   1.402554
 C17     -H54     :   1.097281      C18     -C19     :   1.398603
 C18     -H55     :   1.097043      C19     -C20     :   1.415229
 C19     -H56     :   1.096011      C20     -C21     :   1.496707
 C21     -C22     :   1.416475      C21     -C26     :   1.414891
 C22     -C23     :   1.407832      C22     -O29     :   1.372859
 C23     -C24     :   1.399983      C23     -H57     :   1.092539
 C24     -C25     :   1.400336      C24     -H58     :   1.095782
 C25     -C26     :   1.407752      C25     -H59     :   1.091960
 C26     -O27     :   1.378217      O27     -C28     :   1.429166
 C28     -H60     :   1.102289      C28     -H61     :   1.105883
 C28     -H62     :   1.109733      O29     -C30     :   1.428424
 C30     -H63     :   1.104901      C30     -H64     :   1.101736
 C30     -H65     :   1.110420
 
  bond angles:
 
 C3      -P1      -Pd2     : 112.854874  C4      -P1      -Pd2     : 113.384048
 C4      -P1      -C3      : 103.797047  C5      -P1      -Pd2     : 119.335462
 C5      -P1      -C3      : 101.764216  C5      -P1      -C4      : 103.935872
 Br3     -Pd2     -P1      : 102.723983  C76     -Pd2     -P1      : 169.885589
 C76     -Pd2     -Br3     :  87.277873  C78     -C73     -C74     : 122.098525
 F79     -C73     -C74     : 118.990092  F79     -C73     -C78     : 118.910051
 C75     -C74     -C73     : 118.552117  H80     -C74     -C73     : 119.634489
 H80     -C74     -C75     : 121.810823  C76     -C75     -C74     : 121.003524
 H81     -C75     -C74     : 118.868929  H81     -C75     -C76     : 120.127545
 C75     -C76     -Pd2     : 120.371939  C77     -C76     -Pd2     : 120.180024
 C77     -C76     -C75     : 118.669095  C78     -C77     -C76     : 121.077373
 H82     -C77     -C76     : 120.131815  H82     -C77     -C78     : 118.790726
 C77     -C78     -C73     : 118.558919  H83     -C78     -C73     : 119.592635
 H83     -C78     -C77     : 121.847482  C6      -C3      -P1      : 117.676148
 C10     -C3      -P1      : 112.052203  C10     -C3      -C6      : 110.228616
 H31     -C3      -P1      : 100.372038  H31     -C3      -C6      : 108.538360
 H31     -C3      -C10     : 106.973355  C11     -C4      -P1      : 109.675858
 C15     -C4      -P1      : 116.095413  C15     -C4      -C11     : 108.685035
 H42     -C4      -P1      : 105.362777  H42     -C4      -C11     : 108.210602
 H42     -C4      -C15     : 108.527420  C16     -C5      -P1      : 118.018741
 C20     -C5      -P1      : 123.890444  C20     -C5      -C16     : 118.076616
 C7      -C6      -C3      : 110.748753  H32     -C6      -C3      : 110.189696
 H32     -C6      -C7      : 108.761852  H33     -C6      -C3      : 110.821576
 H33     -C6      -C7      : 109.276348  H33     -C6      -H32     : 106.943579
 C8      -C7      -C6      : 112.049932  H34     -C7      -C6      : 108.661171
 H34     -C7      -C8      : 109.097085  H35     -C7      -C6      : 109.752032
 H35     -C7      -C8      : 110.601340  H35     -C7      -H34     : 106.502571
 C9      -C8      -C7      : 110.934835  H36     -C8      -C7      : 109.018804
 H36     -C8      -C9      : 109.182296  H37     -C8      -C7      : 110.366786
 H37     -C8      -C9      : 110.755376  H37     -C8      -H36     : 106.459137
 C10     -C9      -C8      : 111.621485  H38     -C9      -C8      : 109.870468
 H38     -C9      -C10     : 108.381341  H39     -C9      -C8      : 110.405725
 H39     -C9      -C10     : 109.816229  H39     -C9      -H38     : 106.598006
 C9      -C10     -C3      : 110.730175  H40     -C10     -C3      : 109.640323
 H40     -C10     -C9      : 109.440822  H41     -C10     -C3      : 109.733502
 H41     -C10     -C9      : 108.822300  H41     -C10     -H40     : 108.432918
 C12     -C11     -C4      : 111.125405  H43     -C11     -C4      : 111.351347
 H43     -C11     -C12     : 109.837706  H44     -C11     -C4      : 107.810704
 H44     -C11     -C12     : 110.228737  H44     -C11     -H43     : 106.357483
 C13     -C12     -C11     : 111.621470  H45     -C12     -C11     : 109.527273
 H45     -C12     -C13     : 110.364658  H46     -C12     -C11     : 109.501987
 H46     -C12     -C13     : 109.211968  H46     -C12     -H45     : 106.475670
 C14     -C13     -C12     : 110.794037  H47     -C13     -C12     : 110.626783
 H47     -C13     -C14     : 110.611963  H48     -C13     -C12     : 108.930251
 H48     -C13     -C14     : 108.881681  H48     -C13     -H47     : 106.885455
 C15     -C14     -C13     : 111.677594  H49     -C14     -C13     : 110.373692
 H49     -C14     -C15     : 109.546854  H50     -C14     -C13     : 109.165367
 H50     -C14     -C15     : 109.558147  H50     -C14     -H49     : 106.374181
 C14     -C15     -C4      : 110.749596  H51     -C15     -C4      : 107.952207
 H51     -C15     -C14     : 110.364467  H52     -C15     -C4      : 111.623564
 H52     -C15     -C14     : 109.517124  H52     -C15     -H51     : 106.539811
 C17     -C16     -C5      : 122.319238  H53     -C16     -C5      : 119.336537
 H53     -C16     -C17     : 118.341005  C18     -C17     -C16     : 119.440155
 H54     -C17     -C16     : 119.781371  H54     -C17     -C18     : 120.778471
 C19     -C18     -C17     : 119.053335  H55     -C18     -C17     : 120.683342
 H55     -C18     -C19     : 120.262150  C20     -C19     -C18     : 122.309158
 H56     -C19     -C18     : 119.947166  H56     -C19     -C20     : 117.743514
 C19     -C20     -C5      : 118.781466  C21     -C20     -C5      : 125.004211
 C21     -C20     -C19     : 116.211950  C22     -C21     -C20     : 119.882526
 C26     -C21     -C20     : 121.382210  C26     -C21     -C22     : 118.524149
 C23     -C22     -C21     : 120.870938  O29     -C22     -C21     : 115.225735
 O29     -C22     -C23     : 123.890184  C24     -C23     -C22     : 119.061268
 H57     -C23     -C22     : 120.778045  H57     -C23     -C24     : 120.113983
 C25     -C24     -C23     : 121.499432  H58     -C24     -C23     : 119.300694
 H58     -C24     -C25     : 119.193960  C26     -C25     -C24     : 119.025933
 H59     -C25     -C24     : 119.940819  H59     -C25     -C26     : 120.920782
 C25     -C26     -C21     : 120.945871  O27     -C26     -C21     : 115.225326
 O27     -C26     -C25     : 123.815288  C28     -O27     -C26     : 116.787962
 H60     -C28     -O27     : 105.480406  H61     -C28     -O27     : 110.589352
 H61     -C28     -H60     : 109.845361  H62     -C28     -O27     : 111.368976
 H62     -C28     -H60     : 109.031337  H62     -C28     -H61     : 110.398103
 C30     -O29     -C22     : 117.154581  H63     -C30     -O29     : 110.509948
 H64     -C30     -O29     : 105.405671  H64     -C30     -H63     : 109.432569
 H65     -C30     -O29     : 111.724695  H65     -C30     -H63     : 110.617181
 H65     -C30     -H64     : 108.993185
 
  torsional angles:
 
 P1      -Pd2     -C76     -C75     : -94.452095
 P1      -Pd2     -C76     -C77     :  75.306101
 P1      -C3      -C6      -C7      : 173.025537
 P1      -C3      -C6      -H32     : -66.592077
 P1      -C3      -C6      -H33     :  51.575275
 P1      -C3      -C10     -C9      :-169.424702
 P1      -C3      -C10     -H40     : -48.565920
 P1      -C3      -C10     -H41     :  70.426147
 P1      -C4      -C11     -C12     :-173.877998
 P1      -C4      -C11     -H43     : -51.081401
 P1      -C4      -C11     -H44     :  65.226560
 P1      -C4      -C15     -C14     : 177.367530
 P1      -C4      -C15     -H51     : -61.707073
 P1      -C4      -C15     -H52     :  55.058353
 P1      -C5      -C16     -C17     :-179.929022
 P1      -C5      -C16     -H53     :  -0.592880
 P1      -C5      -C20     -C19     :-179.821997
 P1      -C5      -C20     -C21     :   0.761002
 Pd2     -P1      -C3      -C6      :-162.731193
 Pd2     -P1      -C3      -C10     :  67.943966
 Pd2     -P1      -C3      -H31     : -45.281142
 Pd2     -P1      -C4      -C11     : -33.657334
 Pd2     -P1      -C4      -C15     :  89.983783
 Pd2     -P1      -C4      -H42     :-149.916398
 Pd2     -P1      -C5      -C16     :-162.687575
 Pd2     -P1      -C5      -C20     :  18.712067
 Pd2     -C76     -C75     -C74     : 167.622400
 Pd2     -C76     -C75     -H81     : -12.357611
 Pd2     -C76     -C77     -C78     :-167.803463
 Pd2     -C76     -C77     -H82     :  12.088620
 Br3     -Pd2     -P1      -C3      :   0.000000
 Br3     -Pd2     -P1      -C4      : 117.659457
 Br3     -Pd2     -P1      -C5      :-119.384791
 Br3     -Pd2     -C76     -C75     :  94.023527
 Br3     -Pd2     -C76     -C77     : -96.218277
 C73     -C74     -C75     -C76     :   0.978288
 C73     -C74     -C75     -H81     :-179.041455
 C73     -C78     -C77     -C76     :  -0.660408
 C73     -C78     -C77     -H82     : 179.446091
 C74     -C73     -C78     -C77     :  -0.712150
 C74     -C73     -C78     -H83     : 178.937316
 C74     -C75     -C76     -C77     :  -2.288612
 C75     -C74     -C73     -C78     :   0.554537
 C75     -C74     -C73     -F79     :-179.870066
 C75     -C76     -C77     -C78     :   2.127464
 C75     -C76     -C77     -H82     :-177.980453
 C76     -Pd2     -P1      -C3      :-171.319248
 C76     -Pd2     -P1      -C4      : -53.659791
 C76     -Pd2     -P1      -C5      :  69.295961
 C76     -C75     -C74     -H80     :-179.607446
 C76     -C77     -C78     -H83     : 179.698421
 C77     -C76     -C75     -H81     : 177.731377
 C77     -C78     -C73     -F79     : 179.712125
 C78     -C73     -C74     -H80     :-178.872806
 F79     -C73     -C74     -H80     :   0.702591
 F79     -C73     -C78     -H83     :  -0.638409
 H80     -C74     -C75     -H81     :   0.372812
 H82     -C77     -C78     -H83     :  -0.195079
 C3      -P1      -C4      -C11     :  89.156571
 C3      -P1      -C4      -C15     :-147.202312
 C3      -P1      -C4      -H42     : -27.102493
 C3      -P1      -C5      -C16     :  72.413626
 C3      -P1      -C5      -C20     :-106.186733
 C3      -C6      -C7      -C8      :  55.634693
 C3      -C6      -C7      -H34     : -64.987080
 C3      -C6      -C7      -H35     : 178.919672
 C3      -C10     -C9      -C8      : -56.646533
 C3      -C10     -C9      -H38     :  64.483797
 C3      -C10     -C9      -H39     :-179.431519
 C4      -P1      -C3      -C6      :  74.106847
 C4      -P1      -C3      -C10     : -55.217994
 C4      -P1      -C3      -H31     :-168.443102
 C4      -P1      -C5      -C16     : -35.204125
 C4      -P1      -C5      -C20     : 146.195516
 C4      -C11     -C12     -C13     : -56.808193
 C4      -C11     -C12     -H45     :-179.338689
 C4      -C11     -C12     -H46     :  64.248597
 C4      -C15     -C14     -C13     :  57.586148
 C4      -C15     -C14     -H49     :-179.820371
 C4      -C15     -C14     -H50     : -63.486672
 C5      -P1      -C3      -C6      : -33.618468
 C5      -P1      -C3      -C10     :-162.943309
 C5      -P1      -C3      -H31     :  83.831583
 C5      -P1      -C4      -C11     :-164.747617
 C5      -P1      -C4      -C15     : -41.106500
 C5      -P1      -C4      -H42     :  78.993319
 C5      -C16     -C17     -C18     :   0.039287
 C5      -C16     -C17     -H54     :-179.941590
 C5      -C20     -C19     -C18     :  -0.781942
 C5      -C20     -C19     -H56     : 179.365007
 C5      -C20     -C21     -C22     :-107.228545
 C5      -C20     -C21     -C26     :  78.129400
 C6      -C3      -C10     -C9      :  57.469349
 C6      -C3      -C10     -H40     : 178.328131
 C6      -C3      -C10     -H41     : -62.679802
 C6      -C7      -C8      -C9      : -54.134037
 C6      -C7      -C8      -H36     :  66.129439
 C6      -C7      -C8      -H37     :-177.278229
 C7      -C6      -C3      -C10     : -56.801689
 C7      -C6      -C3      -H31     :  60.052067
 C7      -C8      -C9      -C10     :  54.569811
 C7      -C8      -C9      -H38     : -65.690592
 C7      -C8      -C9      -H39     : 177.017486
 C8      -C7      -C6      -H32     : -65.594582
 C8      -C7      -C6      -H33     : 177.990841
 C8      -C9      -C10     -H40     :-177.623539
 C8      -C9      -C10     -H41     :  64.045397
 C9      -C8      -C7      -H34     :  66.234617
 C9      -C8      -C7      -H35     :-176.939257
 C9      -C10     -C3      -H31     : -60.353786
 C10     -C3      -C6      -H32     :  63.580696
 C10     -C3      -C6      -H33     :-178.251951
 C10     -C9      -C8      -H36     : -65.596447
 C10     -C9      -C8      -H37     : 177.489827
 C11     -C4      -C15     -C14     : -58.478386
 C11     -C4      -C15     -H51     :  62.447011
 C11     -C4      -C15     -H52     : 179.212437
 C11     -C12     -C13     -C14     :  53.999904
 C11     -C12     -C13     -H47     : 177.044954
 C11     -C12     -C13     -H48     : -65.748743
 C12     -C11     -C4      -C15     :  58.238166
 C12     -C11     -C4      -H42     : -59.432276
 C12     -C13     -C14     -C15     : -54.490564
 C12     -C13     -C14     -H49     :-176.610055
 C12     -C13     -C14     -H50     :  66.810280
 C13     -C12     -C11     -H43     : 179.527012
 C13     -C12     -C11     -H44     :  62.653743
 C13     -C14     -C15     -H51     : -61.899481
 C13     -C14     -C15     -H52     :-178.883557
 C14     -C13     -C12     -H45     : 176.049504
 C14     -C13     -C12     -H46     : -67.225513
 C14     -C15     -C4      -H42     :  58.990564
 C15     -C4      -C11     -H43     :-178.965237
 C15     -C4      -C11     -H44     : -62.657277
 C15     -C14     -C13     -H47     :-177.544184
 C15     -C14     -C13     -H48     :  65.287172
 C16     -C5      -C20     -C19     :   1.578398
 C16     -C5      -C20     -C21     :-177.838604
 C16     -C17     -C18     -C19     :   0.806805
 C16     -C17     -C18     -H55     :-179.586217
 C17     -C16     -C5      -C20     :  -1.245820
 C17     -C18     -C19     -C20     :  -0.436161
 C17     -C18     -C19     -H56     : 179.413743
 C18     -C17     -C16     -H53     :-179.303176
 C18     -C19     -C20     -C21     : 178.685783
 C19     -C18     -C17     -H54     :-179.212513
 C19     -C20     -C21     -C22     :  73.340999
 C19     -C20     -C21     -C26     :-101.301056
 C20     -C5      -C16     -H53     : 178.090321
 C20     -C19     -C18     -H55     : 179.955164
 C20     -C21     -C22     -C23     :-177.687037
 C20     -C21     -C22     -O29     :   1.044076
 C20     -C21     -C26     -C25     : 176.908189
 C20     -C21     -C26     -O27     :  -1.804053
 C21     -C20     -C19     -H56     :  -1.167268
 C21     -C22     -C23     -C24     :   1.241559
 C21     -C22     -C23     -H57     :-176.275674
 C21     -C22     -O29     -C30     : 164.048999
 C21     -C26     -C25     -C24     :   0.137764
 C21     -C26     -C25     -H59     : 176.279676
 C21     -C26     -O27     -C28     :-175.544166
 C22     -C21     -C26     -C25     :   2.195393
 C22     -C21     -C26     -O27     :-176.516850
 C22     -C23     -C24     -C25     :   1.189470
 C22     -C23     -C24     -H58     :-177.918494
 C22     -O29     -C30     -H63     : -55.368098
 C22     -O29     -C30     -H64     :-173.501882
 C22     -O29     -C30     -H65     :  68.256581
 C23     -C22     -C21     -C26     :  -2.892692
 C23     -C22     -O29     -C30     : -17.263028
 C23     -C24     -C25     -C26     :  -1.872391
 C23     -C24     -C25     -H59     :-178.052929
 C24     -C23     -C22     -O29     :-177.375611
 C24     -C25     -C26     -O27     : 178.735594
 C25     -C24     -C23     -H57     : 178.723569
 C25     -C26     -O27     -C28     :   5.785165
 C26     -C21     -C22     -O29     : 175.838421
 C26     -C25     -C24     -H58     : 177.236503
 C26     -O27     -C28     -H60     : 178.556959
 C26     -O27     -C28     -H61     :  59.849315
 C26     -O27     -C28     -H62     : -63.298094
 O27     -C26     -C25     -H59     :  -5.122494
 O29     -C22     -C23     -H57     :   5.107156
 H31     -C3      -C6      -H32     :-179.565548
 H31     -C3      -C6      -H33     : -61.398195
 H31     -C3      -C10     -H40     :  60.504996
 H31     -C3      -C10     -H41     : 179.497063
 H32     -C6      -C7      -H34     : 173.783646
 H32     -C6      -C7      -H35     :  57.690397
 H33     -C6      -C7      -H34     :  57.369069
 H33     -C6      -C7      -H35     : -58.724180
 H34     -C7      -C8      -H36     :-173.501907
 H34     -C7      -C8      -H37     : -56.909575
 H35     -C7      -C8      -H36     : -56.675781
 H35     -C7      -C8      -H37     :  59.916551
 H36     -C8      -C9      -H38     : 174.143149
 H36     -C8      -C9      -H39     :  56.851228
 H37     -C8      -C9      -H38     :  57.229423
 H37     -C8      -C9      -H39     : -60.062498
 H38     -C9      -C10     -H40     : -56.493209
 H38     -C9      -C10     -H41     :-174.824272
 H39     -C9      -C10     -H40     :  59.591475
 H39     -C9      -C10     -H41     : -58.739588
 H42     -C4      -C11     -H43     :  63.364321
 H42     -C4      -C11     -H44     : 179.672282
 H42     -C4      -C15     -H51     : 179.915962
 H42     -C4      -C15     -H52     : -63.318613
 H43     -C11     -C12     -H45     :  56.996516
 H43     -C11     -C12     -H46     : -59.416198
 H44     -C11     -C12     -H45     : -59.876753
 H44     -C11     -C12     -H46     :-176.289467
 H45     -C12     -C13     -H47     : -60.905446
 H45     -C12     -C13     -H48     :  56.300857
 H46     -C12     -C13     -H47     :  55.819537
 H46     -C12     -C13     -H48     : 173.025840
 H47     -C13     -C14     -H49     :  60.336325
 H47     -C13     -C14     -H50     : -56.243340
 H48     -C13     -C14     -H49     : -56.832318
 H48     -C13     -C14     -H50     :-173.411983
 H49     -C14     -C15     -H51     :  60.694001
 H49     -C14     -C15     -H52     : -56.290076
 H50     -C14     -C15     -H51     : 177.027700
 H50     -C14     -C15     -H52     :  60.043624
 H53     -C16     -C17     -H54     :   0.715947
 H54     -C17     -C18     -H55     :   0.394465
 H55     -C18     -C19     -H56     :  -0.194931
 H57     -C23     -C24     -H58     :  -0.384394
 H58     -C24     -C25     -H59     :   1.055964
 
  nuclear repulsion energy.......    5040.554486365 hartrees
  
  Detected an organometallic with only one TM atom. 
  
  Oxidation state on metal       2 is     2
  Formal multiplet on metal      2 is     1
  Formal charge on ligand        3 is    -1
  Formal multiplet on ligand     3 is     1
  Formal charge on ligand        4 is    -1
  Formal multiplet on ligand     4 is     1
  
 
  Will use High-Quality Initial guess for organometallics
       including d-d repulsion (iguess=30)
 
 Non-default options chosen:
   SCF calculation type: DFT(b3pw91-d3)              
   DFT=Becke_3_Parameter/HF+Slater+Becke88+PW91+PW-GGAIIC (B3PW91-D3)
   Geometry will be optimized in redundant internal coordinates
   Solvation energy will be computed using PBF
     -solute cavity energy will not be included
     -surface area terms will not be included
   Vibrational frequencies and related properties will be computed
      from analytic second derivatives
   IR intensities will be computed
   Thermochemical properties will be computed
   Scaling standard convergence criteria by a factor of   5.00
   Solvent: benzene                                                         
   Internal dielectric constant:    1.000
   Continuum dielectric constant:   2.283
   Solvent probe molecule radius:   2.600
  
 Non-default print settings:
     11=  2
  
 Temporary integer options set:
     21= -1  73=  2
  
  atom       vdw   vdw2    cov     mass  grid  daf  charge   basis
  P1        2.147  2.074  1.060   30.974    Y    Y      Y    6-31g*
  Pd2       1.450  1.450  1.280  105.903    Y    Y      Y    lacv3p*
  Br3       2.095  2.095  1.140   78.918    Y    Y      Y    lav3p*
  C73       1.949  1.900  0.770   12.000    Y    Y      Y    6-31g*
  C74       1.949  1.900  0.770   12.000    Y    Y      Y    6-31g*
  C75       1.949  1.900  0.770   12.000    Y    Y      Y    6-31g*
  C76       1.949  1.900  0.770   12.000    Y    Y      Y    6-31g*
  C77       1.949  1.900  0.770   12.000    Y    Y      Y    6-31g*
  C78       1.949  1.900  0.770   12.000    Y    Y      Y    6-31g*
  F79       1.736  1.682  0.720   18.998    Y    Y      Y    6-31g*
  H80       1.597  1.150  0.320    1.008    Y    Y      Y    6-31g*
  H81       1.597  1.150  0.320    1.008    Y    Y      Y    6-31g*
  H82       1.597  1.150  0.320    1.008    Y    Y      Y    6-31g*
  H83       1.597  1.150  0.320    1.008    Y    Y      Y    6-31g*
  C3        1.949  1.900  0.770   12.000    Y    Y      Y    6-31g*
  C4        1.949  1.900  0.770   12.000    Y    Y      Y    6-31g*
  C5        1.949  1.900  0.770   12.000    Y    Y      Y    6-31g*
  C6        1.949  1.900  0.770   12.000    Y    Y      Y    6-31g*
  C7        1.949  1.900  0.770   12.000    Y    Y      Y    6-31g*
  C8        1.949  1.900  0.770   12.000    Y    Y      Y    6-31g*
  C9        1.949  1.900  0.770   12.000    Y    Y      Y    6-31g*
  C10       1.949  1.900  0.770   12.000    Y    Y      Y    6-31g*
  C11       1.949  1.900  0.770   12.000    Y    Y      Y    6-31g*
  C12       1.949  1.900  0.770   12.000    Y    Y      Y    6-31g*
  C13       1.949  1.900  0.770   12.000    Y    Y      Y    6-31g*
  C14       1.949  1.900  0.770   12.000    Y    Y      Y    6-31g*
  C15       1.949  1.900  0.770   12.000    Y    Y      Y    6-31g*
  C16       1.949  1.900  0.770   12.000    Y    Y      Y    6-31g*
  C17       1.949  1.900  0.770   12.000    Y    Y      Y    6-31g*
  C18       1.949  1.900  0.770   12.000    Y    Y      Y    6-31g*
  C19       1.949  1.900  0.770   12.000    Y    Y      Y    6-31g*
  C20       1.949  1.900  0.770   12.000    Y    Y      Y    6-31g*
  C21       1.949  1.900  0.770   12.000    Y    Y      Y    6-31g*
  C22       1.949  1.900  0.770   12.000    Y    Y      Y    6-31g*
  C23       1.949  1.900  0.770   12.000    Y    Y      Y    6-31g*
  C24       1.949  1.900  0.770   12.000    Y    Y      Y    6-31g*
  C25       1.949  1.900  0.770   12.000    Y    Y      Y    6-31g*
  C26       1.949  1.900  0.770   12.000    Y    Y      Y    6-31g*
  O27       1.702  1.600  0.730   15.995    Y    Y      Y    6-31g*
  C28       1.949  1.900  0.770   12.000    Y    Y      Y    6-31g*
  O29       1.702  1.600  0.730   15.995    Y    Y      Y    6-31g*
  C30       1.949  1.900  0.770   12.000    Y    Y      Y    6-31g*
  H31       1.597  1.150  0.320    1.008    Y    Y      Y    6-31g*
  H32       1.597  1.150  0.320    1.008    Y    Y      Y    6-31g*
  H33       1.597  1.150  0.320    1.008    Y    Y      Y    6-31g*
  H34       1.597  1.150  0.320    1.008    Y    Y      Y    6-31g*
  H35       1.597  1.150  0.320    1.008    Y    Y      Y    6-31g*
  H36       1.597  1.150  0.320    1.008    Y    Y      Y    6-31g*
  H37       1.597  1.150  0.320    1.008    Y    Y      Y    6-31g*
  H38       1.597  1.150  0.320    1.008    Y    Y      Y    6-31g*
  H39       1.597  1.150  0.320    1.008    Y    Y      Y    6-31g*
  H40       1.597  1.150  0.320    1.008    Y    Y      Y    6-31g*
  H41       1.597  1.150  0.320    1.008    Y    Y      Y    6-31g*
  H42       1.597  1.150  0.320    1.008    Y    Y      Y    6-31g*
  H43       1.597  1.150  0.320    1.008    Y    Y      Y    6-31g*
  H44       1.597  1.150  0.320    1.008    Y    Y      Y    6-31g*
  H45       1.597  1.150  0.320    1.008    Y    Y      Y    6-31g*
  H46       1.597  1.150  0.320    1.008    Y    Y      Y    6-31g*
  H47       1.597  1.150  0.320    1.008    Y    Y      Y    6-31g*
  H48       1.597  1.150  0.320    1.008    Y    Y      Y    6-31g*
  H49       1.597  1.150  0.320    1.008    Y    Y      Y    6-31g*
  H50       1.597  1.150  0.320    1.008    Y    Y      Y    6-31g*
  H51       1.597  1.150  0.320    1.008    Y    Y      Y    6-31g*
  H52       1.597  1.150  0.320    1.008    Y    Y      Y    6-31g*
  H53       1.597  1.150  0.320    1.008    Y    Y      Y    6-31g*
  H54       1.597  1.150  0.320    1.008    Y    Y      Y    6-31g*
  H55       1.597  1.150  0.320    1.008    Y    Y      Y    6-31g*
  H56       1.597  1.150  0.320    1.008    Y    Y      Y    6-31g*
  H57       1.597  1.150  0.320    1.008    Y    Y      Y    6-31g*
  H58       1.597  1.150  0.320    1.008    Y    Y      Y    6-31g*
  H59       1.597  1.150  0.320    1.008    Y    Y      Y    6-31g*
  H60       1.597  1.150  0.320    1.008    Y    Y      Y    6-31g*
  H61       1.597  1.150  0.320    1.008    Y    Y      Y    6-31g*
  H62       1.597  1.150  0.320    1.008    Y    Y      Y    6-31g*
  H63       1.597  1.150  0.320    1.008    Y    Y      Y    6-31g*
  H64       1.597  1.150  0.320    1.008    Y    Y      Y    6-31g*
  H65       1.597  1.150  0.320    1.008    Y    Y      Y    6-31g*
 
  atom      formal  2spin      esp    mulk    frag
  P1           0       0        Y    0.000       0
  Pd2          2       0        Y    0.000       0
  Br3         -1       0        Y    0.000       0
  C73         -1       0        Y    0.000       0
  
  end of program pre
   
 Time(pre)  user:        2.5  user+sys:        2.5  wallclock:        2.7
  
  start of program onee
  
  smallest eigenvalue of S:    4.174E-04
  number of canonical orbitals.....          624
  end of program onee
   
 Time(onee)  user:        3.0  user+sys:        3.0  wallclock:        3.1
  
  start of program hfig
  
  initial wavefunction generated automatically from atomic wavefunctions
  Only one state below 0.010000
  Skip d-d repulsion considerations 
 
  Irreducible     Total no   No of occupied orbitals 
  representation  orbitals   Shell_1  Shell_2    ...
  No Symm          624        148
  ------------------------
  Orbital occupation/shell    1.000
 
  end of program hfig
   
 Time(hfig)  user:        0.6  user+sys:        0.6  wallclock:        0.7
  
  start of program probe
  
  end of program probe
   
 Time(probe)  user:        0.4  user+sys:        0.4  wallclock:        0.4
  
  start of program grid
  
   grid     grid set  grid #  grid sym
  ------    --------  ------  --------
  coarse        0        0        1
  medium        2        1        1
  fine          0        0        1
  ultrafine     4        2        1
  charge       -1        3        1
  gradient      4        2        1
  density       0        0        1
  DFT-fine    -11        4        1
  DFT-med.    -10        5        1
  DFT-grad    -12        6        1
  DFT-der2     -8        7        1
  DFT-cphf     -9        8        1
  LMP2-enrg     4        2        1
  LMP2-grad     2        1        1
  DFT-cphf2   -15        9        1
  PBF-dens      0        0        1
  plotting      0        0        1
  Rel-grad    -17        0        1
  
  number of gridpoints: 
     atom        P1      Pd2      Br3      C73      C74      C75      C76
  grid # 1      617      359      493       81       94       96      100
  grid # 2      436      329      481      337      323      325      401
  grid # 3       10      266      294       52       42       31       26
  grid # 4     8714     8714     8714     8714     8714     8714     8714
  grid # 5     1192     1192     1192     1192     1192     1192     1192
  grid # 6     9132     9132     9132     5922     5922     5922     5922
  grid # 7    23034    32968    11582    13950    13950    13950    13950
  grid # 8      722     1150      694      748      748      748      748
  grid # 9      366     2198      358      394      394      394      394
   
  number of gridpoints: 
     atom       C77      C78      F79      H80      H81      H82      H83
  grid # 1       97       95      585      115      104      117      115
  grid # 2      326      323      567      459      419      461      465
  grid # 3       40       50      369      357       75      301      420
  grid # 4     8714     8714     8714     8714     8714     8714     8714
  grid # 5     1192     1192     1192     1192     1192     1192     1192
  grid # 6     5922     5922     5922     5922     5922     5922     5922
  grid # 7    13950    13950    23190    15206    15206    15206    15206
  grid # 8      748      748      770      786      786      786      786
  grid # 9      394      394      420      420      420      420      420
   
  number of gridpoints: 
     atom        C3       C4       C5       C6       C7       C8       C9
  grid # 1       82       80       95       92       92       92       92
  grid # 2      331      331      392      278      280      279      277
  grid # 3        6        6       16        6        6        6        6
  grid # 4     8714     8714     8714     8714     8714     8714     8714
  grid # 5     1192     1192     1192     1192     1192     1192     1192
  grid # 6     5922     5922     5922     5922     5922     5922     5922
  grid # 7    13950    13950    13950    13950    13950    13950    13950
  grid # 8      748      748      748      748      748      748      748
  grid # 9      394      394      394      394      394      394      394
   
  number of gridpoints: 
     atom       C10      C11      C12      C13      C14      C15      C16
  grid # 1       91       90       92       92       92       92       93
  grid # 2      281      282      282      282      282      283      322
  grid # 3        6        6        6        6        6        6       10
  grid # 4     8714     8714     8714     8714     8714     8714     8714
  grid # 5     1192     1192     1192     1192     1192     1192     1192
  grid # 6     5922     5922     5922     5922     5922     5922     5922
  grid # 7    13950    13950    13950    13950    13950    13950    13950
  grid # 8      748      748      748      748      748      748      748
  grid # 9      394      394      394      394      394      394      394
   
  number of gridpoints: 
     atom       C17      C18      C19      C20      C21      C22      C23
  grid # 1       95       97       95      100      100       92       96
  grid # 2      325      324      328      360      364      347      320
  grid # 3       28       44       29       16       10       19       32
  grid # 4     8714     8714     8714     8714     8714     8714     8714
  grid # 5     1192     1192     1192     1192     1192     1192     1192
  grid # 6     5922     5922     5922     5922     5922     5922     5922
  grid # 7    13950    13950    13950    13950    13950    13950    13950
  grid # 8      748      748      748      748      748      748      748
  grid # 9      394      394      394      394      394      394      394
   
  number of gridpoints: 
     atom       C24      C25      C26      O27      C28      O29      C30
  grid # 1       95       96       92      118       76      119       76
  grid # 2      318      324      349      457      225      459      228
  grid # 3       30       33       23       63        6       78        6
  grid # 4     8714     8714     8714     8714     8714     8714     8714
  grid # 5     1192     1192     1192     1192     1192     1192     1192
  grid # 6     5922     5922     5922     5922     5922     5922     5922
  grid # 7    13950    13950    13950    23382    13950    23382    13950
  grid # 8      748      748      748      774      748      774      748
  grid # 9      394      394      394      416      394      416      394
   
  number of gridpoints: 
     atom       H31      H32      H33      H34      H35      H36      H37
  grid # 1       99      107      107      108      112      110      112
  grid # 2      428      434      439      445      455      454      459
  grid # 3       41      151      162      183      326      269      331
  grid # 4     8714     8714     8714     8714     8714     8714     8714
  grid # 5     1192     1192     1192     1192     1192     1192     1192
  grid # 6     5922     5922     5922     5922     5922     5922     5922
  grid # 7    15206    15206    15206    15206    15206    15206    15206
  grid # 8      786      786      786      786      786      786      786
  grid # 9      420      420      420      420      420      420      420
   
  number of gridpoints: 
     atom       H38      H39      H40      H41      H42      H43      H44
  grid # 1      110      112      101      104      101      103      105
  grid # 2      445      456      434      433      421      427      438
  grid # 3      209      328      101      119       65      121      126
  grid # 4     8714     8714     8714     8714     8714     8714     8714
  grid # 5     1192     1192     1192     1192     1192     1192     1192
  grid # 6     5922     5922     5922     5922     5922     5922     5922
  grid # 7    15206    15206    15206    15206    15206    15206    15206
  grid # 8      786      786      786      786      786      786      786
  grid # 9      420      420      420      420      420      420      420
   
  number of gridpoints: 
     atom       H45      H46      H47      H48      H49      H50      H51
  grid # 1      112      110      112      110      112      110      110
  grid # 2      457      452      458      456      458      451      443
  grid # 3      325      250      332      268      326      259      186
  grid # 4     8714     8714     8714     8714     8714     8714     8714
  grid # 5     1192     1192     1192     1192     1192     1192     1192
  grid # 6     5922     5922     5922     5922     5922     5922     5922
  grid # 7    15206    15206    15206    15206    15206    15206    15206
  grid # 8      786      786      786      786      786      786      786
  grid # 9      420      420      420      420      420      420      420
   
  number of gridpoints: 
     atom       H52      H53      H54      H55      H56      H57      H58
  grid # 1      107      106      118      118      116      109      111
  grid # 2      435      428      467      469      457      440      456
  grid # 3      157      107      409      428      341      203      315
  grid # 4     8714     8714     8714     8714     8714     8714     8714
  grid # 5     1192     1192     1192     1192     1192     1192     1192
  grid # 6     5922     5922     5922     5922     5922     5922     5922
  grid # 7    15206    15206    15206    15206    15206    15206    15206
  grid # 8      786      786      786      786      786      786      786
  grid # 9      420      420      420      420      420      420      420
   
  number of gridpoints: 
     atom       H59      H60      H61      H62      H63      H64      H65
  grid # 1      110      107      108      111      111      111      110
  grid # 2      442      451      441      448      447      463      448
  grid # 3      232      279      165      324      251      391      319
  grid # 4     8714     8714     8714     8714     8714     8714     8714
  grid # 5     1192     1192     1192     1192     1192     1192     1192
  grid # 6     5922     5922     5922     5922     5922     5922     5922
  grid # 7    15206    15206    15206    15206    15206    15206    15206
  grid # 8      786      786      786      786      786      786      786
  grid # 9      420      420      420      420      420      420      420
   
  number of gridpoints: 
     atom     total
  grid # 1     9502
  grid # 2    30197
  grid # 3    11247
  grid # 4   670978
  grid # 5    91784
  grid # 6   465624
  grid # 7  1176972
  grid # 8    59474
  grid # 9    33162
   
  end of program grid
   
 Time(grid)  user:      199.5  user+sys:      199.5  wallclock:      200.2
  
  start of program rwr
  
  end of program rwr
   
 Time(rwr)  user:        8.9  user+sys:        8.9  wallclock:       10.1
  
  start of program scf
  
 number of electrons..........        296
 number of alpha electrons....        148
 number of beta electrons.....        148
 number of orbitals, total....        624
 number of doubly-occ'd orbs..        148
 number of open shell orbs....          0
 number of occupied orbitals..        148
 number of virtual orbitals...        476
 number of hamiltonians.......          1
 number of shells.............          1
 SCF type: DFT=Becke_3_Parameter/HF+Slater+Becke88+PW91+PW-GGAIIC (B3PW91-D3)
 Energy computed with NOPS off.
 Convergence Criterion:
    Energy (econv):       1.00E-05
    RMS density (dconv):  5.00E-06
  
       i  u  d  i  g                   
       t  p  i  c  r                                 RMS    maximum
       e  d  i  u  i                       energy  density   DIIS  
       r  t  s  t  d       total energy    change  change    error 
  
etot    1  N  N  5  M   -1969.16605892887           2.1E-03  2.3E-01
etot    2  Y  Y  6  M   -1972.49767365703  3.3E+00  2.9E-03  1.3E-01
etot    3  Y  Y  6  M   -1973.50832788615  1.0E+00  1.3E-03  6.5E-02
etot    4  N  Y  2  U   -1973.76388230117  2.6E-01  7.5E-04  3.4E-02
etot    5  Y  Y  6  M   -1973.90134872032  1.4E-01  4.9E-04  1.4E-02
etot    6  N  Y  2  U   -1973.91655034809  1.5E-02  5.4E-04  7.3E-03
etot    7  Y  Y  6  M   -1973.91708853635  5.4E-04  8.8E-05  3.6E-03
etot    8  Y  Y  6  M   -1973.91980773681  2.7E-03  4.1E-05  1.2E-03
etot    9  N  Y  2  U   -1973.92069354724  8.9E-04  9.4E-06  1.5E-04
etot   10  N  Y  2  U   -1973.92069896260  5.4E-06  3.9E-06  7.7E-05
etot   11  N  N  2  U   -1973.92070068888  1.7E-06  0.0E+00  0.0E+00
 
  Computing the dispersion energy correction and its gradients...
  
  
 Energy components, in hartrees:
   (A)  Nuclear repulsion............    5040.55448636508
   (E)  Total one-electron terms.....  -12787.94685216640
   (F)    Electron-nuclear...........  -14660.95971013517
   (H)    Kinetic....................    1873.01285796877
   (I)  Total two-electron terms.....    5773.47166511244
   (J)    Coulomb....................    6027.39816375286
   (K)    Exchange+Correlation.......    -253.92649864042
   (L)  Electronic energy............   -7014.47518705396  (E+I)
   (N0) D3 correction................      -0.13483590895
   (N)  Total energy.................   -1974.05553659782  (A+L+N0)
   (O)  Gas phase energy.............   -1974.05553659782
  
 SCFE: SCF energy: DFT(b3pw91-d3)     -1974.05553659782 hartrees   iterations:  11
  
 
 HOMO energy:    -0.21567
 LUMO energy:    -0.10375
 
  Orbital energies (hartrees): 
   -77.06907   -24.67769   -19.17125   -19.17019   -10.24497   -10.24348
   -10.24321   -10.22609   -10.21829   -10.20000   -10.19654   -10.19258
   -10.18749   -10.18690   -10.18630   -10.18404   -10.18355   -10.18112
   -10.18012   -10.17528   -10.17480   -10.17374   -10.17235   -10.17233
   -10.17226   -10.17103   -10.16962   -10.16925   -10.16913   -10.16770
   -10.16614   -10.16454   -10.16437   -10.16097   -10.16083   -10.15848
    -6.57013    -4.72828    -4.72762    -4.72455    -3.33850    -2.07833
    -2.06144    -2.04035    -1.20889    -1.07140    -1.06679    -0.87167
    -0.85361    -0.85142    -0.83885    -0.82859    -0.78966    -0.77066
    -0.75835    -0.74880    -0.74813    -0.74334    -0.73976    -0.73709
    -0.73624    -0.73278    -0.70898    -0.69069    -0.68658    -0.65456
    -0.63211    -0.61504    -0.61285    -0.61077    -0.60444    -0.60158
    -0.59333    -0.58916    -0.58876    -0.56311    -0.55861    -0.54738
    -0.53886    -0.53226    -0.51098    -0.50476    -0.49026    -0.48257
    -0.47819    -0.47621    -0.47402    -0.47138    -0.46704    -0.46268
    -0.45714    -0.44941    -0.44897    -0.44802    -0.44647    -0.44115
    -0.43532    -0.43490    -0.43304    -0.43138    -0.42468    -0.42138
    -0.42051    -0.40960    -0.40602    -0.39658    -0.39157    -0.38740
    -0.38325    -0.38241    -0.37835    -0.37446    -0.37249    -0.36936
    -0.36556    -0.35942    -0.35849    -0.35453    -0.34875    -0.34777
    -0.34605    -0.34345    -0.34112    -0.33756    -0.33642    -0.33511
    -0.32531    -0.32403    -0.31739    -0.31554    -0.31031    -0.30414
    -0.30127    -0.29889    -0.29352    -0.28512    -0.28130    -0.26913
    -0.26090    -0.25462    -0.25302    -0.25031    -0.23853    -0.23043
    -0.22692    -0.22153    -0.21831    -0.21567    -0.10375    -0.03100
    -0.02027    -0.00806    -0.00182     0.00780     0.01635     0.02290
     0.03327     0.05351
 
  end of program scf
   
 Time(scf)  user:      264.7  user+sys:      264.7  wallclock:      270.5
  
  start of program der1a
  
  end of program der1a
   
 Time(der1a)  user:       10.4  user+sys:       10.4  wallclock:       10.7
  
  start of program rwr
  
  end of program rwr
   
 Time(rwr)  user:       10.4  user+sys:       10.4  wallclock:       13.3
  
  start of program der1b
  
   
  forces (hartrees/bohr) : total     
   
 atom  label           x              y              z
 ---- --------   -------------  -------------  -------------
    1 P1          2.491811E-03   2.401328E-03  -1.995063E-02
    2 Pd2        -1.087301E-02   4.539960E-03   9.216386E-03
    3 Br3        -6.526300E-04   1.799891E-03   1.261726E-03
    4 C73        -1.929003E-03  -2.143499E-04   4.491890E-03
    5 C74        -6.594135E-04  -1.699179E-03  -4.167818E-03
    6 C75         5.583319E-03  -6.953041E-04  -2.081612E-04
    7 C76         2.582924E-04   2.351356E-03   2.856606E-03
    8 C77         2.852917E-03  -4.120182E-03  -4.008885E-03
    9 C78        -1.598348E-03   9.045240E-04  -1.787506E-03
   10 F79         2.462780E-03   6.725735E-05  -4.456272E-03
   11 H80         4.769963E-05  -2.245436E-04  -5.129583E-04
   12 H81         1.412676E-03  -1.093590E-02   4.324829E-03
   13 H82         1.500510E-03  -4.536824E-04   5.265821E-04
   14 H83         7.271042E-05   8.121718E-04  -9.112036E-04
   15 C3          1.738531E-03   3.544411E-04   2.723825E-03
   16 C4          3.400822E-03  -1.784763E-04  -3.833633E-03
   17 C5         -1.540761E-03   2.028002E-03  -1.583283E-03
   18 C6         -6.325476E-04   3.319869E-04  -8.656649E-04
   19 C7          5.729681E-04   9.236314E-04   7.456245E-04
   20 C8         -3.759770E-04  -1.031070E-03  -1.288422E-03
   21 C9          5.997123E-04   3.313238E-04   7.431332E-04
   22 C10        -1.210060E-03  -6.010979E-04  -1.019482E-04
   23 C11         1.855770E-03   1.658608E-03  -2.365624E-03
   24 C12         6.554986E-05  -1.242548E-03   2.360605E-04
   25 C13        -4.002758E-05   1.599251E-04   2.847063E-04
   26 C14        -1.331764E-03  -9.678330E-04  -3.730535E-05
   27 C15         3.644307E-03   2.194975E-03  -2.528715E-04
   28 C16        -9.074167E-04   3.328121E-03   8.110430E-04
   29 C17         1.140055E-03  -4.282973E-04   4.090227E-03
   30 C18         2.379584E-03  -3.671976E-03   3.024012E-03
   31 C19         1.471569E-03  -2.329371E-03   6.698783E-04
   32 C20        -1.201660E-03  -1.350708E-03  -7.486395E-03
   33 C21         7.300121E-04  -1.743208E-03   3.418488E-03
   34 C22        -5.784573E-04   1.091995E-03   1.552615E-04
   35 C23        -1.457624E-03   2.596942E-03  -6.136248E-03
   36 C24         4.179067E-04   6.180814E-03  -8.780944E-03
   37 C25        -2.326010E-03  -3.748791E-03   1.188622E-03
   38 C26         4.209170E-03  -7.986336E-04  -6.875029E-03
   39 O27        -5.315810E-03   1.569444E-04   1.498311E-02
   40 C28        -5.742222E-04  -7.421006E-04  -1.999427E-03
   41 O29         5.716388E-03  -1.848747E-03   1.005580E-02
   42 C30         2.939588E-04   1.747047E-03  -4.287005E-03
   43 H31        -2.260420E-03  -2.508904E-03  -3.394028E-03
   44 H32         2.591395E-03   3.817660E-03   4.630121E-03
   45 H33         3.003684E-03  -4.958763E-03   1.436926E-03
   46 H34        -2.562231E-03  -4.350216E-03  -2.768866E-03
   47 H35        -1.003981E-03  -1.790645E-03   6.566809E-03
   48 H36         1.859773E-03   4.468301E-03   3.986820E-03
   49 H37        -6.572686E-03  -6.618064E-04   1.910684E-03
   50 H38        -2.295149E-03  -3.575196E-03  -3.573447E-03
   51 H39        -3.481413E-03   5.545491E-03  -9.314526E-04
   52 H40         5.821558E-04   2.820752E-05  -5.888817E-03
   53 H41         2.315028E-03   4.865312E-03   3.271449E-03
   54 H42        -4.104166E-03   4.096771E-04   6.514019E-03
   55 H43        -6.142579E-03   7.363716E-04  -8.083836E-04
   56 H44         1.382380E-03  -2.294739E-03  -2.877212E-03
   57 H45        -1.068275E-03   4.930836E-03  -3.848690E-03
   58 H46        -2.967667E-03   2.308694E-03   6.174976E-03
   59 H47         2.307706E-03   6.016027E-03   3.360739E-03
   60 H48         2.592853E-03  -5.804393E-04  -4.507165E-03
   61 H49         6.479685E-03  -4.344835E-04   1.290967E-03
   62 H50        -2.387741E-03   1.977871E-03   6.778107E-03
   63 H51        -3.400912E-04  -1.314607E-03  -3.298878E-03
   64 H52         1.247262E-03  -4.835908E-03   4.549396E-03
   65 H53        -1.189048E-03   5.576855E-03   2.616528E-03
   66 H54         1.474516E-03   1.219615E-03   6.622451E-03
   67 H55         3.008823E-03  -4.916006E-03   3.822997E-03
   68 H56         1.161169E-03  -5.484758E-03  -2.759131E-03
   69 H57         4.818687E-03   5.254848E-04  -3.980257E-03
   70 H58        -1.039116E-03   6.428694E-04  -5.956263E-03
   71 H59        -6.446815E-03  -5.545745E-04  -1.550306E-03
   72 H60        -3.873165E-03   2.489344E-04   5.721834E-03
   73 H61        -1.032731E-03   3.751303E-03  -4.050927E-03
   74 H62        -9.152972E-04  -7.019555E-03  -2.265010E-03
   75 H63        -1.744001E-03   4.699132E-03  -1.012167E-03
   76 H64         5.038570E-03   2.021011E-03   3.503078E-03
   77 H65         1.969525E-03  -7.156968E-03  -3.143507E-03
 -------------   -------------  -------------  -------------
     total        2.120921E-03  -1.712672E-03   5.396300E-05
   
  end of program der1b
   
 Time(der1b)  user:      100.6  user+sys:      100.6  wallclock:      103.6
  
  start of program geopt
  
 ----------------------------------------------------------------------------
  Geometry optimization step   1
  Total energy:     -1974.05553659782 hartrees
 ----------------------------------------------------------------------------
  
  
  Level shifts adjusted to satisfy step-size constraints
   Step size:    0.3005481
   Cos(theta):   0.5078936
   Final level shift:  -1.1325807E-01
  
  gradient maximum:        1.0408E-01 .  (  2.2500E-03 )
  gradient rms:            1.4346E-02 .  (  1.5000E-03 )
  displacement maximum:    7.6134E-02 .  (  9.0000E-03 )
  displacement rms:        1.3529E-02 .  (  6.0000E-03 )
  
  predicted energy change:  -1.9189E-02
  step size:     0.21940
  trust radius:  0.30000
  
  molecular structure not yet converged...
  
  center of mass moved by:
     x:     5.7610E-04     y:     5.7351E-03     z:    -2.3457E-02
  
  new geometry: 
                                   angstroms
  atom               x                 y                 z
  P1           -0.0049543828      0.0344590771      0.0046732431 
  Pd2          -0.0021737531      0.0027763673      2.4014390648 
  Br3           2.4281131222      0.1687168735      2.9469755546 
  C73          -1.2273198902     -0.4417620173      6.9533460517 
  C74          -0.9664640900      0.8281798497      6.4550638755 
  C75          -0.4859654372      0.9479190006      5.1507433792 
  C76          -0.3002417940     -0.1840692838      4.3572803068 
  C77          -0.5323238416     -1.4530472660      4.8985851134 
  C78          -1.0121219377     -1.5895763064      6.2018533781 
  F79          -1.6922835487     -0.5664619858      8.2148318748 
  H80          -1.1309345819      1.6977580521      7.0856235280 
  H81          -0.2578498914      1.9341872612      4.7550045075 
  H82          -0.3447781979     -2.3468811350      4.3066226109 
  H83          -1.2132310562     -2.5638039193      6.6385765316 
  C3            1.7491678836      0.0772425502     -0.7137988504 
  C4           -0.8055080425     -1.5310285323     -0.7088564222 
  C5           -0.8299665905      1.4051839241     -0.9336417724 
  C6            1.9085769221      0.4934033502     -2.1829303516 
  C7            3.3973210180      0.6395954859     -2.5429835231 
  C8            4.1893787095     -0.6390433310     -2.2455222021 
  C9            3.9965620080     -1.0766764439     -0.7891315410 
  C10           2.5094441128     -1.2340288292     -0.4410759495 
  C11          -0.5071452560     -2.7259744911      0.2250532559 
  C12          -1.0307855916     -4.0394925645     -0.3737679574 
  C13          -2.5367070900     -3.9638810343     -0.6584109799 
  C14          -2.8668991200     -2.7481153153     -1.5340947620 
  C15          -2.3309317303     -1.4450505305     -0.9224669877 
  C16          -1.1442099715      1.1845210376     -2.2889095296 
  C17          -1.7388503840      2.1617604499     -3.0803652296 
  C18          -2.0293047454      3.4073222545     -2.5255782893 
  C19          -1.7087829690      3.6462647434     -1.1946271674 
  C20          -1.1135375830      2.6673109763     -0.3810815551 
  C21          -0.8028006572      3.0859083075      1.0127202417 
  C22          -1.8521135773      3.3316986453      1.9188884403 
  C23          -1.5884766606      3.7973937348      3.2094169635 
  C24          -0.2670793470      4.0251567768      3.5859451998 
  C25           0.7941285210      3.8139415084      2.7098587437 
  C26           0.5188897372      3.3361930396      1.4217472548 
  O27           1.4683622514      3.0901112258      0.4720803472 
  C28           2.8299873164      3.2032857935      0.8683969250 
  O29          -3.1059495509      3.0967667652      1.4350326731 
  C30          -4.1613577599      2.9982278785      2.3831952980 
  H31           2.2054407849      0.8553510442     -0.0790061927 
  H32           1.4512465613     -0.2663499967     -2.8430905229 
  H33           1.3932550532      1.4432597667     -2.3771550053 
  H34           3.8216218213      1.4734833582     -1.9558479139 
  H35           3.4961103497      0.9200213031     -3.6046921618 
  H36           3.8393357990     -1.4443832907     -2.9167995395 
  H37           5.2586303822     -0.4879058530     -2.4674230294 
  H38           4.4379238683     -0.3264694437     -0.1109043069 
  H39           4.5251089444     -2.0245811492     -0.5981521096 
  H40           2.4086348168     -1.5137694668      0.6163548651 
  H41           2.0826399036     -2.0447547086     -1.0577560352 
  H42          -0.3105492720     -1.7100678902     -1.6826460376 
  H43           0.5651063736     -2.8070070921      0.4444184379 
  H44          -1.0054745160     -2.5371422546      1.1912576244 
  H45          -0.8116817860     -4.8719726101      0.3142013112 
  H46          -0.4880685105     -4.2533753463     -1.3126723859 
  H47          -2.8873965505     -4.8926602782     -1.1375522093 
  H48          -3.0788536075     -3.8735180302      0.2988130081 
  H49          -3.9558758858     -2.6668526048     -1.6850516292 
  H50          -2.4209155519     -2.8875992108     -2.5361687420 
  H51          -2.8078682874     -1.2740285722      0.0568750398 
  H52          -2.6065142246     -0.5918422071     -1.5547586013 
  H53          -0.8984413136      0.2264018551     -2.7459249137 
  H54          -1.9680909851      1.9481495633     -4.1257292995 
  H55          -2.4983540735      4.1886198412     -3.1256039547 
  H56          -1.9203001129      4.6191991707     -0.7494775325 
  H57          -2.3921985530      3.9396498269      3.9276774683 
  H58          -0.0532716327      4.3679173759      4.5992717603 
  H59           1.8149924243      3.9673902425      3.0479772558 
  H60           3.4145386999      2.9427125843     -0.0216011650 
  H61           3.0588005491      2.4990371875      1.6830965344 
  H62           3.0755186121      4.2348553817      1.1724941662 
  H63          -3.9331391436      2.2375250919      3.1455274611 
  H64          -5.0415387662      2.6844777580      1.8096492424 
  H65          -4.3726802828      3.9685624255      2.8638669491 
   
 
  bond lengths (angstroms):
 
 P1      -Pd2     :   2.396977      P1      -C3      :   1.896043
 P1      -C4      :   1.897567      P1      -C5      :   1.854715
 Pd2     -Br3     :   2.496285      Pd2     -C76     :   1.987227
 C73     -C74     :   1.388914      C73     -C78     :   1.388715
 C73     -F79     :   1.350218      C74     -C75     :   1.395159
 C74     -H80     :   1.086656      C75     -C76     :   1.394803
 C75     -H81     :   1.086909      C76     -C77     :   1.398992
 C77     -C78     :   1.395476      C77     -H82     :   1.088362
 C78     -H83     :   1.086412      C3      -C6      :   1.535236
 C3      -C10     :   1.540075      C3      -H31     :   1.102996
 C4      -C11     :   1.545673      C4      -C15     :   1.542705
 C4      -H42     :   1.106935      C5      -C16     :   1.408613
 C5      -C20     :   1.406663      C6      -C7      :   1.538626
 C6      -H32     :   1.105526      C6      -H33     :   1.097956
 C7      -C8      :   1.533217      C7      -H34     :   1.104594
 C7      -H35     :   1.102553      C8      -C9      :   1.532898
 C8      -H36     :   1.105313      C8      -H37     :   1.102443
 C9      -C10     :   1.535390      C9      -H38     :   1.103451
 C9      -H39     :   1.101979      C10     -H40     :   1.098443
 C10     -H41     :   1.104415      C11     -C12     :   1.535616
 C11     -H43     :   1.097457      C11     -H44     :   1.103422
 C12     -C13     :   1.534450      C12     -H45     :   1.101967
 C12     -H46     :   1.105364      C13     -C14     :   1.534254
 C13     -H47     :   1.102357      C13     -H48     :   1.103796
 C14     -C15     :   1.536010      C14     -H49     :   1.102389
 C14     -H50     :   1.105671      C15     -H51     :   1.102646
 C15     -H52     :   1.097134      C16     -C17     :   1.391041
 C16     -H53     :   1.089614      C17     -C18     :   1.394122
 C17     -H54     :   1.091314      C18     -C19     :   1.389697
 C18     -H55     :   1.091084      C19     -C20     :   1.405178
 C19     -H56     :   1.090642      C20     -C21     :   1.488108
 C21     -C22     :   1.408052      C21     -C26     :   1.405991
 C22     -C23     :   1.397083      C22     -O29     :   1.364336
 C23     -C24     :   1.392746      C23     -H57     :   1.087246
 C24     -C25     :   1.392229      C24     -H58     :   1.090885
 C25     -C26     :   1.401154      C25     -H59     :   1.086294
 C26     -O27     :   1.365255      O27     -C28     :   1.422638
 C28     -H60     :   1.096219      C28     -H61     :   1.100935
 C28     -H62     :   1.103130      O29     -C30     :   1.422185
 C30     -H63     :   1.100865      C30     -H64     :   1.096409
 C30     -H65     :   1.103291
 
  bond angles:
 
 C3      -P1      -Pd2     : 112.217536  C4      -P1      -Pd2     : 111.442975
 C4      -P1      -C3      : 105.452184  C5      -P1      -Pd2     : 121.074224
 C5      -P1      -C3      : 101.720787  C5      -P1      -C4      : 103.404122
 Br3     -Pd2     -P1      : 102.636847  C76     -Pd2     -P1      : 170.126398
 C76     -Pd2     -Br3     :  86.398812  C78     -C73     -C74     : 122.173723
 F79     -C73     -C74     : 118.966637  F79     -C73     -C78     : 118.855931
 C75     -C74     -C73     : 118.591046  H80     -C74     -C73     : 119.675168
 H80     -C74     -C75     : 121.731607  C76     -C75     -C74     : 120.533210
 H81     -C75     -C74     : 119.376703  H81     -C75     -C76     : 120.090016
 C75     -C76     -Pd2     : 120.235252  C77     -C76     -Pd2     : 119.405134
 C77     -C76     -C75     : 119.600754  C78     -C77     -C76     : 120.473549
 H82     -C77     -C76     : 120.391515  H82     -C77     -C78     : 119.134437
 C77     -C78     -C73     : 118.541831  H83     -C78     -C73     : 119.667349
 H83     -C78     -C77     : 121.789843  C6      -C3      -P1      : 117.696932
 C10     -C3      -P1      : 111.740022  C10     -C3      -C6      : 110.426236
 H31     -C3      -P1      : 100.401206  H31     -C3      -C6      : 108.454734
 H31     -C3      -C10     : 107.128600  C11     -C4      -P1      : 109.218073
 C15     -C4      -P1      : 115.039662  C15     -C4      -C11     : 108.518837
 H42     -C4      -P1      : 105.997126  H42     -C4      -C11     : 108.673704
 H42     -C4      -C15     : 109.228649  C16     -C5      -P1      : 118.047810
 C20     -C5      -P1      : 123.645561  C20     -C5      -C16     : 118.263294
 C7      -C6      -C3      : 110.496910  H32     -C6      -C3      : 110.010372
 H32     -C6      -C7      : 109.015556  H33     -C6      -C3      : 110.796795
 H33     -C6      -C7      : 109.301344  H33     -C6      -H32     : 107.142142
 C8      -C7      -C6      : 112.037397  H34     -C7      -C6      : 108.603327
 H34     -C7      -C8      : 109.148334  H35     -C7      -C6      : 109.645683
 H35     -C7      -C8      : 110.649316  H35     -C7      -H34     : 106.584022
 C9      -C8      -C7      : 110.942899  H36     -C8      -C7      : 109.038279
 H36     -C8      -C9      : 109.217747  H37     -C8      -C7      : 110.344515
 H37     -C8      -C9      : 110.632524  H37     -C8      -H36     : 106.547018
 C10     -C9      -C8      : 111.497727  H38     -C9      -C8      : 109.849661
 H38     -C9      -C10     : 108.527003  H39     -C9      -C8      : 110.481341
 H39     -C9      -C10     : 109.701106  H39     -C9      -H38     : 106.645516
 C9      -C10     -C3      : 110.532605  H40     -C10     -C3      : 109.998861
 H40     -C10     -C9      : 109.463956  H41     -C10     -C3      : 109.594504
 H41     -C10     -C9      : 108.841782  H41     -C10     -H40     : 108.367757
 C12     -C11     -C4      : 111.090419  H43     -C11     -C4      : 111.497012
 H43     -C11     -C12     : 110.362222  H44     -C11     -C4      : 108.034720
 H44     -C11     -C12     : 109.502143  H44     -C11     -H43     : 106.192010
 C13     -C12     -C11     : 111.398057  H45     -C12     -C11     : 109.568553
 H45     -C12     -C13     : 110.375368  H46     -C12     -C11     : 109.227286
 H46     -C12     -C13     : 109.501083  H46     -C12     -H45     : 106.648264
 C14     -C13     -C12     : 110.863032  H47     -C13     -C12     : 110.568315
 H47     -C13     -C14     : 110.554364  H48     -C13     -C12     : 108.977603
 H48     -C13     -C14     : 108.928521  H48     -C13     -H47     : 106.837406
 C15     -C14     -C13     : 111.707866  H49     -C14     -C13     : 110.436247
 H49     -C14     -C15     : 109.674766  H50     -C14     -C13     : 109.299346
 H50     -C14     -C15     : 109.096380  H50     -C14     -H49     : 106.477936
 C14     -C15     -C4      : 110.663682  H51     -C15     -C4      : 108.261600
 H51     -C15     -C14     : 109.530960  H52     -C15     -C4      : 111.808795
 H52     -C15     -C14     : 110.035461  H52     -C15     -H51     : 106.415523
 C17     -C16     -C5      : 122.190217  H53     -C16     -C5      : 119.404610
 H53     -C16     -C17     : 118.393379  C18     -C17     -C16     : 119.360604
 H54     -C17     -C16     : 119.821233  H54     -C17     -C18     : 120.817580
 C19     -C18     -C17     : 119.123189  H55     -C18     -C17     : 120.696342
 H55     -C18     -C19     : 120.180019  C20     -C19     -C18     : 122.168082
 H56     -C19     -C18     : 119.970369  H56     -C19     -C20     : 117.861483
 C19     -C20     -C5      : 118.885571  C21     -C20     -C5      : 125.325390
 C21     -C20     -C19     : 115.769758  C22     -C21     -C20     : 119.753361
 C26     -C21     -C20     : 121.255040  C26     -C21     -C22     : 118.832036
 C23     -C22     -C21     : 120.799611  O29     -C22     -C21     : 115.250154
 O29     -C22     -C23     : 123.946398  C24     -C23     -C22     : 118.899867
 H57     -C23     -C22     : 120.954427  H57     -C23     -C24     : 120.090104
 C25     -C24     -C23     : 121.887679  H58     -C24     -C23     : 119.239836
 H58     -C24     -C25     : 118.868677  C26     -C25     -C24     : 118.717900
 H59     -C25     -C24     : 119.935817  H59     -C25     -C26     : 121.259663
 C25     -C26     -C21     : 120.850692  O27     -C26     -C21     : 114.790963
 O27     -C26     -C25     : 124.355251  C28     -O27     -C26     : 117.226604
 H60     -C28     -O27     : 105.384298  H61     -C28     -O27     : 110.743432
 H61     -C28     -H60     : 109.749990  H62     -C28     -O27     : 111.359485
 H62     -C28     -H60     : 109.111244  H62     -C28     -H61     : 110.360790
 C30     -O29     -C22     : 117.225241  H63     -C30     -O29     : 110.836915
 H64     -C30     -O29     : 105.475147  H64     -C30     -H63     : 109.325428
 H65     -C30     -O29     : 111.818230  H65     -C30     -H63     : 110.227255
 H65     -C30     -H64     : 109.015107
 
  torsional angles:
 
 P1      -Pd2     -C76     -C75     :-114.674371
 P1      -Pd2     -C76     -C77     :  55.309087
 P1      -C3      -C6      -C7      : 173.023429
 P1      -C3      -C6      -H32     : -66.556741
 P1      -C3      -C6      -H33     :  51.728139
 P1      -C3      -C10     -C9      :-169.166611
 P1      -C3      -C10     -H40     : -48.171738
 P1      -C3      -C10     -H41     :  70.873874
 P1      -C4      -C11     -C12     :-175.042564
 P1      -C4      -C11     -H43     : -51.489005
 P1      -C4      -C11     -H44     :  64.833608
 P1      -C4      -C15     -C14     : 178.570303
 P1      -C4      -C15     -H51     : -61.383372
 P1      -C4      -C15     -H52     :  55.525275
 P1      -C5      -C16     -C17     :-178.696906
 P1      -C5      -C16     -H53     :   0.033216
 P1      -C5      -C20     -C19     : 178.244230
 P1      -C5      -C20     -C21     :  -0.086896
 Pd2     -P1      -C3      -C6      :-163.169578
 Pd2     -P1      -C3      -C10     :  67.508821
 Pd2     -P1      -C3      -H31     : -45.792137
 Pd2     -P1      -C4      -C11     : -33.260565
 Pd2     -P1      -C4      -C15     :  89.022160
 Pd2     -P1      -C4      -H42     :-150.175759
 Pd2     -P1      -C5      -C16     :-161.665479
 Pd2     -P1      -C5      -C20     :  20.774359
 Pd2     -C76     -C75     -C74     : 166.641592
 Pd2     -C76     -C75     -H81     : -13.261127
 Pd2     -C76     -C77     -C78     :-166.784883
 Pd2     -C76     -C77     -H82     :  12.955937
 Br3     -Pd2     -P1      -C3      :   2.989500
 Br3     -Pd2     -P1      -C4      : 120.999630
 Br3     -Pd2     -P1      -C5      :-117.165512
 Br3     -Pd2     -C76     -C75     :  88.869779
 Br3     -Pd2     -C76     -C77     :-101.146762
 C73     -C74     -C75     -C76     :   1.365615
 C73     -C74     -C75     -H81     :-178.730976
 C73     -C78     -C77     -C76     :  -1.247130
 C73     -C78     -C77     -H82     : 179.008819
 C74     -C73     -C78     -C77     :  -0.750067
 C74     -C73     -C78     -H83     : 178.896699
 C74     -C75     -C76     -C77     :  -3.322296
 C75     -C74     -C73     -C78     :   0.694503
 C75     -C74     -C73     -F79     : 179.985588
 C75     -C76     -C77     -C78     :   3.262854
 C75     -C76     -C77     -H82     :-176.996327
 C76     -Pd2     -P1      -C3      :-152.895853
 C76     -Pd2     -P1      -C4      : -34.885723
 C76     -Pd2     -P1      -C5      :  86.949135
 C76     -C75     -C74     -H80     :-179.173295
 C76     -C77     -C78     -H83     : 179.113969
 C77     -C76     -C75     -H81     : 176.774984
 C77     -C78     -C73     -F79     : 179.958092
 C78     -C73     -C74     -H80     :-178.777953
 F79     -C73     -C74     -H80     :   0.513132
 F79     -C73     -C78     -H83     :  -0.395142
 H80     -C74     -C75     -H81     :   0.730113
 H82     -C77     -C78     -H83     :  -0.630082
 C3      -P1      -C4      -C11     :  88.748140
 C3      -P1      -C4      -C15     :-148.969135
 C3      -P1      -C4      -H42     : -28.167054
 C3      -P1      -C5      -C16     :  73.171619
 C3      -P1      -C5      -C20     :-104.388543
 C3      -C6      -C7      -C8      :  55.685711
 C3      -C6      -C7      -H34     : -64.953444
 C3      -C6      -C7      -H35     : 178.947043
 C3      -C10     -C9      -C8      : -56.748262
 C3      -C10     -C9      -H38     :  64.374969
 C3      -C10     -C9      -H39     :-179.464504
 C4      -P1      -C3      -C6      :  75.322964
 C4      -P1      -C3      -C10     : -53.998636
 C4      -P1      -C3      -H31     :-167.299594
 C4      -P1      -C5      -C16     : -36.046755
 C4      -P1      -C5      -C20     : 146.393082
 C4      -C11     -C12     -C13     : -57.174623
 C4      -C11     -C12     -H45     :-179.597234
 C4      -C11     -C12     -H46     :  63.915692
 C4      -C15     -C14     -C13     :  57.544067
 C4      -C15     -C14     -H49     :-179.672615
 C4      -C15     -C14     -H50     : -63.405032
 C5      -P1      -C3      -C6      : -32.313890
 C5      -P1      -C3      -C10     :-161.635491
 C5      -P1      -C3      -H31     :  85.063551
 C5      -P1      -C4      -C11     :-164.840125
 C5      -P1      -C4      -C15     : -42.557399
 C5      -P1      -C4      -H42     :  78.244682
 C5      -C16     -C17     -C18     :   0.438910
 C5      -C16     -C17     -H54     :-179.836560
 C5      -C20     -C19     -C18     :   0.162389
 C5      -C20     -C19     -H56     :-179.931189
 C5      -C20     -C21     -C22     :-112.643771
 C5      -C20     -C21     -C26     :  72.001435
 C6      -C3      -C10     -C9      :  57.796927
 C6      -C3      -C10     -H40     : 178.791800
 C6      -C3      -C10     -H41     : -62.162588
 C6      -C7      -C8      -C9      : -54.291399
 C6      -C7      -C8      -H36     :  66.033571
 C6      -C7      -C8      -H37     :-177.269020
 C7      -C6      -C3      -C10     : -57.043289
 C7      -C6      -C3      -H31     :  60.060194
 C7      -C8      -C9      -C10     :  54.719428
 C7      -C8      -C9      -H38     : -65.629667
 C7      -C8      -C9      -H39     : 176.987557
 C8      -C7      -C6      -H32     : -65.327477
 C8      -C7      -C6      -H33     : 177.863422
 C8      -C9      -C10     -H40     :-178.060507
 C8      -C9      -C10     -H41     :  63.662363
 C9      -C8      -C7      -H34     :  66.031170
 C9      -C8      -C7      -H35     :-176.985224
 C9      -C10     -C3      -H31     : -60.123658
 C10     -C3      -C6      -H32     :  63.376540
 C10     -C3      -C6      -H33     :-178.338579
 C10     -C9      -C8      -H36     : -65.498902
 C10     -C9      -C8      -H37     : 177.530663
 C11     -C4      -C15     -C14     : -58.771430
 C11     -C4      -C15     -H51     :  61.274895
 C11     -C4      -C15     -H52     : 178.183541
 C11     -C12     -C13     -C14     :  53.967513
 C11     -C12     -C13     -H47     : 176.946239
 C11     -C12     -C13     -H48     : -65.911341
 C12     -C11     -C4      -C15     :  58.838391
 C12     -C11     -C4      -H42     : -59.835923
 C12     -C13     -C14     -C15     : -54.330531
 C12     -C13     -C14     -H49     :-176.678586
 C12     -C13     -C14     -H50     :  66.500438
 C13     -C12     -C11     -H43     : 178.625368
 C13     -C12     -C11     -H44     :  62.074468
 C13     -C14     -C15     -H51     : -61.739379
 C13     -C14     -C15     -H52     :-178.388747
 C14     -C13     -C12     -H45     : 175.924325
 C14     -C13     -C12     -H46     : -66.962718
 C14     -C15     -C4      -H42     :  59.551908
 C15     -C4      -C11     -H43     :-177.608050
 C15     -C4      -C11     -H44     : -61.285437
 C15     -C14     -C13     -H47     :-177.317320
 C15     -C14     -C13     -H48     :  65.577643
 C16     -C5      -C20     -C19     :   0.688987
 C16     -C5      -C20     -C21     :-177.642139
 C16     -C17     -C18     -C19     :   0.432805
 C16     -C17     -C18     -H55     :-179.810882
 C17     -C16     -C5      -C20     :  -1.002874
 C17     -C18     -C19     -C20     :  -0.737057
 C17     -C18     -C19     -H56     : 179.358443
 C18     -C17     -C16     -H53     :-178.303526
 C18     -C19     -C20     -C21     : 178.650456
 C19     -C18     -C17     -H54     :-179.288909
 C19     -C20     -C21     -C22     :  68.978831
 C19     -C20     -C21     -C26     :-106.375963
 C20     -C5      -C16     -H53     : 177.727248
 C20     -C19     -C18     -H55     : 179.505343
 C20     -C21     -C22     -C23     :-176.398645
 C20     -C21     -C22     -O29     :   2.916224
 C20     -C21     -C26     -C25     : 175.788384
 C20     -C21     -C26     -O27     :  -3.598810
 C21     -C20     -C19     -H56     :  -1.443122
 C21     -C22     -C23     -C24     :   0.444076
 C21     -C22     -C23     -H57     :-176.846292
 C21     -C22     -O29     -C30     : 164.457725
 C21     -C26     -C25     -C24     :   0.618007
 C21     -C26     -C25     -H59     : 177.230951
 C21     -C26     -O27     -C28     :-174.176830
 C22     -C21     -C26     -C25     :   0.391782
 C22     -C21     -C26     -O27     :-178.995412
 C22     -C23     -C24     -C25     :   0.610182
 C22     -C23     -C24     -H58     :-178.671582
 C22     -O29     -C30     -H63     : -54.732284
 C22     -O29     -C30     -H64     :-172.947482
 C22     -O29     -C30     -H65     :  68.693378
 C23     -C22     -C21     -C26     :  -0.931354
 C23     -C22     -O29     -C30     : -16.251691
 C23     -C24     -C25     -C26     :  -1.135207
 C23     -C24     -C25     -H59     :-177.794169
 C24     -C23     -C22     -O29     :-178.808935
 C24     -C25     -C26     -O27     : 179.944115
 C25     -C24     -C23     -H57     : 177.924560
 C25     -C26     -O27     -C28     :   6.460437
 C26     -C21     -C22     -O29     : 178.383515
 C26     -C25     -C24     -H58     : 178.149137
 C26     -O27     -C28     -H60     : 178.525698
 C26     -O27     -C28     -H61     :  59.907014
 C26     -O27     -C28     -H62     : -63.295738
 O27     -C26     -C25     -H59     :  -3.442941
 O29     -C22     -C23     -H57     :   3.900696
 H31     -C3      -C6      -H32     :-179.519977
 H31     -C3      -C6      -H33     : -61.235096
[...]
    H57      Z     0.00069  0.00041 -0.00196 -0.10258  0.00263  0.00399
    H58      X     0.00029 -0.00067  0.00285  0.12061 -0.00306 -0.00602
    H58      Y     0.00118 -0.00243  0.01018  0.43558 -0.01107 -0.02225
    H58      Z     0.00222 -0.00454  0.01882  0.79848 -0.02020 -0.04036
    H59      X    -0.00532  0.00168 -0.00430 -0.18030  0.00380  0.01698
    H59      Y    -0.00183  0.00062 -0.00167 -0.07021  0.00151  0.00642
    H59      Z    -0.00180  0.00043 -0.00133 -0.05675  0.00126  0.00547
    H60      X    -0.00216  0.00002  0.00023  0.00611 -0.00065  0.00052
    H60      Y     0.00078 -0.00000 -0.00010 -0.00242  0.00019 -0.00017
    H60      Z     0.00331 -0.00003 -0.00039 -0.01052  0.00102 -0.00072
    H61      X     0.00105  0.00005 -0.00007 -0.00103 -0.00003 -0.00053
    H61      Y    -0.00196 -0.00013  0.00015  0.00245  0.00004  0.00100
    H61      Z     0.00245  0.00015 -0.00018 -0.00261 -0.00011 -0.00124
    H62      X    -0.00003 -0.00007  0.00001 -0.00004  0.00005 -0.00001
    H62      Y    -0.00079 -0.00038  0.00004 -0.00745  0.00082  0.00063
    H62      Z    -0.00029 -0.00011  0.00002 -0.00183  0.00022  0.00022
    H63      X    -0.00027  0.00015  0.00076 -0.00119 -0.00015 -0.00009
    H63      Y     0.00085 -0.00058 -0.00175  0.00262  0.00047  0.00023
    H63      Z    -0.00195  0.00122  0.00428 -0.00491 -0.00098 -0.00045
    H64      X    -0.00089  0.00019  0.00179 -0.00755 -0.00026 -0.00019
    H64      Y    -0.00058  0.00018  0.00113 -0.00486 -0.00025 -0.00011
    H64      Z    -0.00059  0.00014  0.00121 -0.00540 -0.00014 -0.00011
    H65      X    -0.00008  0.00007  0.00023  0.00055 -0.00012  0.00009
    H65      Y     0.00051 -0.00047 -0.00163 -0.00352  0.00079 -0.00026
    H65      Z     0.00001 -0.00015  0.00014 -0.00010  0.00020 -0.00004
  
  vibration #          223      224      225
                  -------- -------- --------
  frequencies      3217.61  3244.13  3253.68
  intensities        18.32     2.21     1.22
  reduc. mass         0.27     0.81     0.82
  force const         1.62     5.00     5.10
    P1       X    -0.00002  0.00001 -0.00000
    P1       Y     0.00008 -0.00001  0.00001
    P1       Z     0.00006 -0.00000  0.00001
    Pd2      X     0.00000 -0.00001 -0.00000
    Pd2      Y    -0.00001 -0.00001  0.00001
    Pd2      Z    -0.00000  0.00000 -0.00000
    Br3      X     0.00000 -0.00000  0.00000
    Br3      Y    -0.00000  0.00000 -0.00000
    Br3      Z    -0.00000 -0.00000  0.00000
    C73      X     0.00003  0.00000 -0.00001
    C73      Y    -0.00000  0.00001  0.00001
    C73      Z    -0.00005  0.00002  0.00005
    C74      X    -0.00031  0.00014  0.00002
    C74      Y    -0.00020  0.00010  0.00001
    C74      Z    -0.00037  0.00022 -0.00000
    C75      X    -0.00045  0.00085  0.00004
    C75      Y    -0.00011  0.00018  0.00001
    C75      Z     0.00014 -0.00022 -0.00001
    C76      X    -0.00001 -0.00003  0.00003
    C76      Y     0.00002 -0.00003  0.00003
    C76      Z    -0.00001  0.00002 -0.00006
    C77      X     0.00013 -0.00000  0.00001
    C77      Y     0.00009  0.00000  0.00002
    C77      Z     0.00017 -0.00001  0.00000
    C78      X     0.00034 -0.00006 -0.00009
    C78      Y     0.00009 -0.00001  0.00001
    C78      Z    -0.00010  0.00000  0.00003
    F79      X    -0.00001 -0.00000  0.00000
    F79      Y     0.00000 -0.00000  0.00000
    F79      Z     0.00002 -0.00001 -0.00001
    H80      X     0.00351 -0.00186  0.00004
    H80      Y     0.00222 -0.00115  0.00003
    H80      Z     0.00417 -0.00234  0.00014
    H81      X     0.00496 -0.00941 -0.00058
    H81      Y     0.00132 -0.00203 -0.00011
    H81      Z    -0.00128  0.00220  0.00009
    H82      X    -0.00146 -0.00016 -0.00009
    H82      Y    -0.00095 -0.00013 -0.00012
    H82      Z    -0.00165 -0.00015 -0.00016
    H83      X    -0.00389  0.00043  0.00060
    H83      Y    -0.00108  0.00011  0.00018
    H83      Z     0.00113 -0.00013 -0.00009
    C3       X     0.00001  0.00000  0.00000
    C3       Y    -0.00011  0.00004 -0.00000
    C3       Z     0.00003  0.00001  0.00000
    C4       X     0.00007 -0.00001  0.00000
    C4       Y    -0.00007  0.00000  0.00000
    C4       Z     0.00047  0.00000  0.00000
    C5       X    -0.00058  0.00001 -0.00001
    C5       Y     0.00039 -0.00001  0.00002
    C5       Z    -0.00151  0.00000 -0.00002
    C6       X     0.00091 -0.00000  0.00000
    C6       Y    -0.00125  0.00000  0.00000
    C6       Z     0.00090  0.00000  0.00000
    C7       X    -0.00002  0.00000 -0.00000
    C7       Y    -0.00003  0.00002 -0.00000
    C7       Z     0.00001  0.00000  0.00000
    C8       X    -0.00002  0.00000 -0.00000
    C8       Y    -0.00001  0.00001  0.00000
    C8       Z     0.00001 -0.00000  0.00000
    C9       X    -0.00001  0.00001 -0.00000
    C9       Y    -0.00001  0.00003  0.00000
    C9       Z     0.00000  0.00000 -0.00000
    C10      X     0.00002 -0.00000  0.00000
    C10      Y     0.00006  0.00002  0.00000
    C10      Z     0.00002  0.00003 -0.00000
    C11      X    -0.00005  0.00001 -0.00001
    C11      Y    -0.00002 -0.00000  0.00000
    C11      Z     0.00001 -0.00000 -0.00000
    C12      X     0.00001  0.00000 -0.00000
    C12      Y    -0.00001 -0.00001  0.00000
    C12      Z     0.00003 -0.00000  0.00000
    C13      X     0.00001 -0.00000  0.00000
    C13      Y     0.00001 -0.00001  0.00001
    C13      Z     0.00003 -0.00000  0.00000
    C14      X     0.00002 -0.00000  0.00001
    C14      Y    -0.00001 -0.00000  0.00000
    C14      Z     0.00010 -0.00000 -0.00000
    C15      X     0.00002  0.00000 -0.00000
    C15      Y    -0.00006 -0.00001 -0.00000
    C15      Z     0.00010 -0.00000  0.00000
    C16      X    -0.01229  0.00001 -0.00001
    C16      Y     0.03564 -0.00007  0.00004
    C16      Z     0.02742 -0.00005  0.00003
    C17      X     0.01319 -0.00002  0.00001
    C17      Y    -0.00151 -0.00000  0.00000
    C17      Z     0.04911 -0.00006  0.00004
    C18      X     0.02329 -0.00006  0.00004
    C18      Y    -0.03577  0.00008 -0.00006
    C18      Z     0.01415 -0.00004  0.00003
    C19      X     0.00612 -0.00004  0.00000
    C19      Y    -0.01849  0.00010 -0.00002
    C19      Z    -0.01790  0.00009 -0.00004
    C20      X    -0.00052  0.00004  0.00004
    C20      Y     0.00058  0.00003 -0.00005
    C20      Z    -0.00094 -0.00001  0.00002
    C21      X     0.00003 -0.00053 -0.00028
    C21      Y     0.00000 -0.00016  0.00006
    C21      Z     0.00002 -0.00003  0.00025
    C22      X     0.00015  0.00011  0.00082
    C22      Y     0.00002  0.00025  0.00181
    C22      Z     0.00007  0.00046  0.00290
    C23      X    -0.00007  0.01093  0.06113
    C23      Y     0.00001 -0.00251 -0.01024
    C23      Z     0.00004 -0.01074 -0.05238
    C24      X     0.00001 -0.00104 -0.00456
    C24      Y     0.00006  0.00744 -0.00892
    C24      Z     0.00011  0.01479 -0.01531
    C25      X     0.00017  0.07269 -0.01253
    C25      Y     0.00008  0.02764 -0.00425
    C25      Z     0.00005  0.02174 -0.00281
    C26      X    -0.00005  0.00002 -0.00005
    C26      Y    -0.00005 -0.00142  0.00036
    C26      Z     0.00006 -0.00299  0.00059
    O27      X     0.00004  0.00011 -0.00005
    O27      Y     0.00001  0.00016 -0.00005
    O27      Z    -0.00002  0.00034 -0.00003
    C28      X    -0.00008 -0.00022  0.00003
    C28      Y    -0.00004  0.00147 -0.00013
    C28      Z     0.00006  0.00203 -0.00019
    O29      X    -0.00008 -0.00004  0.00006
    O29      Y     0.00000 -0.00004 -0.00016
    O29      Z    -0.00003 -0.00007 -0.00035
    C30      X     0.00011 -0.00018 -0.00064
    C30      Y    -0.00001 -0.00033 -0.00109
    C30      Z     0.00007 -0.00047 -0.00157
    H31      X    -0.00006 -0.00000 -0.00002
    H31      Y     0.00056 -0.00045  0.00002
    H31      Z     0.00015 -0.00008  0.00001
    H32      X     0.00110 -0.00001 -0.00001
    H32      Y     0.00429 -0.00006 -0.00004
    H32      Z     0.00073 -0.00001 -0.00001
    H33      X    -0.01382 -0.00002 -0.00000
    H33      Y     0.01085  0.00003 -0.00000
    H33      Z    -0.01136 -0.00004  0.00001
    H34      X     0.00017 -0.00004  0.00000
    H34      Y     0.00060 -0.00019  0.00001
    H34      Z     0.00006 -0.00000  0.00000
    H35      X     0.00016 -0.00001  0.00001
    H35      Y    -0.00015 -0.00002 -0.00001
    H35      Z    -0.00062 -0.00004 -0.00005
    H36      X    -0.00002 -0.00001 -0.00000
    H36      Y     0.00009 -0.00011 -0.00001
    H36      Z    -0.00001 -0.00003  0.00000
    H37      X    -0.00001 -0.00007  0.00005
    H37      Y     0.00005 -0.00001  0.00001
    H37      Z    -0.00009  0.00002 -0.00002
    H38      X     0.00002 -0.00009  0.00000
    H38      Y     0.00007 -0.00030  0.00001
    H38      Z     0.00000 -0.00003  0.00000
    H39      X     0.00015 -0.00003  0.00004
    H39      Y    -0.00006 -0.00000 -0.00002
    H39      Z     0.00001 -0.00000  0.00002
    H40      X    -0.00001  0.00006 -0.00001
    H40      Y    -0.00017 -0.00003 -0.00000
    H40      Z    -0.00083 -0.00026  0.00001
    H41      X    -0.00008 -0.00004  0.00000
    H41      Y    -0.00036 -0.00021 -0.00002
    H41      Z     0.00000 -0.00004  0.00000
    H42      X    -0.00061  0.00001 -0.00001
    H42      Y     0.00101 -0.00000  0.00001
    H42      Z    -0.00735  0.00002 -0.00001
    H43      X     0.00021 -0.00012  0.00000
    H43      Y     0.00002 -0.00000  0.00000
    H43      Z    -0.00009  0.00007 -0.00000
    H44      X    -0.00011 -0.00000  0.00001
    H44      Y     0.00026 -0.00000 -0.00000
    H44      Z    -0.00029 -0.00002  0.00005
    H45      X    -0.00004 -0.00003  0.00001
    H45      Y    -0.00008  0.00006 -0.00004
    H45      Z    -0.00003 -0.00001  0.00001
    H46      X    -0.00005  0.00000 -0.00001
    H46      Y    -0.00000 -0.00001  0.00000
    H46      Z    -0.00040  0.00002 -0.00001
    H47      X    -0.00018  0.00003 -0.00004
    H47      Y    -0.00028  0.00004 -0.00005
    H47      Z    -0.00013  0.00002 -0.00002
    H48      X    -0.00004 -0.00000  0.00000
    H48      Y     0.00010 -0.00001  0.00000
    H48      Z    -0.00027  0.00001  0.00002
    H49      X    -0.00006  0.00000 -0.00013
    H49      Y    -0.00002 -0.00000 -0.00002
    H49      Z     0.00001 -0.00000  0.00006
    H50      X    -0.00021  0.00000 -0.00000
    H50      Y     0.00007 -0.00000 -0.00000
    H50      Z    -0.00114  0.00001 -0.00000
    H51      X    -0.00005  0.00000  0.00001
    H51      Y     0.00016 -0.00001  0.00001
    H51      Z    -0.00114  0.00001 -0.00002
    H52      X    -0.00016 -0.00008  0.00002
    H52      Y     0.00056  0.00010  0.00001
    H52      Z     0.00008 -0.00002  0.00000
    H53      X     0.12891 -0.00023  0.00014
    H53      Y    -0.38924  0.00071 -0.00050
    H53      Z    -0.32196  0.00062 -0.00045
    H54      X    -0.14521  0.00018 -0.00012
    H54      Y     0.01869 -0.00001  0.00002
    H54      Z    -0.53415  0.00061 -0.00049
    H55      X    -0.25425  0.00065 -0.00051
    H55      Y     0.38606 -0.00098  0.00076
    H55      Z    -0.16462  0.00045 -0.00037
    H56      X    -0.07552  0.00040  0.00004
    H56      Y     0.21040 -0.00102  0.00014
    H56      Z     0.18203 -0.00092  0.00014
    H57      X     0.00052 -0.13677 -0.69535
    H57      Y    -0.00000  0.02266  0.11111
    H57      Z    -0.00036  0.11893  0.59557
    H58      X    -0.00018 -0.01858  0.02694
    H58      Y    -0.00069 -0.08014  0.08822
    H58      Z    -0.00118 -0.14806  0.16099
    H59      X    -0.00183 -0.82839  0.13354
    H59      Y    -0.00065 -0.31399  0.04996
    H59      Z    -0.00046 -0.24533  0.03835
    H60      X     0.00054  0.00824 -0.00077
    H60      Y    -0.00021 -0.00408  0.00043
    H60      Z    -0.00082 -0.01673  0.00173
    H61      X     0.00002 -0.00248  0.00010
    H61      Y     0.00010  0.00617 -0.00051
    H61      Z    -0.00006 -0.00785  0.00075
    H62      X     0.00008  0.00026 -0.00013
    H62      Y     0.00048 -0.02162  0.00211
    H62      Z     0.00017 -0.00661  0.00081
    H63      X    -0.00010  0.00086  0.00364
    H63      Y     0.00024 -0.00167 -0.00527
    H63      Z    -0.00042  0.00355  0.01258
    H64      X    -0.00095  0.00312  0.01067
    H64      Y    -0.00062  0.00220  0.00787
    H64      Z    -0.00059  0.00258  0.00934
    H65      X    -0.00009 -0.00062 -0.00143
    H65      Y     0.00048  0.00419  0.01431
    H65      Z     0.00015  0.00043  0.00175
  
  Number of imaginary frequencies:   0
   
  Writing vibrational animation data to ox_add_Br_trans_L1_PL145.vib
  Writing IR vibrational spectrum data to ox_add_Br_trans_L1_PL145_vib.spm
  rotational symmetry number:  1

  rotational temperatures (K):      0.005210      0.003435      0.003148
   
  The Quasi-Harmonic approximation will be applied to compute
  vibrational constributions to thermodynamic properties.
  Frequencies will be adjusted to a minimum value of  100.00 cm^-1.

  vibrational temperatures:
       mode:      1        2        3        4        5        6
  temp. (K):   143.88   143.88   143.88   143.88   143.88   143.88
   
       mode:      7        8        9       10       11       12
  temp. (K):   143.88   143.88   143.88   143.88   143.88   143.88
   
       mode:     13       14       15       16       17       18
  temp. (K):   143.88   143.88   148.56   154.53   178.33   188.32
   
       mode:     19       20       21       22       23       24
  temp. (K):   205.31   209.08   227.43   233.78   248.86   262.97
   
       mode:     25       26       27       28       29       30
  temp. (K):   266.89   293.96   304.24   311.38   322.51   329.81
   
       mode:     31       32       33       34       35       36
  temp. (K):   349.73   357.52   368.04   380.43   388.49   404.64
   
       mode:     37       38       39       40       41       42
  temp. (K):   431.81   468.66   477.99   481.82   510.26   518.92
   
       mode:     43       44       45       46       47       48
  temp. (K):   536.04   560.70   580.39   591.06   596.12   614.22
   
       mode:     49       50       51       52       53       54
  temp. (K):   622.79   641.23   642.07   677.84   691.45   708.47
   
       mode:     55       56       57       58       59       60
  temp. (K):   729.00   751.52   757.05   768.64   780.74   802.73
   
       mode:     61       62       63       64       65       66
  temp. (K):   834.86   865.51   877.87   909.04   937.09   991.82
   
       mode:     67       68       69       70       71       72
  temp. (K):  1018.80  1048.43  1055.81  1074.61  1093.76  1118.94
   
       mode:     73       74       75       76       77       78
  temp. (K):  1121.42  1131.77  1138.59  1161.24  1167.88  1182.51
   
       mode:     79       80       81       82       83       84
  temp. (K):  1192.76  1195.51  1207.43  1217.54  1232.38  1254.82
   
       mode:     85       86       87       88       89       90
  temp. (K):  1262.81  1292.93  1310.98  1321.01  1323.24  1325.96
   
       mode:     91       92       93       94       95       96
  temp. (K):  1347.85  1352.27  1355.87  1363.86  1373.42  1412.07
   
       mode:     97       98       99      100      101      102
  temp. (K):  1420.40  1456.93  1461.46  1477.40  1478.40  1484.37
   
       mode:    103      104      105      106      107      108
  temp. (K):  1524.69  1529.68  1548.21  1549.14  1552.86  1555.83
   
       mode:    109      110      111      112      113      114
  temp. (K):  1559.63  1593.18  1599.80  1601.18  1611.79  1613.00
   
       mode:    115      116      117      118      119      120
  temp. (K):  1613.99  1639.84  1648.73  1659.09  1666.31  1692.89
   
       mode:    121      122      123      124      125      126
  temp. (K):  1695.93  1703.23  1715.33  1741.74  1744.01  1751.67
   
       mode:    127      128      129      130      131      132
  temp. (K):  1757.74  1760.83  1775.53  1783.14  1798.62  1821.26
   
       mode:    133      134      135      136      137      138
  temp. (K):  1832.54  1873.29  1874.50  1879.06  1887.96  1891.30
   
       mode:    139      140      141      142      143      144
  temp. (K):  1894.48  1897.02  1898.01  1907.73  1933.78  1935.05
   
       mode:    145      146      147      148      149      150
  temp. (K):  1939.42  1953.40  1965.53  1977.44  1978.07  1981.38
   
       mode:    151      152      153      154      155      156
  temp. (K):  2001.83  2005.85  2013.15  2018.95  2019.67  2020.78
   
       mode:    157      158      159      160      161      162
  temp. (K):  2022.22  2026.39  2050.66  2113.37  2120.65  2134.30
   
       mode:    163      164      165      166      167      168
  temp. (K):  2160.03  2163.07  2165.83  2169.08  2172.38  2174.40
   
       mode:    169      170      171      172      173      174
  temp. (K):  2178.33  2180.24  2185.64  2187.34  2187.62  2193.27
   
       mode:    175      176      177      178      179      180
  temp. (K):  2198.02  2200.35  2201.85  2202.57  2206.55  2208.58
   
       mode:    181      182      183      184      185      186
  temp. (K):  2337.81  2358.91  2364.65  2368.76  2377.25  2385.52
   
       mode:    187      188      189      190      191      192
  temp. (K):  4340.69  4349.03  4353.03  4355.01  4357.56  4361.46
   
       mode:    193      194      195      196      197      198
  temp. (K):  4371.12  4376.55  4378.40  4379.84  4388.42  4402.49
   
       mode:    199      200      201      202      203      204
  temp. (K):  4413.49  4419.75  4433.29  4436.79  4439.46  4441.07
   
       mode:    205      206      207      208      209      210
  temp. (K):  4447.39  4450.91  4455.90  4482.60  4485.48  4491.19
   
       mode:    211      212      213      214      215      216
  temp. (K):  4495.74  4496.10  4567.83  4570.20  4571.41  4588.23
   
       mode:    217      218      219      220      221      222
  temp. (K):  4596.16  4602.59  4612.19  4615.58  4617.45  4620.38
   
       mode:    223      224      225
  temp. (K):  4629.41  4667.57  4681.31
   
   
  Thermodynamic properties calculated assuming an ideal gas

  In the table below, the units for temperature
  are kelvins, the units for U, H, and G are
  kcal/mol and the units for Cv and S are cal/(mol K)

  The zero point energy (ZPE):    408.441 kcal/mol
  is not included in U, H, or G in the table below
  
 
  =============================================================================
  Thermodynamic properties for P = 1.00E+00 atm, calculated at   1 temperatures


  T =   298.15 K, P = 1.00E+00 atm
   
                  U         Cv          S          H          G        ln(Q)
              =========  =========  =========  =========  =========  =========
  trans.          0.889      2.981     45.476      1.481    -12.077   20.38435
  rot.            0.889      2.981     37.687      0.889    -10.348   17.46468
  vib.           21.271    139.067    130.501     21.271    -17.638   29.76952
  elec.           0.000      0.000      0.000      0.000      0.000    0.00000
  ----------------------------------------------------------------------------
  total          23.048    145.029    213.664     23.641    -40.063   67.61855
   
   Total internal energy, Utot(SCFE + ZPE + U):   -1973.418994 hartrees
   Total enthalpy, Htot (Utot + nRT), with n=1:   -1973.418050 hartrees
    Total Gibbs free energy, Gtot (Htot - T*S):   -1973.519569 hartrees
   
  end of program freq
   
 Time(freq)  user:        2.3  user+sys:        2.3  wallclock:        2.6
  
  start of program post
  
  Writing input files for PBF
  end of program post
   
 Time(post)  user:        2.2  user+sys:        2.2  wallclock:        2.4

 Total cpu seconds     user:   71462.543   user+sys:   71462.543
  
 Total elapsed time:    73234 seconds

Job ox_add_Br_trans_L1_PL145 completed on bp1-compute031.data.bp.acrc.priv at Sat Mar 16 10:56:25 2024
