Job ox_add_L_trans_L1_PL145 started on bp1-compute137.data.bp.acrc.priv at Sat Mar 23 04:59:56 2024
jobid: bp1-compute137-0-65fe61c9

  +--------------------------------------------------------------------+
  |  Jaguar version 11.4, release 135                                  |
  |                                                                    |
  |  Copyright Schrodinger, Inc.                                       |
  |  All Rights Reserved.                                              |
  |                                                                    |
  |  The following have contributed to Jaguar (listed alphabetically): |
  |  Mike Beachy, Art Bochevarov, Dale Braden, Yixiang Cao,            |
  |  Alan Chien, Chris Cortis, Rich Friesner, Bill Goddard,            |
  |  Hod Greeley, Tom Hughes, Leif Jacobson, Jean-Marc Langlois,       |
  |  Daniel Levine, Daniel Mainz, Rob Murphy, Dean Philipp,            |
  |  Tom Pollard, Murco Ringnalda, Mark Watson, Haoyu Yu.              |
  |                                                                    |
  |  Use of this program should be acknowledged in publications as:    |
  |                                                                    |
  |  Jaguar, version 11.4, Schrodinger, Inc., New York, NY, 2021.      |
  |                                                                    |
  |  A. D. Bochevarov, E. Harder, T. F. Hughes, J. R. Greenwood,       |
  |  D. A. Braden, D. M. Philipp, D. Rinaldo, M. D. Halls,             |
  |  J. Zhang, R. A. Friesner, "Jaguar: A High-Performance Quantum     |
  |  Chemistry Software Program with Strengths in Life and Materials   |
  |  Sciences", Int. J. Quantum Chem., 2013, 113(18), 2110-2142.       |
  +--------------------------------------------------------------------+
  
  start of program pre
  
  Job name: ox_add_L_trans_L1_PL145
  Executables used: /sw/apps/schrodinger2021-4/jaguar-v11.4/bin/Linux-x86_64
  Temporary files : /tmp/ar21627/ox_add_L_trans_L1_PL145
  Maestro file (input):  ox_add_L_trans_L1_PL145.mae
  Maestro file (output): ox_add_L_trans_L1_PL145.01.mae
  
 Contents of input file: &gen section only
 ----------------Contents start----------------
&gen
dftname=b3pw91-d3
basis=6-31G*
numd=5
ip11=2
iaccg=3
isolv=2
igeopt=1
solvent=benzene
ifreq=1
&
 -----------------Contents end-----------------
 
  basis set:             non_standard                    
  net molecular charge:    0
  multiplicity:            1
  
  This run will use ECP on            2  atoms
  number of basis functions....          626
  
 Input geometry:
                                   angstroms
  atom               x                 y                 z
  P1            0.0000000000      0.0000000000      0.0000000000 
  Pd2           0.0000000000      0.0000000000      2.2562152928 
  Br3           2.5621400489      0.0000000000      2.3261133603 
  C73          -4.7377519196     -0.0161855216      2.0639600006 
  C74          -4.0668108527     -1.2191211067      2.2147786858 
  C75          -2.6724911396     -1.2078517322      2.2925099667 
  C76          -1.9687090155     -0.0023242019      2.2319228250 
  C77          -2.6737667636      1.1946458707      2.0759318508 
  C78          -4.0655071149      1.1938320636      1.9938730778 
  F79          -6.0879600558     -0.0240743969      1.9754152872 
  H80          -4.6312801393     -2.1454731514      2.2657644372 
  H81          -2.1357895201     -2.1457976575      2.3823600372 
  H82          -2.1386397227      2.1346760104      1.9941955877 
  H83          -4.6280984482      2.1135070838      1.8678274627 
  C3            1.7184686490     -0.3841232531     -0.7421894815 
  C4           -1.1363878477     -1.3419063424     -0.7603611454 
  C5           -0.4720732671      1.5650834594     -0.9186980760 
  C6            1.9571199007     -0.0213758655     -2.2245412319 
  C7            3.4395218924     -0.2361267956     -2.6093393883 
  C8            3.9116081742     -1.6716278694     -2.3129690622 
  C9            3.6386997766     -2.0485926795     -0.8448675086 
  C10           2.1551809847     -1.8439969433     -0.4715173370 
  C11          -1.1402713396     -2.6005395529      0.1492917778 
  C12          -1.9234065801     -3.7590994321     -0.5066923764 
  C13          -3.3695385045     -3.3478961950     -0.8432255988 
  C14          -3.3887509457     -2.0683747113     -1.7013731388 
  C15          -2.6037633878     -0.9198396390     -1.0307062917 
  C16          -0.8271832819      1.4529604822     -2.2863189806 
  C17          -1.1931417578      2.5628492394     -3.0584062873 
  C18          -1.2122411295      3.8358650920     -2.4699975819 
  C19          -0.8476597500      3.9685566131     -1.1262848168 
  C20          -0.4673077950      2.8602030187     -0.3327116885 
  C21          -0.0743976293      3.1621140284      1.0795928611 
  C22          -1.0666124203      3.5072387670      2.0297503096 
  C23          -0.7157452754      3.8421797634      3.3513772174 
  C24           0.6366001246      3.8561549747      3.7132034198 
  C25           1.6452786572      3.5690577240      2.7852567189 
  C26           1.2843408062      3.2210749876      1.4698104190 
  O27           2.1944182559      2.9444468170      0.4724543367 
  C28           3.5715164322      2.8979319066      0.8518659008 
  O29          -2.3546975328      3.5129137826      1.5548327362 
  C30          -3.3265481076      4.2328965414      2.3147846922 
  H31           2.3569970081      0.2660975796     -0.1134750923 
  H32           1.3220692291     -0.6541671605     -2.8812996894 
  H33           1.6780580290      1.0275859915     -2.4213778571 
  H34           4.0631597915      0.4775934641     -2.0321848305 
  H35           3.5881531306      0.0101762791     -3.6800344396 
  H36           3.3677668893     -2.3761234141     -2.9778874372 
  H37           4.9883309350     -1.7809637268     -2.5530046021 
  H38           4.2578938247     -1.4207875620     -0.1733620357 
  H39           3.9322267637     -3.0998677094     -0.6550191122 
  H40           2.0086892040     -2.0831405500      0.5957456873 
  H41           1.5348118628     -2.5388554796     -1.0752732074 
  H42          -0.6622034498     -1.6150427325     -1.7305084219 
  H43          -0.1140491073     -2.9287320821      0.3851115867 
  H44          -1.6069928890     -2.3204332039      1.1126715030 
  H45          -1.9195495358     -4.6374030564      0.1681405100 
  H46          -1.4066787999     -4.0754142727     -1.4388434078 
  H47          -3.8998791910     -4.1728800284     -1.3605702372 
  H48          -3.9174646687     -3.1549294983      0.1008106230 
  H49          -4.4321100222     -1.7447560033     -1.8882345494 
  H50          -2.9460705219     -2.2900131594     -2.6973450990 
  H51          -3.0652206504     -0.6525643399     -0.0626442926 
  H52          -2.6573048054     -0.0181190895     -1.6636846196 
  H53          -0.8071974764      0.4692157229     -2.7668899433 
  H54          -1.4613858779      2.4280149889     -4.1138163845 
  H55          -1.5021712199      4.7181869069     -3.0539088487 
  H56          -0.8480964680      4.9577666374     -0.6543707284 
  H57          -1.4853024465      4.0492754194      4.0987289039 
  H58           0.9122094745      4.0826819236      4.7492839160 
  H59           2.6900561195      3.5560473111      3.1025078095 
  H60           4.1216333638      2.6408795435     -0.0681000210 
  H61           3.7375201996      2.1186029040      1.6187207393 
  H62           3.9230118298      3.8840121870      1.2201099843 
  H63          -3.3439896271      3.8744041295      3.3597656922 
  H64          -4.2940578017      4.0132496873      1.8357215913 
  H65          -3.1464612049      5.3280664683      2.2800765411 
   
  principal moments of inertia:
        amu*angstrom^2:     5139.12489     6052.23288     7306.41691
                g*cm^2: 8.53371659E-37 1.00499679E-36 1.21325892E-36
   
  rotational constants:
               cm^(-1):      0.00328025      0.00278536      0.00230724
                   GHz:      0.09833951      0.08350290      0.06916920
   
  Molecular weight:     690.09 amu
   
  Stoichiometry: PdC32PH39BrO2F
  Molecular Point Group: C1      
  Point Group used: C1
  
 
Number of optimization coordinates:   268
Number of independent coordinates:    268
Number of non-redundant coordinates:  225
Number of frozen coordinates:           0
Number of harmonic constraints:         0
 
Number of geometric degrees of freedom:   225
Maximum geometric degrees of freedom:     225
 " " " " " excluding dummy atoms:         225
 
 
  bond lengths (angstroms):
 
 P1      -Pd2     :   2.256215      P1      -C3      :   1.910898
 P1      -C4      :   1.915787      P1      -C5      :   1.875192
 Pd2     -Br3     :   2.563093      Pd2     -C76     :   1.968860
 C73     -C74     :   1.385627      C73     -C78     :   1.385990
 C73     -F79     :   1.353131      C74     -C75     :   1.396530
 C74     -H80     :   1.085980      C75     -C76     :   1.397239
 C75     -H81     :   1.084373      C76     -C77     :   1.397919
 C77     -C78     :   1.394158      C77     -H82     :   1.084757
 C78     -H83     :   1.085449      C3      -C6      :   1.544638
 C3      -C10     :   1.547647      C3      -H31     :   1.107153
 C4      -C11     :   1.552946      C4      -C15     :   1.550619
 C4      -H42     :   1.113840      C5      -C16     :   1.417414
 C5      -C20     :   1.421526      C6      -C7      :   1.546513
 C6      -H32     :   1.111326      C6      -H33     :   1.103151
 C7      -C8      :   1.539923      C7      -H34     :   1.109697
 C7      -H35     :   1.108668      C8      -C9      :   1.540099
 C8      -H36     :   1.110943      C8      -H37     :   1.108559
 C9      -C10     :   1.543398      C9      -H38     :   1.108359
 C9      -H39     :   1.107872      C10     -H40     :   1.103494
 C10     -H41     :   1.110048      C11     -C12     :   1.544628
 C11     -H43     :   1.102929      C11     -H44     :   1.106521
 C12     -C13     :   1.540662      C12     -H45     :   1.107624
 C12     -H46     :   1.111741      C13     -C14     :   1.540767
 C13     -H47     :   1.108830      C13     -H48     :   1.108451
 C14     -C15     :   1.544387      C14     -H49     :   1.108262
 C14     -H50     :   1.112227      C15     -H51     :   1.105225
 C15     -H52     :   1.103009      C16     -C17     :   1.400678
 C16     -H53     :   1.095035      C17     -C18     :   1.402554
 C17     -H54     :   1.097281      C18     -C19     :   1.398603
 C18     -H55     :   1.097043      C19     -C20     :   1.415229
 C19     -H56     :   1.096011      C20     -C21     :   1.496707
 C21     -C22     :   1.416475      C21     -C26     :   1.414891
 C22     -C23     :   1.407832      C22     -O29     :   1.372859
 C23     -C24     :   1.399983      C23     -H57     :   1.092539
 C24     -C25     :   1.400336      C24     -H58     :   1.095782
 C25     -C26     :   1.407752      C25     -H59     :   1.091960
 C26     -O27     :   1.378217      O27     -C28     :   1.429166
 C28     -H60     :   1.102289      C28     -H61     :   1.105883
 C28     -H62     :   1.109733      O29     -C30     :   1.428424
 C30     -H63     :   1.104901      C30     -H64     :   1.101736
 C30     -H65     :   1.110420
 
  bond angles:
 
 C3      -P1      -Pd2     : 112.854874  C4      -P1      -Pd2     : 113.384048
 C4      -P1      -C3      : 103.797047  C5      -P1      -Pd2     : 119.335462
 C5      -P1      -C3      : 101.764216  C5      -P1      -C4      : 103.935872
 Br3     -Pd2     -P1      :  91.562706  C76     -Pd2     -P1      :  89.293047
 C76     -Pd2     -Br3     : 179.141579  C78     -C73     -C74     : 121.909126
 F79     -C73     -C74     : 119.027529  F79     -C73     -C78     : 119.062389
 C75     -C74     -C73     : 118.848879  H80     -C74     -C73     : 119.601754
 H80     -C74     -C75     : 121.548898  C76     -C75     -C74     : 120.493887
 H81     -C75     -C74     : 119.458344  H81     -C75     -C76     : 120.038367
 C75     -C76     -Pd2     : 120.274260  C77     -C76     -Pd2     : 120.310758
 C77     -C76     -C75     : 119.311759  C78     -C77     -C76     : 120.634266
 H82     -C77     -C76     : 120.106568  H82     -C77     -C78     : 119.244040
 C77     -C78     -C73     : 118.797858  H83     -C78     -C73     : 119.615841
 H83     -C78     -C77     : 121.583776  C6      -C3      -P1      : 117.676148
 C10     -C3      -P1      : 112.052203  C10     -C3      -C6      : 110.228616
 H31     -C3      -P1      : 100.372038  H31     -C3      -C6      : 108.538360
 H31     -C3      -C10     : 106.973355  C11     -C4      -P1      : 109.675858
 C15     -C4      -P1      : 116.095413  C15     -C4      -C11     : 108.685035
 H42     -C4      -P1      : 105.362777  H42     -C4      -C11     : 108.210602
 H42     -C4      -C15     : 108.527420  C16     -C5      -P1      : 118.018741
 C20     -C5      -P1      : 123.890444  C20     -C5      -C16     : 118.076616
 C7      -C6      -C3      : 110.748753  H32     -C6      -C3      : 110.189696
 H32     -C6      -C7      : 108.761852  H33     -C6      -C3      : 110.821576
 H33     -C6      -C7      : 109.276348  H33     -C6      -H32     : 106.943579
 C8      -C7      -C6      : 112.049932  H34     -C7      -C6      : 108.661171
 H34     -C7      -C8      : 109.097085  H35     -C7      -C6      : 109.752032
 H35     -C7      -C8      : 110.601340  H35     -C7      -H34     : 106.502571
 C9      -C8      -C7      : 110.934835  H36     -C8      -C7      : 109.018804
 H36     -C8      -C9      : 109.182296  H37     -C8      -C7      : 110.366786
 H37     -C8      -C9      : 110.755376  H37     -C8      -H36     : 106.459137
 C10     -C9      -C8      : 111.621485  H38     -C9      -C8      : 109.870468
 H38     -C9      -C10     : 108.381341  H39     -C9      -C8      : 110.405725
 H39     -C9      -C10     : 109.816229  H39     -C9      -H38     : 106.598006
 C9      -C10     -C3      : 110.730175  H40     -C10     -C3      : 109.640323
 H40     -C10     -C9      : 109.440822  H41     -C10     -C3      : 109.733502
 H41     -C10     -C9      : 108.822300  H41     -C10     -H40     : 108.432918
 C12     -C11     -C4      : 111.125405  H43     -C11     -C4      : 111.351347
 H43     -C11     -C12     : 109.837706  H44     -C11     -C4      : 107.810704
 H44     -C11     -C12     : 110.228737  H44     -C11     -H43     : 106.357483
 C13     -C12     -C11     : 111.621470  H45     -C12     -C11     : 109.527273
 H45     -C12     -C13     : 110.364658  H46     -C12     -C11     : 109.501987
 H46     -C12     -C13     : 109.211968  H46     -C12     -H45     : 106.475670
 C14     -C13     -C12     : 110.794037  H47     -C13     -C12     : 110.626783
 H47     -C13     -C14     : 110.611963  H48     -C13     -C12     : 108.930251
 H48     -C13     -C14     : 108.881681  H48     -C13     -H47     : 106.885455
 C15     -C14     -C13     : 111.677594  H49     -C14     -C13     : 110.373692
 H49     -C14     -C15     : 109.546854  H50     -C14     -C13     : 109.165367
 H50     -C14     -C15     : 109.558147  H50     -C14     -H49     : 106.374181
 C14     -C15     -C4      : 110.749596  H51     -C15     -C4      : 107.952207
 H51     -C15     -C14     : 110.364467  H52     -C15     -C4      : 111.623564
 H52     -C15     -C14     : 109.517124  H52     -C15     -H51     : 106.539811
 C17     -C16     -C5      : 122.319238  H53     -C16     -C5      : 119.336537
 H53     -C16     -C17     : 118.341005  C18     -C17     -C16     : 119.440155
 H54     -C17     -C16     : 119.781371  H54     -C17     -C18     : 120.778471
 C19     -C18     -C17     : 119.053335  H55     -C18     -C17     : 120.683342
 H55     -C18     -C19     : 120.262150  C20     -C19     -C18     : 122.309158
 H56     -C19     -C18     : 119.947166  H56     -C19     -C20     : 117.743514
 C19     -C20     -C5      : 118.781466  C21     -C20     -C5      : 125.004211
 C21     -C20     -C19     : 116.211950  C22     -C21     -C20     : 119.882526
 C26     -C21     -C20     : 121.382210  C26     -C21     -C22     : 118.524149
 C23     -C22     -C21     : 120.870938  O29     -C22     -C21     : 115.225735
 O29     -C22     -C23     : 123.890184  C24     -C23     -C22     : 119.061268
 H57     -C23     -C22     : 120.778045  H57     -C23     -C24     : 120.113983
 C25     -C24     -C23     : 121.499432  H58     -C24     -C23     : 119.300694
 H58     -C24     -C25     : 119.193960  C26     -C25     -C24     : 119.025933
 H59     -C25     -C24     : 119.940819  H59     -C25     -C26     : 120.920782
 C25     -C26     -C21     : 120.945871  O27     -C26     -C21     : 115.225326
 O27     -C26     -C25     : 123.815288  C28     -O27     -C26     : 116.787962
 H60     -C28     -O27     : 105.480406  H61     -C28     -O27     : 110.589352
 H61     -C28     -H60     : 109.845361  H62     -C28     -O27     : 111.368976
 H62     -C28     -H60     : 109.031337  H62     -C28     -H61     : 110.398103
 C30     -O29     -C22     : 117.154581  H63     -C30     -O29     : 110.509948
 H64     -C30     -O29     : 105.405671  H64     -C30     -H63     : 109.432569
 H65     -C30     -O29     : 111.724695  H65     -C30     -H63     : 110.617181
 H65     -C30     -H64     : 108.993185
 
  torsional angles:
 
 P1      -Pd2     -C76     -C75     :  93.291527
 P1      -Pd2     -C76     -C77     : -82.989362
 P1      -C3      -C6      -C7      : 173.025537
 P1      -C3      -C6      -H32     : -66.592077
 P1      -C3      -C6      -H33     :  51.575275
 P1      -C3      -C10     -C9      :-169.424702
 P1      -C3      -C10     -H40     : -48.565920
 P1      -C3      -C10     -H41     :  70.426147
 P1      -C4      -C11     -C12     :-173.877998
 P1      -C4      -C11     -H43     : -51.081401
 P1      -C4      -C11     -H44     :  65.226560
 P1      -C4      -C15     -C14     : 177.367530
 P1      -C4      -C15     -H51     : -61.707073
 P1      -C4      -C15     -H52     :  55.058353
 P1      -C5      -C16     -C17     :-179.929022
 P1      -C5      -C16     -H53     :  -0.592880
 P1      -C5      -C20     -C19     :-179.821997
 P1      -C5      -C20     -C21     :   0.761002
 Pd2     -P1      -C3      -C6      :-162.731193
 Pd2     -P1      -C3      -C10     :  67.943966
 Pd2     -P1      -C3      -H31     : -45.281142
 Pd2     -P1      -C4      -C11     : -33.657334
 Pd2     -P1      -C4      -C15     :  89.983783
 Pd2     -P1      -C4      -H42     :-149.916398
 Pd2     -P1      -C5      -C16     :-162.687575
 Pd2     -P1      -C5      -C20     :  18.712067
 Pd2     -C76     -C75     -C74     :-177.095593
 Pd2     -C76     -C75     -H81     :   1.782994
 Pd2     -C76     -C77     -C78     : 176.927632
 Pd2     -C76     -C77     -H82     :  -1.646969
 Br3     -Pd2     -P1      -C3      :  12.600000
 Br3     -Pd2     -P1      -C4      : 130.259457
 Br3     -Pd2     -P1      -C5      :-106.784791
 Br3     -Pd2     -C76     -C75     : -82.190519
 Br3     -Pd2     -C76     -C77     : 101.528592
 C73     -C74     -C75     -C76     :   0.605200
 C73     -C74     -C75     -H81     :-178.279856
 C73     -C78     -C77     -C76     :  -0.275010
 C73     -C78     -C77     -H82     : 178.311769
 C74     -C73     -C78     -C77     :   0.102037
 C74     -C73     -C78     -H83     : 179.533252
 C74     -C75     -C76     -C77     :  -0.777681
 C75     -C74     -C73     -C78     :  -0.266097
 C75     -C74     -C73     -F79     : 179.374734
 C75     -C76     -C77     -C78     :   0.611093
 C75     -C76     -C77     -H82     :-177.963508
 C76     -Pd2     -P1      -C3      :-167.332358
 C76     -Pd2     -P1      -C4      : -49.672901
 C76     -Pd2     -P1      -C5      :  73.282851
 C76     -C75     -C74     -H80     :-179.644890
 C76     -C77     -C78     -H83     :-179.694551
 C77     -C76     -C75     -H81     : 178.100905
 C77     -C78     -C73     -F79     :-179.538673
 C78     -C73     -C74     -H80     : 179.979021
 F79     -C73     -C74     -H80     :  -0.380148
 F79     -C73     -C78     -H83     :  -0.107458
 H80     -C74     -C75     -H81     :   1.470054
 H82     -C77     -C78     -H83     :  -1.107772
 C3      -P1      -C4      -C11     :  89.156571
 C3      -P1      -C4      -C15     :-147.202312
 C3      -P1      -C4      -H42     : -27.102493
 C3      -P1      -C5      -C16     :  72.413626
 C3      -P1      -C5      -C20     :-106.186733
 C3      -C6      -C7      -C8      :  55.634693
 C3      -C6      -C7      -H34     : -64.987080
 C3      -C6      -C7      -H35     : 178.919672
 C3      -C10     -C9      -C8      : -56.646533
 C3      -C10     -C9      -H38     :  64.483797
 C3      -C10     -C9      -H39     :-179.431519
 C4      -P1      -C3      -C6      :  74.106847
 C4      -P1      -C3      -C10     : -55.217994
 C4      -P1      -C3      -H31     :-168.443102
 C4      -P1      -C5      -C16     : -35.204125
 C4      -P1      -C5      -C20     : 146.195516
 C4      -C11     -C12     -C13     : -56.808193
 C4      -C11     -C12     -H45     :-179.338689
 C4      -C11     -C12     -H46     :  64.248597
 C4      -C15     -C14     -C13     :  57.586148
 C4      -C15     -C14     -H49     :-179.820371
 C4      -C15     -C14     -H50     : -63.486672
 C5      -P1      -C3      -C6      : -33.618468
 C5      -P1      -C3      -C10     :-162.943309
 C5      -P1      -C3      -H31     :  83.831583
 C5      -P1      -C4      -C11     :-164.747617
 C5      -P1      -C4      -C15     : -41.106500
 C5      -P1      -C4      -H42     :  78.993319
 C5      -C16     -C17     -C18     :   0.039287
 C5      -C16     -C17     -H54     :-179.941590
 C5      -C20     -C19     -C18     :  -0.781942
 C5      -C20     -C19     -H56     : 179.365007
 C5      -C20     -C21     -C22     :-107.228545
 C5      -C20     -C21     -C26     :  78.129400
 C6      -C3      -C10     -C9      :  57.469349
 C6      -C3      -C10     -H40     : 178.328131
 C6      -C3      -C10     -H41     : -62.679802
 C6      -C7      -C8      -C9      : -54.134037
 C6      -C7      -C8      -H36     :  66.129439
 C6      -C7      -C8      -H37     :-177.278229
 C7      -C6      -C3      -C10     : -56.801689
 C7      -C6      -C3      -H31     :  60.052067
 C7      -C8      -C9      -C10     :  54.569811
 C7      -C8      -C9      -H38     : -65.690592
 C7      -C8      -C9      -H39     : 177.017486
 C8      -C7      -C6      -H32     : -65.594582
 C8      -C7      -C6      -H33     : 177.990841
 C8      -C9      -C10     -H40     :-177.623539
 C8      -C9      -C10     -H41     :  64.045397
 C9      -C8      -C7      -H34     :  66.234617
 C9      -C8      -C7      -H35     :-176.939257
 C9      -C10     -C3      -H31     : -60.353786
 C10     -C3      -C6      -H32     :  63.580696
 C10     -C3      -C6      -H33     :-178.251951
 C10     -C9      -C8      -H36     : -65.596447
 C10     -C9      -C8      -H37     : 177.489827
 C11     -C4      -C15     -C14     : -58.478386
 C11     -C4      -C15     -H51     :  62.447011
 C11     -C4      -C15     -H52     : 179.212437
 C11     -C12     -C13     -C14     :  53.999904
 C11     -C12     -C13     -H47     : 177.044954
 C11     -C12     -C13     -H48     : -65.748743
 C12     -C11     -C4      -C15     :  58.238166
 C12     -C11     -C4      -H42     : -59.432276
 C12     -C13     -C14     -C15     : -54.490564
 C12     -C13     -C14     -H49     :-176.610055
 C12     -C13     -C14     -H50     :  66.810280
 C13     -C12     -C11     -H43     : 179.527012
 C13     -C12     -C11     -H44     :  62.653743
 C13     -C14     -C15     -H51     : -61.899481
 C13     -C14     -C15     -H52     :-178.883557
 C14     -C13     -C12     -H45     : 176.049504
 C14     -C13     -C12     -H46     : -67.225513
 C14     -C15     -C4      -H42     :  58.990564
 C15     -C4      -C11     -H43     :-178.965237
 C15     -C4      -C11     -H44     : -62.657277
 C15     -C14     -C13     -H47     :-177.544184
 C15     -C14     -C13     -H48     :  65.287172
 C16     -C5      -C20     -C19     :   1.578398
 C16     -C5      -C20     -C21     :-177.838604
 C16     -C17     -C18     -C19     :   0.806805
 C16     -C17     -C18     -H55     :-179.586217
 C17     -C16     -C5      -C20     :  -1.245820
 C17     -C18     -C19     -C20     :  -0.436161
 C17     -C18     -C19     -H56     : 179.413743
 C18     -C17     -C16     -H53     :-179.303176
 C18     -C19     -C20     -C21     : 178.685783
 C19     -C18     -C17     -H54     :-179.212513
 C19     -C20     -C21     -C22     :  73.340999
 C19     -C20     -C21     -C26     :-101.301056
 C20     -C5      -C16     -H53     : 178.090321
 C20     -C19     -C18     -H55     : 179.955164
 C20     -C21     -C22     -C23     :-177.687037
 C20     -C21     -C22     -O29     :   1.044076
 C20     -C21     -C26     -C25     : 176.908189
 C20     -C21     -C26     -O27     :  -1.804053
 C21     -C20     -C19     -H56     :  -1.167268
 C21     -C22     -C23     -C24     :   1.241559
 C21     -C22     -C23     -H57     :-176.275674
 C21     -C22     -O29     -C30     :-161.151001
 C21     -C26     -C25     -C24     :   0.137764
 C21     -C26     -C25     -H59     : 176.279676
 C21     -C26     -O27     -C28     :-175.544166
 C22     -C21     -C26     -C25     :   2.195393
 C22     -C21     -C26     -O27     :-176.516850
 C22     -C23     -C24     -C25     :   1.189470
 C22     -C23     -C24     -H58     :-177.918494
 C22     -O29     -C30     -H63     : -55.368098
 C22     -O29     -C30     -H64     :-173.501882
 C22     -O29     -C30     -H65     :  68.256581
 C23     -C22     -C21     -C26     :  -2.892692
 C23     -C22     -O29     -C30     :  17.536972
 C23     -C24     -C25     -C26     :  -1.872391
 C23     -C24     -C25     -H59     :-178.052929
 C24     -C23     -C22     -O29     :-177.375611
 C24     -C25     -C26     -O27     : 178.735594
 C25     -C24     -C23     -H57     : 178.723569
 C25     -C26     -O27     -C28     :   5.785165
 C26     -C21     -C22     -O29     : 175.838421
 C26     -C25     -C24     -H58     : 177.236503
 C26     -O27     -C28     -H60     : 178.556959
 C26     -O27     -C28     -H61     :  59.849315
 C26     -O27     -C28     -H62     : -63.298094
 O27     -C26     -C25     -H59     :  -5.122494
 O29     -C22     -C23     -H57     :   5.107156
 H31     -C3      -C6      -H32     :-179.565548
 H31     -C3      -C6      -H33     : -61.398195
 H31     -C3      -C10     -H40     :  60.504996
 H31     -C3      -C10     -H41     : 179.497063
 H32     -C6      -C7      -H34     : 173.783646
 H32     -C6      -C7      -H35     :  57.690397
 H33     -C6      -C7      -H34     :  57.369069
 H33     -C6      -C7      -H35     : -58.724180
 H34     -C7      -C8      -H36     :-173.501907
 H34     -C7      -C8      -H37     : -56.909575
 H35     -C7      -C8      -H36     : -56.675781
 H35     -C7      -C8      -H37     :  59.916551
 H36     -C8      -C9      -H38     : 174.143149
 H36     -C8      -C9      -H39     :  56.851228
 H37     -C8      -C9      -H38     :  57.229423
 H37     -C8      -C9      -H39     : -60.062498
 H38     -C9      -C10     -H40     : -56.493209
 H38     -C9      -C10     -H41     :-174.824272
 H39     -C9      -C10     -H40     :  59.591475
 H39     -C9      -C10     -H41     : -58.739588
 H42     -C4      -C11     -H43     :  63.364321
 H42     -C4      -C11     -H44     : 179.672282
 H42     -C4      -C15     -H51     : 179.915962
 H42     -C4      -C15     -H52     : -63.318613
 H43     -C11     -C12     -H45     :  56.996516
 H43     -C11     -C12     -H46     : -59.416198
 H44     -C11     -C12     -H45     : -59.876753
 H44     -C11     -C12     -H46     :-176.289467
 H45     -C12     -C13     -H47     : -60.905446
 H45     -C12     -C13     -H48     :  56.300857
 H46     -C12     -C13     -H47     :  55.819537
 H46     -C12     -C13     -H48     : 173.025840
 H47     -C13     -C14     -H49     :  60.336325
 H47     -C13     -C14     -H50     : -56.243340
 H48     -C13     -C14     -H49     : -56.832318
 H48     -C13     -C14     -H50     :-173.411983
 H49     -C14     -C15     -H51     :  60.694001
 H49     -C14     -C15     -H52     : -56.290076
 H50     -C14     -C15     -H51     : 177.027700
 H50     -C14     -C15     -H52     :  60.043624
 H53     -C16     -C17     -H54     :   0.715947
 H54     -C17     -C18     -H55     :   0.394465
 H55     -C18     -C19     -H56     :  -0.194931
 H57     -C23     -C24     -H58     :  -0.384394
 H58     -C24     -C25     -H59     :   1.055964
 
  nuclear repulsion energy.......    5282.997497079 hartrees
  
  Detected an organometallic with only one TM atom. 
  
  Oxidation state on metal       2 is     2
  Formal multiplet on metal      2 is     1
  Formal charge on ligand        3 is    -1
  Formal multiplet on ligand     3 is     1
  Formal charge on ligand        4 is    -1
  Formal multiplet on ligand     4 is     1
  
 
  Will use High-Quality Initial guess for organometallics
       including d-d repulsion (iguess=30)
 
 Non-default options chosen:
   SCF calculation type: DFT(b3pw91-d3)              
   DFT=Becke_3_Parameter/HF+Slater+Becke88+PW91+PW-GGAIIC (B3PW91-D3)
   Geometry will be optimized in redundant internal coordinates
   Solvation energy will be computed using PBF
     -solute cavity energy will not be included
     -surface area terms will not be included
   Vibrational frequencies and related properties will be computed
      from analytic second derivatives
   IR intensities will be computed
   Thermochemical properties will be computed
   Scaling standard convergence criteria by a factor of   5.00
   Solvent: benzene                                                         
   Internal dielectric constant:    1.000
   Continuum dielectric constant:   2.283
   Solvent probe molecule radius:   2.600
  
 Non-default print settings:
     11=  2
  
 Temporary integer options set:
     21= -1  73=  2
  
  atom       vdw   vdw2    cov     mass  grid  daf  charge   basis
  P1        2.147  2.074  1.060   30.974    Y    Y      Y    6-31g*
  Pd2       1.450  1.450  1.280  105.903    Y    Y      Y    lacv3p*
  Br3       2.095  2.095  1.140   78.918    Y    Y      Y    lav3p*
  C73       1.949  1.900  0.770   12.000    Y    Y      Y    6-31g*
  C74       1.949  1.900  0.770   12.000    Y    Y      Y    6-31g*
  C75       1.949  1.900  0.770   12.000    Y    Y      Y    6-31g*
  C76       1.949  1.900  0.770   12.000    Y    Y      Y    6-31g*
  C77       1.949  1.900  0.770   12.000    Y    Y      Y    6-31g*
  C78       1.949  1.900  0.770   12.000    Y    Y      Y    6-31g*
  F79       1.736  1.682  0.720   18.998    Y    Y      Y    6-31g*
  H80       1.597  1.150  0.320    1.008    Y    Y      Y    6-31g*
  H81       1.597  1.150  0.320    1.008    Y    Y      Y    6-31g*
  H82       1.597  1.150  0.320    1.008    Y    Y      Y    6-31g*
  H83       1.597  1.150  0.320    1.008    Y    Y      Y    6-31g*
  C3        1.949  1.900  0.770   12.000    Y    Y      Y    6-31g*
  C4        1.949  1.900  0.770   12.000    Y    Y      Y    6-31g*
  C5        1.949  1.900  0.770   12.000    Y    Y      Y    6-31g*
  C6        1.949  1.900  0.770   12.000    Y    Y      Y    6-31g*
  C7        1.949  1.900  0.770   12.000    Y    Y      Y    6-31g*
  C8        1.949  1.900  0.770   12.000    Y    Y      Y    6-31g*
  C9        1.949  1.900  0.770   12.000    Y    Y      Y    6-31g*
  C10       1.949  1.900  0.770   12.000    Y    Y      Y    6-31g*
  C11       1.949  1.900  0.770   12.000    Y    Y      Y    6-31g*
  C12       1.949  1.900  0.770   12.000    Y    Y      Y    6-31g*
  C13       1.949  1.900  0.770   12.000    Y    Y      Y    6-31g*
  C14       1.949  1.900  0.770   12.000    Y    Y      Y    6-31g*
  C15       1.949  1.900  0.770   12.000    Y    Y      Y    6-31g*
  C16       1.949  1.900  0.770   12.000    Y    Y      Y    6-31g*
  C17       1.949  1.900  0.770   12.000    Y    Y      Y    6-31g*
  C18       1.949  1.900  0.770   12.000    Y    Y      Y    6-31g*
  C19       1.949  1.900  0.770   12.000    Y    Y      Y    6-31g*
  C20       1.949  1.900  0.770   12.000    Y    Y      Y    6-31g*
  C21       1.949  1.900  0.770   12.000    Y    Y      Y    6-31g*
  C22       1.949  1.900  0.770   12.000    Y    Y      Y    6-31g*
  C23       1.949  1.900  0.770   12.000    Y    Y      Y    6-31g*
  C24       1.949  1.900  0.770   12.000    Y    Y      Y    6-31g*
  C25       1.949  1.900  0.770   12.000    Y    Y      Y    6-31g*
  C26       1.949  1.900  0.770   12.000    Y    Y      Y    6-31g*
  O27       1.702  1.600  0.730   15.995    Y    Y      Y    6-31g*
  C28       1.949  1.900  0.770   12.000    Y    Y      Y    6-31g*
  O29       1.702  1.600  0.730   15.995    Y    Y      Y    6-31g*
  C30       1.949  1.900  0.770   12.000    Y    Y      Y    6-31g*
  H31       1.597  1.150  0.320    1.008    Y    Y      Y    6-31g*
  H32       1.597  1.150  0.320    1.008    Y    Y      Y    6-31g*
  H33       1.597  1.150  0.320    1.008    Y    Y      Y    6-31g*
  H34       1.597  1.150  0.320    1.008    Y    Y      Y    6-31g*
  H35       1.597  1.150  0.320    1.008    Y    Y      Y    6-31g*
  H36       1.597  1.150  0.320    1.008    Y    Y      Y    6-31g*
  H37       1.597  1.150  0.320    1.008    Y    Y      Y    6-31g*
  H38       1.597  1.150  0.320    1.008    Y    Y      Y    6-31g*
  H39       1.597  1.150  0.320    1.008    Y    Y      Y    6-31g*
  H40       1.597  1.150  0.320    1.008    Y    Y      Y    6-31g*
  H41       1.597  1.150  0.320    1.008    Y    Y      Y    6-31g*
  H42       1.597  1.150  0.320    1.008    Y    Y      Y    6-31g*
  H43       1.597  1.150  0.320    1.008    Y    Y      Y    6-31g*
  H44       1.597  1.150  0.320    1.008    Y    Y      Y    6-31g*
  H45       1.597  1.150  0.320    1.008    Y    Y      Y    6-31g*
  H46       1.597  1.150  0.320    1.008    Y    Y      Y    6-31g*
  H47       1.597  1.150  0.320    1.008    Y    Y      Y    6-31g*
  H48       1.597  1.150  0.320    1.008    Y    Y      Y    6-31g*
  H49       1.597  1.150  0.320    1.008    Y    Y      Y    6-31g*
  H50       1.597  1.150  0.320    1.008    Y    Y      Y    6-31g*
  H51       1.597  1.150  0.320    1.008    Y    Y      Y    6-31g*
  H52       1.597  1.150  0.320    1.008    Y    Y      Y    6-31g*
  H53       1.597  1.150  0.320    1.008    Y    Y      Y    6-31g*
  H54       1.597  1.150  0.320    1.008    Y    Y      Y    6-31g*
  H55       1.597  1.150  0.320    1.008    Y    Y      Y    6-31g*
  H56       1.597  1.150  0.320    1.008    Y    Y      Y    6-31g*
  H57       1.597  1.150  0.320    1.008    Y    Y      Y    6-31g*
  H58       1.597  1.150  0.320    1.008    Y    Y      Y    6-31g*
  H59       1.597  1.150  0.320    1.008    Y    Y      Y    6-31g*
  H60       1.597  1.150  0.320    1.008    Y    Y      Y    6-31g*
  H61       1.597  1.150  0.320    1.008    Y    Y      Y    6-31g*
  H62       1.597  1.150  0.320    1.008    Y    Y      Y    6-31g*
  H63       1.597  1.150  0.320    1.008    Y    Y      Y    6-31g*
  H64       1.597  1.150  0.320    1.008    Y    Y      Y    6-31g*
  H65       1.597  1.150  0.320    1.008    Y    Y      Y    6-31g*
 
  atom      formal  2spin      esp    mulk    frag
  P1           0       0        Y    0.000       0
  Pd2          2       0        Y    0.000       0
  Br3         -1       0        Y    0.000       0
  C73         -1       0        Y    0.000       0
  
  end of program pre
   
 Time(pre)  user:        2.2  user+sys:        2.2  wallclock:        2.3
  
  start of program onee
  
  smallest eigenvalue of S:    3.974E-04
  number of canonical orbitals.....          623
  end of program onee
   
 Time(onee)  user:        2.7  user+sys:        2.7  wallclock:        2.8
  
  start of program hfig
  
  initial wavefunction generated automatically from atomic wavefunctions
  Only one state below 0.010000
  Skip d-d repulsion considerations 
 
  Irreducible     Total no   No of occupied orbitals 
  representation  orbitals   Shell_1  Shell_2    ...
  No Symm          623        148
  ------------------------
  Orbital occupation/shell    1.000
 
  end of program hfig
   
 Time(hfig)  user:        0.6  user+sys:        0.6  wallclock:        0.7
  
  start of program probe
  
  end of program probe
   
 Time(probe)  user:        0.4  user+sys:        0.4  wallclock:        0.3
  
  start of program grid
  
   grid     grid set  grid #  grid sym
  ------    --------  ------  --------
  coarse        0        0        1
  medium        2        1        1
  fine          0        0        1
  ultrafine     4        2        1
  charge       -1        3        1
  gradient      4        2        1
  density       0        0        1
  DFT-fine    -11        4        1
  DFT-med.    -10        5        1
  DFT-grad    -12        6        1
  DFT-der2     -8        7        1
  DFT-cphf     -9        8        1
  LMP2-enrg     4        2        1
  LMP2-grad     2        1        1
  DFT-cphf2   -15        9        1
  PBF-dens      0        0        1
  plotting      0        0        1
  Rel-grad    -17        0        1
  
  number of gridpoints: 
     atom        P1      Pd2      Br3      C73      C74      C75      C76
  grid # 1      609      358      486       79       93       94      100
  grid # 2      429      333      468      333      320      319      397
  grid # 3        8      293      228       35       29       30       35
  grid # 4     8714     8714     8714     8714     8714     8714     8714
  grid # 5     1192     1192     1192     1192     1192     1192     1192
  grid # 6     9132     9132     9132     5922     5922     5922     5922
  grid # 7    23034    32968    11582    13950    13950    13950    13950
  grid # 8      722     1150      694      748      748      748      748
  grid # 9      366     2198      358      394      394      394      394
   
  number of gridpoints: 
     atom       C77      C78      F79      H80      H81      H82      H83
  grid # 1       94       93      584      111      106       91      106
  grid # 2      323      319      566      455      425      401      436
  grid # 3       26       27      352      306      214       37      199
  grid # 4     8714     8714     8714     8714     8714     8714     8714
  grid # 5     1192     1192     1192     1192     1192     1192     1192
  grid # 6     5922     5922     5922     5922     5922     5922     5922
  grid # 7    13950    13950    23190    15206    15206    15206    15206
  grid # 8      748      748      770      786      786      786      786
  grid # 9      394      394      420      420      420      420      420
   
  number of gridpoints: 
     atom        C3       C4       C5       C6       C7       C8       C9
  grid # 1       82       80       95       92       92       92       92
  grid # 2      331      331      392      278      280      279      277
  grid # 3        6        6       15        6        6        6        6
  grid # 4     8714     8714     8714     8714     8714     8714     8714
  grid # 5     1192     1192     1192     1192     1192     1192     1192
  grid # 6     5922     5922     5922     5922     5922     5922     5922
  grid # 7    13950    13950    13950    13950    13950    13950    13950
  grid # 8      748      748      748      748      748      748      748
  grid # 9      394      394      394      394      394      394      394
   
  number of gridpoints: 
     atom       C10      C11      C12      C13      C14      C15      C16
  grid # 1       91       90       92       92       92       92       93
  grid # 2      281      282      282      282      282      283      322
  grid # 3        6        6        6        6        6        6       10
  grid # 4     8714     8714     8714     8714     8714     8714     8714
  grid # 5     1192     1192     1192     1192     1192     1192     1192
  grid # 6     5922     5922     5922     5922     5922     5922     5922
  grid # 7    13950    13950    13950    13950    13950    13950    13950
  grid # 8      748      748      748      748      748      748      748
  grid # 9      394      394      394      394      394      394      394
   
  number of gridpoints: 
     atom       C17      C18      C19      C20      C21      C22      C23
  grid # 1       95       97       95      100      100       90       95
  grid # 2      325      324      328      360      364      327      323
  grid # 3       28       44       29       14       10       14       26
  grid # 4     8714     8714     8714     8714     8714     8714     8714
  grid # 5     1192     1192     1192     1192     1192     1192     1192
  grid # 6     5922     5922     5922     5922     5922     5922     5922
  grid # 7    13950    13950    13950    13950    13950    13950    13950
  grid # 8      748      748      748      748      748      748      748
  grid # 9      394      394      394      394      394      394      394
   
  number of gridpoints: 
     atom       C24      C25      C26      O27      C28      O29      C30
  grid # 1       96       96       92      118       76      114       76
  grid # 2      328      324      348      457      225      421      228
  grid # 3       33       34       23       63        6       36        6
  grid # 4     8714     8714     8714     8714     8714     8714     8714
  grid # 5     1192     1192     1192     1192     1192     1192     1192
  grid # 6     5922     5922     5922     5922     5922     5922     5922
  grid # 7    13950    13950    13950    23382    13950    23382    13950
  grid # 8      748      748      748      774      748      774      748
  grid # 9      394      394      394      416      394      416      394
   
  number of gridpoints: 
     atom       H31      H32      H33      H34      H35      H36      H37
  grid # 1       95      107      107      108      112      110      112
  grid # 2      422      434      439      445      455      454      459
  grid # 3       31      151      162      183      326      269      331
  grid # 4     8714     8714     8714     8714     8714     8714     8714
  grid # 5     1192     1192     1192     1192     1192     1192     1192
  grid # 6     5922     5922     5922     5922     5922     5922     5922
  grid # 7    15206    15206    15206    15206    15206    15206    15206
  grid # 8      786      786      786      786      786      786      786
  grid # 9      420      420      420      420      420      420      420
   
  number of gridpoints: 
     atom       H38      H39      H40      H41      H42      H43      H44
  grid # 1      109      112      101      104      101      103       95
  grid # 2      444      456      434      433      421      427      388
  grid # 3      203      328      121      119       65      123       24
  grid # 4     8714     8714     8714     8714     8714     8714     8714
  grid # 5     1192     1192     1192     1192     1192     1192     1192
  grid # 6     5922     5922     5922     5922     5922     5922     5922
  grid # 7    15206    15206    15206    15206    15206    15206    15206
  grid # 8      786      786      786      786      786      786      786
  grid # 9      420      420      420      420      420      420      420
   
  number of gridpoints: 
     atom       H45      H46      H47      H48      H49      H50      H51
  grid # 1      112      110      112      108      112      110      104
  grid # 2      456      452      458      439      457      451      420
  grid # 3      320      250      332      142      316      259       60
  grid # 4     8714     8714     8714     8714     8714     8714     8714
  grid # 5     1192     1192     1192     1192     1192     1192     1192
  grid # 6     5922     5922     5922     5922     5922     5922     5922
  grid # 7    15206    15206    15206    15206    15206    15206    15206
  grid # 8      786      786      786      786      786      786      786
  grid # 9      420      420      420      420      420      420      420
   
  number of gridpoints: 
     atom       H52      H53      H54      H55      H56      H57      H58
  grid # 1      107      106      118      118      115      108      118
  grid # 2      435      428      467      469      456      446      466
  grid # 3      156      107      409      428      324      259      409
  grid # 4     8714     8714     8714     8714     8714     8714     8714
  grid # 5     1192     1192     1192     1192     1192     1192     1192
  grid # 6     5922     5922     5922     5922     5922     5922     5922
  grid # 7    15206    15206    15206    15206    15206    15206    15206
  grid # 8      786      786      786      786      786      786      786
  grid # 9      420      420      420      420      420      420      420
   
  number of gridpoints: 
     atom       H59      H60      H61      H62      H63      H64      H65
  grid # 1      110      107      104      111      108      108      113
  grid # 2      442      451      433      448      434      438      456
  grid # 3      229      279      142      324      213      254      359
  grid # 4     8714     8714     8714     8714     8714     8714     8714
  grid # 5     1192     1192     1192     1192     1192     1192     1192
  grid # 6     5922     5922     5922     5922     5922     5922     5922
  grid # 7    15206    15206    15206    15206    15206    15206    15206
  grid # 8      786      786      786      786      786      786      786
  grid # 9      420      420      420      420      420      420      420
   
  number of gridpoints: 
     atom     total
  grid # 1     9406
  grid # 2    29901
  grid # 3    10289
  grid # 4   670978
  grid # 5    91784
  grid # 6   465624
  grid # 7  1176972
  grid # 8    59474
  grid # 9    33162
   
  end of program grid
   
 Time(grid)  user:      181.6  user+sys:      181.6  wallclock:      182.1
  
  start of program rwr
  
  end of program rwr
   
 Time(rwr)  user:        8.6  user+sys:        8.6  wallclock:        9.6
  
  start of program scf
  
 number of electrons..........        296
 number of alpha electrons....        148
 number of beta electrons.....        148
 number of orbitals, total....        623
 number of doubly-occ'd orbs..        148
 number of open shell orbs....          0
 number of occupied orbitals..        148
 number of virtual orbitals...        475
 number of hamiltonians.......          1
 number of shells.............          1
 SCF type: DFT=Becke_3_Parameter/HF+Slater+Becke88+PW91+PW-GGAIIC (B3PW91-D3)
 Energy computed with NOPS off.
 Convergence Criterion:
    Energy (econv):       1.00E-05
    RMS density (dconv):  5.00E-06
  
       i  u  d  i  g                   
       t  p  i  c  r                                 RMS    maximum
       e  d  i  u  i                       energy  density   DIIS  
       r  t  s  t  d       total energy    change  change    error 
  
etot    1  N  N  5  M   -1969.13710254413           2.1E-03  2.1E-01
etot    2  Y  Y  6  M   -1972.42103518046  3.3E+00  3.1E-03  1.2E-01
etot    3  Y  Y  6  M   -1973.38274421354  9.6E-01  1.4E-03  6.0E-02
etot    4  N  Y  2  U   -1973.72511276680  3.4E-01  7.6E-04  3.7E-02
etot    5  Y  Y  6  M   -1973.83613238641  1.1E-01  4.7E-04  2.2E-02
etot    6  N  Y  2  U   -1973.85082027888  1.5E-02  5.5E-04  1.2E-02
etot    7  Y  Y  6  M   -1973.85200997105  1.2E-03  8.8E-05  5.5E-03
etot    8  Y  Y  6  M   -1973.85458411893  2.6E-03  3.6E-05  8.8E-04
etot    9  N  Y  2  U   -1973.85549451742  9.1E-04  1.2E-05  2.7E-04
etot   10  N  Y  2  U   -1973.85550216599  7.6E-06  5.3E-06  8.0E-05
etot   11  N  Y  2  U   -1973.85550368397  1.5E-06  2.1E-06  2.4E-05
etot   12  N  N  2  U   -1973.85550331670 -3.7E-07  0.0E+00  0.0E+00
 
  Computing the dispersion energy correction and its gradients...
  
  
 Energy components, in hartrees:
   (A)  Nuclear repulsion............    5282.99749707947
   (E)  Total one-electron terms.....  -13271.93911174685
   (F)    Electron-nuclear...........  -15145.38989264367
   (H)    Kinetic....................    1873.45078089681
   (I)  Total two-electron terms.....    6015.08611135069
   (J)    Coulomb....................    6269.16893921170
   (K)    Exchange+Correlation.......    -254.08282786101
   (L)  Electronic energy............   -7256.85300039616  (E+I)
   (N0) D3 correction................      -0.15343853759
   (N)  Total energy.................   -1974.00894185429  (A+L+N0)
   (O)  Gas phase energy.............   -1974.00894185429
  
 SCFE: SCF energy: DFT(b3pw91-d3)     -1974.00894185429 hartrees   iterations:  12
  
 
 HOMO energy:    -0.21108
 LUMO energy:    -0.08371
 
  Orbital energies (hartrees): 
   -77.10507   -24.68043   -19.18043   -19.16616   -10.24709   -10.24590
   -10.24237   -10.23644   -10.20593   -10.20551   -10.20495   -10.19395
   -10.19326   -10.19003   -10.18857   -10.18813   -10.18516   -10.18482
   -10.18185   -10.17838   -10.17301   -10.17211   -10.17104   -10.16896
   -10.16895   -10.16803   -10.16539   -10.16536   -10.16498   -10.16188
   -10.16164   -10.16049   -10.16032   -10.16010   -10.15624   -10.14611
    -6.60242    -4.76018    -4.75947    -4.75877    -3.34786    -2.08171
    -2.07899    -2.04736    -1.21209    -1.09635    -1.06230    -0.87604
    -0.85666    -0.85454    -0.83603    -0.82785    -0.79203    -0.77511
    -0.76408    -0.75422    -0.74881    -0.74281    -0.73890    -0.73807
    -0.73681    -0.73333    -0.71355    -0.69034    -0.67300    -0.66014
    -0.63415    -0.62410    -0.61407    -0.60993    -0.60367    -0.60175
    -0.59868    -0.59253    -0.59095    -0.56421    -0.56123    -0.55146
    -0.54497    -0.54164    -0.51564    -0.50888    -0.49791    -0.49097
    -0.48451    -0.47915    -0.47550    -0.47326    -0.46879    -0.46763
    -0.45776    -0.45461    -0.45353    -0.45091    -0.44924    -0.44486
    -0.43690    -0.43500    -0.43130    -0.42834    -0.42609    -0.42153
    -0.41602    -0.40971    -0.40763    -0.39893    -0.39293    -0.39273
    -0.38094    -0.37937    -0.37774    -0.37438    -0.37287    -0.37094
    -0.36794    -0.36642    -0.36165    -0.35798    -0.35721    -0.35098
    -0.34575    -0.34430    -0.33989    -0.33792    -0.33562    -0.32916
    -0.32511    -0.31879    -0.31701    -0.31447    -0.30415    -0.30286
    -0.29738    -0.29535    -0.28961    -0.28480    -0.27736    -0.27387
    -0.26177    -0.25922    -0.25002    -0.24890    -0.24334    -0.23480
    -0.22980    -0.22016    -0.21299    -0.21108    -0.08371    -0.03599
    -0.02367    -0.01032    -0.00350     0.00392     0.01114     0.01813
     0.03797     0.05156
 
  end of program scf
   
 Time(scf)  user:      281.3  user+sys:      281.3  wallclock:      285.6
  
  start of program der1a
  
  end of program der1a
   
 Time(der1a)  user:        9.5  user+sys:        9.5  wallclock:        9.6
  
  start of program rwr
  
  end of program rwr
   
 Time(rwr)  user:       10.1  user+sys:       10.1  wallclock:       12.8
  
  start of program der1b
  
   
  forces (hartrees/bohr) : total     
   
 atom  label           x              y              z
 ---- --------   -------------  -------------  -------------
    1 P1         -7.344403E-03  -3.332016E-03  -2.744348E-02
    2 Pd2         1.400897E-02   5.359436E-03  -7.743644E-03
    3 Br3         1.390679E-03  -4.498428E-03   2.293627E-02
    4 C73        -4.760506E-03   2.403457E-04  -5.929232E-04
    5 C74        -4.723333E-04  -4.034697E-03   5.501955E-03
    6 C75        -9.593807E-03   3.626646E-03   1.502731E-02
    7 C76        -5.405008E-03  -3.112872E-03  -4.342010E-03
    8 C77         4.615991E-03  -2.972562E-02   7.795827E-03
    9 C78         8.396497E-04  -1.084814E-03   1.524852E-03
   10 F79         5.163997E-03  -2.933844E-04  -1.454411E-04
   11 H80        -3.982767E-04   3.014143E-05   4.449861E-04
   12 H81        -9.103738E-03   2.697951E-03   1.513244E-02
   13 H82        -1.798186E-02  -5.494890E-02   8.468433E-03
   14 H83        -1.030207E-03  -3.996122E-03  -7.027622E-04
   15 C3          6.496676E-03   4.311839E-04   3.184178E-03
   16 C4          1.497818E-04  -2.026468E-03   1.621788E-04
   17 C5         -2.150835E-03   6.494803E-03   4.924632E-03
   18 C6         -5.754311E-03   2.809410E-04  -2.626832E-03
   19 C7          1.599093E-03   4.729206E-04   2.434619E-03
   20 C8         -8.533617E-04  -1.254606E-03  -1.291141E-03
   21 C9          1.245660E-03   1.348003E-03   1.009067E-03
   22 C10        -2.141334E-03  -1.609012E-03  -1.503280E-03
   23 C11         5.860370E-03  -2.226083E-03  -4.406041E-03
   24 C12         6.597777E-04  -3.872676E-04  -1.155866E-03
   25 C13        -5.814714E-04   2.410012E-04   1.177727E-03
   26 C14        -2.364738E-04  -6.549920E-04  -3.121603E-04
   27 C15         1.076744E-03   3.941329E-03   2.115681E-03
   28 C16         2.335590E-04  -8.856728E-05   1.413152E-03
   29 C17         1.557664E-03  -5.362172E-04   4.867520E-03
   30 C18         1.525640E-03  -3.981142E-03   3.376837E-03
   31 C19         4.827671E-04  -3.089127E-03   4.981774E-04
   32 C20        -9.199707E-04  -2.049732E-04  -7.156430E-03
   33 C21        -2.289600E-03   2.143168E-04   4.765011E-03
   34 C22         2.774163E-02   2.826191E-02  -1.551590E-03
   35 C23        -5.586658E-04  -3.399667E-03  -3.354853E-03
   36 C24         1.124798E-03  -2.722432E-03  -4.433964E-03
   37 C25        -5.231158E-03  -2.529783E-03   5.796997E-04
   38 C26         6.646128E-03  -3.546737E-03  -7.928864E-03
   39 O27        -7.935710E-03   1.967252E-03   1.581797E-02
   40 C28         3.541798E-03   3.127926E-03  -1.555429E-03
   41 O29        -7.522196E-04   7.320977E-02  -1.200323E-02
   42 C30        -1.106011E-03   3.351314E-03  -1.650437E-03
   43 H31        -4.503830E-03  -3.353535E-03  -8.359010E-03
   44 H32         3.569367E-03   3.264636E-03   3.745655E-03
   45 H33         2.120798E-03  -5.466721E-03   1.440163E-03
   46 H34        -3.649276E-03  -3.832706E-03  -2.759578E-03
   47 H35        -2.008107E-03  -1.448896E-03   6.628983E-03
   48 H36         2.773877E-03   3.991811E-03   3.795157E-03
   49 H37        -6.597715E-03   9.045030E-04   1.932470E-03
   50 H38        -3.605289E-03  -2.996213E-03  -3.443385E-03
   51 H39        -2.475724E-03   6.144943E-03  -1.013404E-03
   52 H40         8.622004E-04  -2.266154E-04  -6.531093E-03
   53 H41         3.210120E-03   4.214089E-03   3.191388E-03
   54 H42        -1.431532E-03   2.980481E-03   6.534313E-03
   55 H43        -4.905020E-03   1.489478E-03  -2.001927E-03
   56 H44         1.218958E-02  -1.003039E-02  -2.820848E-02
   57 H45         1.685199E-04   5.006668E-03  -3.588611E-03
   58 H46        -2.681197E-03   2.152127E-03   5.722477E-03
   59 H47         3.638378E-03   5.250410E-03   3.171442E-03
   60 H48         2.813961E-03  -8.603771E-04  -5.699188E-03
   61 H49         6.501932E-03  -1.523346E-03   1.719547E-03
   62 H50        -2.011958E-03   1.769045E-03   6.233739E-03
   63 H51         9.531015E-04  -1.792916E-03  -9.636089E-03
   64 H52         2.301245E-04  -5.268332E-03   3.942410E-03
   65 H53        -2.204313E-04   5.859283E-03   2.621661E-03
   66 H54         1.809269E-03   5.857168E-04   6.834600E-03
   67 H55         1.871653E-03  -5.487263E-03   3.763208E-03
   68 H56         1.296709E-04  -5.726546E-03  -2.684045E-03
   69 H57         5.657498E-03   6.837417E-04  -4.155342E-03
   70 H58        -1.611990E-03  -6.194988E-04  -6.008508E-03
   71 H59        -6.442355E-03   6.514281E-04  -2.136465E-03
   72 H60        -3.861339E-03   1.131722E-03   5.458722E-03
   73 H61        -1.385978E-05   6.926362E-03  -6.552622E-03
   74 H62        -2.822327E-03  -5.385311E-03  -3.356000E-03
   75 H63        -4.203588E-03   2.677073E-03  -6.077457E-03
   76 H64         7.111836E-03   3.947377E-03   3.199191E-03
   77 H65         1.906011E-03  -8.978291E-03   2.144812E-03
 -------------   -------------  -------------  -------------
     total        3.832473E-03  -1.352798E-03   1.126877E-03
   
  end of program der1b
   
 Time(der1b)  user:       94.9  user+sys:       94.9  wallclock:       95.5
  
  start of program geopt
  
 ----------------------------------------------------------------------------
  Geometry optimization step   1
  Total energy:     -1974.00894185429 hartrees
 ----------------------------------------------------------------------------
  
  
  Level shifts adjusted to satisfy step-size constraints
   Step size:    0.3006071
   Cos(theta):   0.5172862
   Final level shift:  -4.6285243E-01
  
  gradient maximum:        3.3130E-01 .  (  2.2500E-03 )
  gradient rms:            5.6785E-02 .  (  1.5000E-03 )
  displacement maximum:    7.8508E-02 .  (  9.0000E-03 )
  displacement rms:        1.6205E-02 .  (  6.0000E-03 )
  
  predicted energy change:  -8.7565E-02
  step size:     0.26529
  trust radius:  0.30000
  
  molecular structure not yet converged...
  
  center of mass moved by:
     x:    -8.8829E-02     y:    -5.9095E-03     z:     1.2633E-01
  
  new geometry: 
                                   angstroms
  atom               x                 y                 z
  P1           -0.0012559292     -0.0339970897     -0.0196852042 
  Pd2          -0.0818616797      0.0298215014      2.2609403969 
  Br3           2.4582328916      0.0472694120      2.6148066112 
  C73          -4.8378520170     -0.2490108288      2.2173523379 
  C74          -4.0877663468     -1.3801545201      2.4803008794 
  C75          -2.6972076540     -1.2699338662      2.5080683675 
  C76          -2.0596738364     -0.0361969495      2.2962594587 
  C77          -2.8560752276      1.0880266388      2.0404156322 
  C78          -4.2468049749      0.9837257370      1.9993787299 
  F79          -6.1836698400     -0.3513545827      2.1715305205 
  H80          -4.5891236198     -2.3285620861      2.6500496639 
  H81          -2.1117793377     -2.1556509849      2.7147266748 
  H82          -2.4266529510      2.0706293208      1.8267511533 
  H83          -4.8747549990      1.8416261863      1.7877684487 
  C3            1.7320557996     -0.3884430098     -0.7217046728 
  C4           -1.0649924124     -1.3650055052     -0.8854391086 
  C5           -0.4690879932      1.5443314133     -0.9119633373 
  C6            1.9824644207     -0.0029999764     -2.1908599635 
  C7            3.4691549134     -0.1962902217     -2.5508784096 
  C8            3.9505465957     -1.6271838954     -2.2709925417 
  C9            3.6557511452     -2.0323404365     -0.8197208424 
  C10           2.1679712882     -1.8486777837     -0.4774738071 
  C11          -1.0780230997     -2.6778641272     -0.0745044022 
  C12          -1.7948920122     -3.7987249239     -0.8485609957 
  C13          -3.2281734478     -3.3980761959     -1.2324457949 
  C14          -3.2353285871     -2.0667125542     -1.9986891029 
  C15          -2.5203562176     -0.9538052755     -1.2111031391 
  C16          -0.8140440260      1.4166046202     -2.2746381851 
  C17          -1.1723002843      2.5088575309     -3.0622996517 
  C18          -1.1865700841      3.7861833789     -2.4998104757 
  C19          -0.8251779259      3.9403304055     -1.1651444901 
  C20          -0.4654514685      2.8488174375     -0.3517395676 
  C21          -0.0342440014      3.1931839084      1.0338821912 
  C22          -0.9533786839      3.6574592109      1.9953069305 
  C23          -0.5196400624      4.0388502454      3.2713685739 
  C24           0.8435927815      3.9929909446      3.5644113432 
  C25           1.7858401966      3.6047219682      2.6133876235 
  C26           1.3403457320      3.2048817471      1.3455410096 
  O27           2.1634138471      2.8578570853      0.3077553273 
  C28           3.5644042719      2.7991337327      0.5678713361 
  O29          -2.2427764113      3.7944235743      1.5590022655 
  C30          -3.1012646142      4.6378600225      2.3243560345 
  H31           2.3453698804      0.2825912387     -0.0991881599 
  H32           1.3662009965     -0.6329872759     -2.8618692838 
  H33           1.6946826107      1.0421751178     -2.3751624599 
  H34           4.0720549029      0.5136946965     -1.9541995993 
  H35           3.6302940076      0.0667388794     -3.6114188828 
  H36           3.4286609618     -2.3234150809     -2.9557439717 
  H37           5.0289510170     -1.7194582401     -2.4907055341 
  H38           4.2531895803     -1.4124106782     -0.1272050214 
  H39           3.9538024496     -3.0805106999     -0.6434691697 
  H40           1.9955944516     -2.1196486661      0.5743195078 
  H41           1.5694082758     -2.5269525764     -1.1144330432 
  H42          -0.5231801034     -1.5956291750     -1.8259288303 
  H43          -0.0585573553     -2.9975085304      0.1858853344 
  H44          -1.5988205295     -2.4787080366      0.8672125809 
  H45          -1.8010668612     -4.7204586617     -0.2410808590 
  H46          -1.2250501650     -4.0328022116     -1.7692377979 
  H47          -3.7064841833     -4.1930692988     -1.8319034981 
  H48          -3.8289267531     -3.2846034667     -0.3124332762 
  H49          -4.2714319708     -1.7546444749     -2.2186065218 
  H50          -2.7354379400     -2.2069488482     -2.9777647640 
  H51          -3.0424569851     -0.7402275143     -0.2666545889 
  H52          -2.5555023504     -0.0249768647     -1.7976425327 
  H53          -0.7875026752      0.4311980090     -2.7427435866 
  H54          -1.4334082380      2.3573655813     -4.1129175774 
  H55          -1.4702165819      4.6561277669     -3.0976449835 
  H56          -0.8191047095      4.9347326903     -0.7131627722 
  H57          -1.2312547942      4.3443237516      4.0365436386 
  H58           1.1824431975      4.2585658155      4.5681094398 
  H59           2.8390670198      3.5526112638      2.8810709390 
  H60           4.0228312246      2.4770481992     -0.3767338458 
  H61           3.7847740869      2.0660422965      1.3583519391 
  H62           3.9623641928      3.7939780756      0.8407285276 
  H63          -3.1529983329      4.3029782771      3.3719152539 
  H64          -4.0920499658      4.5474470595      1.8626540631 
  H65          -2.7756028007      5.6930591190      2.2783617512 
   
 
  bond lengths (angstroms):
 
 P1      -Pd2     :   2.282942      P1      -C3      :   1.903374
 P1      -C4      :   1.911190      P1      -C5      :   1.872471
 Pd2     -Br3     :   2.564684      Pd2     -C76     :   1.979229
 C73     -C74     :   1.382482      C73     -C78     :   1.384373
 C73     -F79     :   1.350481      C74     -C75     :   1.395196
 C74     -H80     :   1.086117      C75     -C76     :   1.404784
 C75     -H81     :   1.081632      C76     -C77     :   1.401282
 C77     -C78     :   1.395239      C77     -H82     :   1.093419
 C78     -H83     :   1.084017      C3      -C6      :   1.539379
 C3      -C10     :   1.543359      C3      -H31     :   1.101802
 C4      -C11     :   1.543173      C4      -C15     :   1.547006
 C4      -H42     :   1.109626      C5      -C16     :   1.411450
 C5      -C20     :   1.419700      C6      -C7      :   1.541825
 C6      -H32     :   1.107663      C6      -H33     :   1.099626
 C7      -C8      :   1.535425      C7      -H34     :   1.106161
 C7      -H35     :   1.104489      C8      -C9      :   1.535332
 C8      -H36     :   1.107243      C8      -H37     :   1.104420
 C9      -C10     :   1.537646      C9      -H38     :   1.104909
 C9      -H39     :   1.103884      C10     -H40     :   1.099731
 C10     -H41     :   1.106369      C11     -C12     :   1.539283
 C11     -H43     :   1.099675      C11     -H44     :   1.094406
 C12     -C13     :   1.536939      C12     -H45     :   1.103931
 C12     -H46     :   1.107771      C13     -C14     :   1.536134
 C13     -H47     :   1.104602      C13     -H48     :   1.104628
 C14     -C15     :   1.539493      C14     -H49     :   1.104201
 C14     -H50     :   1.108218      C15     -H51     :   1.100085
 C15     -H52     :   1.099084      C16     -C17     :   1.393476
 C16     -H53     :   1.091262      C17     -C18     :   1.395765
 C17     -H54     :   1.093126      C18     -C19     :   1.391294
 C18     -H55     :   1.093007      C19     -C20     :   1.407988
 C19     -H56     :   1.092319      C20     -C21     :   1.491468
 C21     -C22     :   1.408793      C21     -C26     :   1.409527
 C22     -C23     :   1.400686      C22     -O29     :   1.368089
 C23     -C24     :   1.395128      C23     -H57     :   1.088670
 C24     -C25     :   1.393926      C24     -H58     :   1.092135
 C25     -C26     :   1.402060      C25     -H59     :   1.087960
 C26     -O27     :   1.369258      O27     -C28     :   1.426143
 C28     -H60     :   1.098259      C28     -H61     :   1.100384
 C28     -H62     :   1.105685      O29     -C30     :   1.426238
 C30     -H63     :   1.101001      C30     -H64     :   1.096813
 C30     -H65     :   1.105267
 
  bond angles:
 
 C3      -P1      -Pd2     : 113.942122  C4      -P1      -Pd2     : 116.894493
 C4      -P1      -C3      : 102.127527  C5      -P1      -Pd2     : 116.337390
 C5      -P1      -C3      : 102.048231  C5      -P1      -C4      : 103.421082
 Br3     -Pd2     -P1      :  95.915256  C76     -Pd2     -P1      :  92.990873
 C76     -Pd2     -Br3     : 170.919645  C78     -C73     -C74     : 121.794957
 F79     -C73     -C74     : 119.021569  F79     -C73     -C78     : 119.183464
 C75     -C74     -C73     : 118.679438  H80     -C74     -C73     : 119.586276
 H80     -C74     -C75     : 121.731801  C76     -C75     -C74     : 121.245225
 H81     -C75     -C74     : 118.591244  H81     -C75     -C76     : 120.154843
 C75     -C76     -Pd2     : 119.044604  C77     -C76     -Pd2     : 122.541637
 C77     -C76     -C75     : 118.306990  C78     -C77     -C76     : 120.790243
 H82     -C77     -C76     : 122.238507  H82     -C77     -C78     : 116.929615
 C77     -C78     -C73     : 119.176254  H83     -C78     -C73     : 119.218348
 H83     -C78     -C77     : 121.600154  C6      -C3      -P1      : 116.969157
 C10     -C3      -P1      : 112.026436  C10     -C3      -C6      : 109.997870
 H31     -C3      -P1      : 100.667505  H31     -C3      -C6      : 107.228328
 H31     -C3      -C10     : 109.244491  C11     -C4      -P1      : 111.047528
 C15     -C4      -P1      : 115.712720  C15     -C4      -C11     : 109.196778
 H42     -C4      -P1      : 104.887314  H42     -C4      -C11     : 105.825116
 H42     -C4      -C15     : 109.644213  C16     -C5      -P1      : 116.413203
 C20     -C5      -P1      : 125.861418  C20     -C5      -C16     : 117.693802
 C7      -C6      -C3      : 110.384072  H32     -C6      -C3      : 110.196501
 H32     -C6      -C7      : 108.887708  H33     -C6      -C3      : 110.816560
 H33     -C6      -C7      : 109.412769  H33     -C6      -H32     : 107.064734
 C8      -C7      -C6      : 112.121871  H34     -C7      -C6      : 108.610278
 H34     -C7      -C8      : 109.204417  H35     -C7      -C6      : 109.574541
 H35     -C7      -C8      : 110.562164  H35     -C7      -H34     : 106.593482
 C9      -C8      -C7      : 110.979224  H36     -C8      -C7      : 108.994809
 H36     -C8      -C9      : 109.155735  H37     -C8      -C7      : 110.348904
 H37     -C8      -C9      : 110.700575  H37     -C8      -H36     : 106.539058
 C10     -C9      -C8      : 111.386237  H38     -C9      -C8      : 109.911392
 H38     -C9      -C10     : 108.460888  H39     -C9      -C8      : 110.465943
 H39     -C9      -C10     : 109.823502  H39     -C9      -H38     : 106.659612
 C9      -C10     -C3      : 110.553077  H40     -C10     -C3      : 109.889249
 H40     -C10     -C9      : 109.579043  H41     -C10     -C3      : 109.641356
 H41     -C10     -C9      : 108.790022  H41     -C10     -H40     : 108.346693
 C12     -C11     -C4      : 111.049187  H43     -C11     -C4      : 111.339478
 H43     -C11     -C12     : 109.825799  H44     -C11     -C4      : 107.540711
 H44     -C11     -C12     : 110.096221  H44     -C11     -H43     : 106.876285
 C13     -C12     -C11     : 111.721129  H45     -C12     -C11     : 109.504016
 H45     -C12     -C13     : 110.480371  H46     -C12     -C11     : 109.404612
 H46     -C12     -C13     : 109.099245  H46     -C12     -H45     : 106.486874
 C14     -C13     -C12     : 110.785085  H47     -C13     -C12     : 110.594233
 H47     -C13     -C14     : 110.551717  H48     -C13     -C12     : 109.021424
 H48     -C13     -C14     : 108.897850  H48     -C13     -H47     : 106.883539
 C15     -C14     -C13     : 111.665676  H49     -C14     -C13     : 110.405454
 H49     -C14     -C15     : 109.472991  H50     -C14     -C13     : 109.202666
 H50     -C14     -C15     : 109.509354  H50     -C14     -H49     : 106.443249
 C14     -C15     -C4      : 110.637472  H51     -C15     -C4      : 108.503396
 H51     -C15     -C14     : 111.047711  H52     -C15     -C4      : 111.534103
 H52     -C15     -C14     : 108.847835  H52     -C15     -H51     : 106.195314
 C17     -C16     -C5      : 122.521651  H53     -C16     -C5      : 119.334359
 H53     -C16     -C17     : 118.137178  C18     -C17     -C16     : 119.482330
 H54     -C17     -C16     : 119.739082  H54     -C17     -C18     : 120.777789
 C19     -C18     -C17     : 119.034184  H55     -C18     -C17     : 120.704373
 H55     -C18     -C19     : 120.260096  C20     -C19     -C18     : 122.321324
 H56     -C19     -C18     : 119.950182  H56     -C19     -C20     : 117.727776
 C19     -C20     -C5      : 118.926957  C21     -C20     -C5      : 125.415156
 C21     -C20     -C19     : 115.567968  C22     -C21     -C20     : 121.431466
 C26     -C21     -C20     : 119.293506  C26     -C21     -C22     : 118.857056
 C23     -C22     -C21     : 120.625771  O29     -C22     -C21     : 115.483463
 O29     -C22     -C23     : 123.719706  C24     -C23     -C22     : 119.011841
 H57     -C23     -C22     : 120.951214  H57     -C23     -C24     : 120.020020
 C25     -C24     -C23     : 121.759954  H58     -C24     -C23     : 119.223404
 H58     -C24     -C25     : 119.013842  C26     -C25     -C24     : 118.790228
 H59     -C25     -C24     : 119.990944  H59     -C25     -C26     : 121.092977
 C25     -C26     -C21     : 120.808942  O27     -C26     -C21     : 114.615102
 O27     -C26     -C25     : 124.516624  C28     -O27     -C26     : 117.561597
 H60     -C28     -O27     : 105.381980  H61     -C28     -O27     : 110.805122
 H61     -C28     -H60     : 109.809235  H62     -C28     -O27     : 111.194513
 H62     -C28     -H60     : 109.019219  H62     -C28     -H61     : 110.491736
 C30     -O29     -C22     : 117.088713  H63     -C30     -O29     : 111.038059
 H64     -C30     -O29     : 105.610612  H64     -C30     -H63     : 109.450834
 H65     -C30     -O29     : 111.401265  H65     -C30     -H63     : 110.109866
 H65     -C30     -H64     : 109.107600
 
  torsional angles:
 
 P1      -Pd2     -C76     -C75     :  97.686004
 P1      -Pd2     -C76     -C77     : -78.491165
 P1      -C3      -C6      -C7      : 173.217359
 P1      -C3      -C6      -H32     : -66.474266
 P1      -C3      -C6      -H33     :  51.844165
 P1      -C3      -C10     -C9      :-169.617106
 P1      -C3      -C10     -H40     : -48.537001
 P1      -C3      -C10     -H41     :  70.444759
 P1      -C4      -C11     -C12     :-173.340951
 P1      -C4      -C11     -H43     : -50.622436
 P1      -C4      -C11     -H44     :  66.144243
 P1      -C4      -C15     -C14     : 175.681752
 P1      -C4      -C15     -H51     : -62.263214
 P1      -C4      -C15     -H52     :  54.367850
 P1      -C5      -C16     -C17     :-179.491431
 P1      -C5      -C16     -H53     :  -0.459203
 P1      -C5      -C20     -C19     : 178.989487
 P1      -C5      -C20     -C21     :   2.599243
 Pd2     -P1      -C3      -C6      :-160.558000
 Pd2     -P1      -C3      -C10     :  71.141436
 Pd2     -P1      -C3      -H31     : -44.835500
 Pd2     -P1      -C4      -C11     : -37.091148
 Pd2     -P1      -C4      -C15     :  88.102691
 Pd2     -P1      -C4      -H42     :-150.960080
 Pd2     -P1      -C5      -C16     :-161.464632
 Pd2     -P1      -C5      -C20     :  20.636308
 Pd2     -C76     -C75     -C74     :-177.006314
 Pd2     -C76     -C75     -H81     :   4.081144
 Pd2     -C76     -C77     -C78     : 176.299867
 Pd2     -C76     -C77     -H82     :  -1.280636
 Br3     -Pd2     -P1      -C3      :  11.261326
 Br3     -Pd2     -P1      -C4      : 130.139858
 Br3     -Pd2     -P1      -C5      :-107.075096
 Br3     -Pd2     -C76     -C75     : -71.071788
 Br3     -Pd2     -C76     -C77     : 112.751042
 C73     -C74     -C75     -C76     :   1.021777
 C73     -C74     -C75     -H81     : 179.950898
 C73     -C78     -C77     -C76     :   0.102002
 C73     -C78     -C77     -H82     : 177.806670
 C74     -C73     -C78     -C77     :   0.267697
 C74     -C73     -C78     -H83     : 179.448094
 C74     -C75     -C76     -C77     :  -0.666444
 C75     -C74     -C73     -C78     :  -0.820099
 C75     -C74     -C73     -F79     : 179.143357
 C75     -C76     -C77     -C78     :   0.095835
 C75     -C76     -C77     -H82     :-177.484668
 C76     -Pd2     -P1      -C3      :-166.966077
 C76     -Pd2     -P1      -C4      : -48.087545
 C76     -Pd2     -P1      -C5      :  74.697501
 C76     -C75     -C74     -H80     :-179.554207
 C76     -C77     -C78     -H83     :-179.058146
 C77     -C76     -C75     -H81     :-179.578986
 C77     -C78     -C73     -F79     :-179.695701
 C78     -C73     -C74     -H80     : 179.743238
 F79     -C73     -C74     -H80     :  -0.293307
 F79     -C73     -C78     -H83     :  -0.515304
 H80     -C74     -C75     -H81     :  -0.625086
 H82     -C77     -C78     -H83     :  -1.353478
 C3      -P1      -C4      -C11     :  87.966964
 C3      -P1      -C4      -C15     :-146.839197
 C3      -P1      -C4      -H42     : -25.901968
 C3      -P1      -C5      -C16     :  73.877357
 C3      -P1      -C5      -C20     :-104.021703
 C3      -C6      -C7      -C8      :  55.849461
 C3      -C6      -C7      -H34     : -64.917939
 C3      -C6      -C7      -H35     : 179.006416
 C3      -C10     -C9      -C8      : -57.141697
 C3      -C10     -C9      -H38     :  63.944702
 C3      -C10     -C9      -H39     :-179.848011
 C4      -P1      -C3      -C6      :  72.454146
 C4      -P1      -C3      -C10     : -55.846419
 C4      -P1      -C3      -H31     :-171.823355
 C4      -P1      -C5      -C16     : -31.893001
 C4      -P1      -C5      -C20     : 150.207939
 C4      -C11     -C12     -C13     : -56.535975
 C4      -C11     -C12     -H45     :-179.264515
 C4      -C11     -C12     -H46     :  64.378122
 C4      -C15     -C14     -C13     :  57.297940
 C4      -C15     -C14     -H49     : 179.872159
 C4      -C15     -C14     -H50     : -63.780979
 C5      -P1      -C3      -C6      : -34.320939
 C5      -P1      -C3      -C10     :-162.621504
 C5      -P1      -C3      -H31     :  81.401560
 C5      -P1      -C4      -C11     :-166.322931
 C5      -P1      -C4      -C15     : -41.129092
 C5      -P1      -C4      -H42     :  79.808137
 C5      -C16     -C17     -C18     :   0.459666
 C5      -C16     -C17     -H54     :-179.862892
 C5      -C20     -C19     -C18     :   0.096400
 C5      -C20     -C19     -H56     : 179.787477
 C5      -C20     -C21     -C22     :-112.689980
 C5      -C20     -C21     -C26     :  74.815864
 C6      -C3      -C10     -C9      :  58.482308
 C6      -C3      -C10     -H40     : 179.562413
 C6      -C3      -C10     -H41     : -61.455827
 C6      -C7      -C8      -C9      : -54.066885
 C6      -C7      -C8      -H36     :  66.175853
 C6      -C7      -C8      -H37     :-177.159430
 C7      -C6      -C3      -C10     : -57.512379
 C7      -C6      -C3      -H31     :  61.178020
 C7      -C8      -C9      -C10     :  54.517962
 C7      -C8      -C9      -H38     : -65.717023
 C7      -C8      -C9      -H39     : 176.854653
 C8      -C7      -C6      -H32     : -65.241340
 C8      -C7      -C6      -H33     : 178.052263
 C8      -C9      -C10     -H40     :-178.405746
 C8      -C9      -C10     -H41     :  63.306414
 C9      -C8      -C7      -H34     :  66.356342
 C9      -C8      -C7      -H35     :-176.665645
 C9      -C10     -C3      -H31     : -58.962183
 C10     -C3      -C6      -H32     :  62.795995
 C10     -C3      -C6      -H33     :-178.885573
 C10     -C9      -C8      -H36     : -65.629144
 C10     -C9      -C8      -H37     : 177.407703
 C11     -C4      -C15     -C14     : -58.179514
 C11     -C4      -C15     -H51     :  63.875520
 C11     -C4      -C15     -H52     :-179.493416
 C11     -C12     -C13     -C14     :  54.088326
 C11     -C12     -C13     -H47     : 177.027630
 C11     -C12     -C13     -H48     : -65.732593
 C12     -C11     -C4      -C15     :  57.886639
 C12     -C11     -C4      -H42     : -60.062254
 C12     -C13     -C14     -C15     : -54.589960
 C12     -C13     -C14     -H49     :-176.629222
 C12     -C13     -C14     -H50     :  66.667078
 C13     -C12     -C11     -H43     : 179.875286
 C13     -C12     -C11     -H44     :  62.455117
 C13     -C14     -C15     -H51     : -63.252542
 C13     -C14     -C15     -H52     :-179.813246
 C14     -C13     -C12     -H45     : 176.258192
 C14     -C13     -C12     -H46     : -67.003247
 C14     -C15     -C4      -H42     :  57.344239
 C15     -C4      -C11     -H43     :-179.394845
 C15     -C4      -C11     -H44     : -62.628167
 C15     -C14     -C13     -H47     :-177.553882
 C15     -C14     -C13     -H48     :  65.304912
 C16     -C5      -C20     -C19     :   1.114558
 C16     -C5      -C20     -C21     :-175.275686
 C16     -C17     -C18     -C19     :   0.792052
 C16     -C17     -C18     -H55     :-179.629047
 C17     -C16     -C5      -C20     :  -1.414327
 C17     -C18     -C19     -C20     :  -1.074034
 C17     -C18     -C19     -H56     : 179.241559
 C18     -C17     -C16     -H53     :-178.583588
 C18     -C19     -C20     -C21     : 176.835579
 C19     -C18     -C17     -H54     :-178.881961
 C19     -C20     -C21     -C22     :  70.812250
 C19     -C20     -C21     -C26     :-101.681906
 C20     -C5      -C16     -H53     : 177.617902
 C20     -C19     -C18     -H55     : 179.345148
 C20     -C21     -C22     -C23     :-176.819176
 C20     -C21     -C22     -O29     :  -1.399495
 C20     -C21     -C26     -C25     : 175.983051
 C20     -C21     -C26     -O27     :  -1.338659
 C21     -C20     -C19     -H56     :  -3.473344
 C21     -C22     -C23     -C24     :   2.022713
 C21     -C22     -C23     -H57     :-176.480959
 C21     -C22     -O29     -C30     :-160.566219
 C21     -C26     -C25     -C24     :  -0.043397
 C21     -C26     -C25     -H59     : 175.877416
 C21     -C26     -O27     -C28     :-177.651464
 C22     -C21     -C26     -C25     :   3.294468
 C22     -C21     -C26     -O27     :-174.027242
 C22     -C23     -C24     -C25     :   1.351068
 C22     -C23     -C24     -H58     :-178.033938
 C22     -O29     -C30     -H63     : -56.958743
 C22     -O29     -C30     -H64     :-175.507806
 C22     -O29     -C30     -H65     :  66.161733
 C23     -C22     -C21     -C26     :  -4.293114
 C23     -C22     -O29     -C30     :  14.694788
 C23     -C24     -C25     -C26     :  -2.330344
 C23     -C24     -C25     -H59     :-178.297267
 C24     -C23     -C22     -O29     :-173.005339
 C24     -C25     -C26     -O27     : 177.001251
 C25     -C24     -C23     -H57     : 179.868992
 C25     -C26     -O27     -C28     :   5.140416
 C26     -C21     -C22     -O29     : 171.126567
 C26     -C25     -C24     -H58     : 177.055914
 C26     -O27     -C28     -H60     : 178.301433
 C26     -O27     -C28     -H61     :  59.581477
 C26     -O27     -C28     -H62     : -63.716809
 O27     -C26     -C25     -H59     :  -7.077936
 O29     -C22     -C23     -H57     :   8.490988
 H31     -C3      -C6      -H32     :-178.513606
[...]
    H57      Z    -0.13653 -0.00075  0.00033 -0.00073  0.00041  0.00158
    H58      X     0.26433  0.00087  0.00019  0.00044 -0.00019  0.00052
    H58      Y     0.14884  0.00046  0.00011  0.00022 -0.00010  0.00026
    H58      Z     0.87397  0.00284  0.00060  0.00140 -0.00060  0.00165
    H59      X    -0.11918 -0.00023 -0.00021 -0.00010 -0.00001  0.00129
    H59      Y     0.01740  0.00004  0.00006  0.00001  0.00001 -0.00021
    H59      Z    -0.03787 -0.00013 -0.00007 -0.00008  0.00000  0.00025
    H60      X     0.00423 -0.00003  0.00007  0.00051 -0.00004 -0.00042
    H60      Y    -0.00238 -0.00000 -0.00003 -0.00020  0.00002  0.00024
    H60      Z    -0.00944  0.00005 -0.00013 -0.00099  0.00010  0.00082
    H61      X    -0.00064  0.00004  0.00002  0.00009  0.00001  0.00001
    H61      Y     0.00327 -0.00008  0.00006 -0.00016  0.00001 -0.00017
    H61      Z    -0.00294  0.00007 -0.00003  0.00021 -0.00001  0.00014
    H62      X    -0.00082 -0.00004 -0.00005 -0.00010 -0.00002 -0.00022
    H62      Y    -0.00308 -0.00005 -0.00020 -0.00039 -0.00009 -0.00049
    H62      Z    -0.00086 -0.00003 -0.00006 -0.00014 -0.00003 -0.00023
    H63      X     0.00041 -0.00017 -0.00046 -0.00018  0.00010 -0.00013
    H63      Y     0.00349 -0.00028  0.00105 -0.00065 -0.00021 -0.00044
    H63      Z    -0.00288  0.00048 -0.00174  0.00087  0.00040  0.00056
    H64      X    -0.01014 -0.00082  0.01269 -0.00073 -0.00262  0.00070
    H64      Y     0.00082  0.00009 -0.00172  0.00015  0.00039  0.00000
    H64      Z    -0.00721 -0.00054  0.00846 -0.00053 -0.00175  0.00038
    H65      X    -0.00166  0.00001  0.00128 -0.00006 -0.00032 -0.00003
    H65      Y    -0.00546  0.00028  0.00400  0.00009 -0.00101  0.00005
    H65      Z    -0.00236  0.00018  0.00164  0.00009 -0.00043  0.00000
  
  vibration #          223      224      225
                  -------- -------- --------
  frequencies      3236.23  3254.60  3261.58
  intensities         4.26     0.78     3.04
  reduc. mass         0.85     0.88     0.90
  force const         5.22     5.50     5.62
    P1       X     0.00000  0.00001 -0.00000
    P1       Y    -0.00001 -0.00001 -0.00004
    P1       Z     0.00000  0.00001  0.00002
    Pd2      X    -0.00000  0.00000 -0.00001
    Pd2      Y    -0.00000 -0.00001  0.00001
    Pd2      Z    -0.00000 -0.00000 -0.00001
    Br3      X     0.00000 -0.00001 -0.00000
    Br3      Y     0.00000 -0.00002  0.00000
    Br3      Z    -0.00000 -0.00001 -0.00000
    C73      X    -0.00000  0.00000 -0.00060
    C73      Y     0.00001  0.00000 -0.00076
    C73      Z    -0.00000 -0.00000  0.00086
    C74      X    -0.00001  0.00000 -0.00033
    C74      Y    -0.00003  0.00000 -0.00079
    C74      Z     0.00003 -0.00001  0.00073
    C75      X     0.00002 -0.00001 -0.00005
    C75      Y    -0.00000  0.00000 -0.00041
    C75      Z    -0.00000 -0.00000  0.00041
    C76      X    -0.00003 -0.00001  0.00180
    C76      Y     0.00001  0.00001 -0.00151
    C76      Z    -0.00001  0.00000  0.00108
    C77      X    -0.00004 -0.00008  0.02613
    C77      Y    -0.00012 -0.00015  0.05457
    C77      Z     0.00011  0.00015 -0.05556
    C78      X    -0.00003  0.00003 -0.00993
    C78      Y     0.00004 -0.00002  0.00697
    C78      Z    -0.00004  0.00001 -0.00418
    F79      X     0.00001 -0.00000  0.00009
    F79      Y     0.00000 -0.00000  0.00004
    F79      Z    -0.00000 -0.00000 -0.00006
    H80      X     0.00020 -0.00004  0.00396
    H80      Y     0.00037 -0.00007  0.00792
    H80      Z    -0.00033  0.00007 -0.00774
    H81      X    -0.00004  0.00004 -0.00045
    H81      Y     0.00003 -0.00001  0.00046
    H81      Z     0.00001  0.00003 -0.00025
    H82      X     0.00053  0.00075 -0.29874
    H82      Y     0.00125  0.00169 -0.63513
    H82      Z    -0.00127 -0.00168  0.63343
    H83      X     0.00050 -0.00029  0.08336
    H83      Y    -0.00043  0.00025 -0.07721
    H83      Z     0.00036 -0.00017  0.05245
    C3       X     0.00001 -0.00001 -0.00002
    C3       Y     0.00001 -0.00001  0.00006
    C3       Z     0.00000 -0.00002 -0.00001
    C4       X    -0.00000 -0.00001 -0.00006
    C4       Y     0.00000  0.00000  0.00005
    C4       Z    -0.00000 -0.00000  0.00006
    C5       X     0.00000  0.00001  0.00025
    C5       Y    -0.00002 -0.00001 -0.00016
    C5       Z     0.00002  0.00000 -0.00026
    C6       X    -0.00000  0.00000  0.00003
    C6       Y    -0.00001 -0.00001  0.00001
    C6       Z    -0.00000  0.00000 -0.00001
    C7       X     0.00000  0.00001 -0.00001
    C7       Y    -0.00000  0.00001 -0.00000
    C7       Z    -0.00001  0.00001 -0.00001
    C8       X     0.00001 -0.00000  0.00000
    C8       Y    -0.00001  0.00000 -0.00000
    C8       Z    -0.00000  0.00000 -0.00000
    C9       X     0.00000  0.00001 -0.00000
    C9       Y    -0.00001  0.00001 -0.00000
    C9       Z     0.00000  0.00001 -0.00000
    C10      X    -0.00001 -0.00000 -0.00002
    C10      Y    -0.00001  0.00000 -0.00002
    C10      Z     0.00000  0.00000 -0.00000
    C11      X    -0.00000  0.00001 -0.00005
    C11      Y     0.00000 -0.00000  0.00002
    C11      Z     0.00001  0.00001  0.00005
    C12      X    -0.00000 -0.00000 -0.00001
    C12      Y    -0.00001 -0.00000  0.00001
    C12      Z     0.00000 -0.00000 -0.00000
    C13      X    -0.00001 -0.00000 -0.00000
    C13      Y    -0.00001 -0.00000  0.00002
    C13      Z     0.00000 -0.00000  0.00001
    C14      X    -0.00001 -0.00000 -0.00000
    C14      Y     0.00000 -0.00000  0.00001
    C14      Z    -0.00000 -0.00000  0.00006
    C15      X    -0.00001 -0.00000 -0.00035
    C15      Y    -0.00000 -0.00001  0.00014
    C15      Z     0.00001  0.00001  0.00046
    C16      X     0.00001  0.00000 -0.00001
    C16      Y    -0.00011 -0.00006 -0.00031
    C16      Z    -0.00005 -0.00002 -0.00006
    C17      X    -0.00003 -0.00001 -0.00002
    C17      Y    -0.00001  0.00000  0.00001
    C17      Z    -0.00010 -0.00004 -0.00012
    C18      X    -0.00004 -0.00003 -0.00007
    C18      Y     0.00014  0.00007  0.00013
    C18      Z    -0.00010 -0.00006 -0.00010
    C19      X     0.00001  0.00002 -0.00001
    C19      Y     0.00007  0.00010  0.00028
    C19      Z     0.00007  0.00008  0.00010
    C20      X    -0.00007  0.00002  0.00029
    C20      Y     0.00002 -0.00003  0.00025
    C20      Z    -0.00004 -0.00005 -0.00002
    C21      X     0.00048 -0.00043  0.00005
    C21      Y    -0.00017  0.00006 -0.00001
    C21      Z    -0.00023 -0.00005  0.00003
    C22      X    -0.00150 -0.00018 -0.00012
    C22      Y    -0.00046 -0.00004  0.00008
    C22      Z    -0.00317 -0.00025  0.00001
    C23      X    -0.05362 -0.00457 -0.00010
    C23      Y     0.02544  0.00180  0.00003
    C23      Z     0.05608  0.00336  0.00011
    C24      X     0.00771  0.00152 -0.00001
    C24      Y     0.00216  0.00283  0.00002
    C24      Z     0.01594  0.01383  0.00004
    C25      X    -0.00669  0.07863  0.00020
    C25      Y     0.00069 -0.01149 -0.00003
    C25      Z    -0.00318  0.02284  0.00004
    C26      X     0.00007 -0.00063  0.00001
    C26      Y     0.00006 -0.00080 -0.00002
    C26      Z     0.00017 -0.00331 -0.00001
    O27      X     0.00003  0.00019 -0.00001
    O27      Y    -0.00003  0.00006  0.00000
    O27      Z    -0.00006  0.00033 -0.00000
    C28      X    -0.00005  0.00023  0.00002
    C28      Y    -0.00015  0.00095 -0.00000
    C28      Z    -0.00037  0.00161 -0.00000
    O29      X     0.00007 -0.00006  0.00026
    O29      Y     0.00007  0.00002  0.00064
    O29      Z     0.00039  0.00002  0.00018
    C30      X     0.00114  0.00003 -0.00025
    C30      Y     0.00052 -0.00001 -0.00022
    C30      Z     0.00207 -0.00002 -0.00010
    H31      X    -0.00007  0.00015  0.00005
    H31      Y    -0.00008  0.00015 -0.00006
    H31      Z    -0.00009  0.00026 -0.00009
    H32      X     0.00004 -0.00006 -0.00004
    H32      Y     0.00003 -0.00007 -0.00002
    H32      Z     0.00004 -0.00008 -0.00002
    H33      X    -0.00001 -0.00000  0.00009
    H33      Y     0.00010  0.00017 -0.00021
    H33      Z    -0.00003 -0.00006  0.00007
    H34      X     0.00003 -0.00012  0.00005
    H34      Y     0.00002 -0.00008  0.00006
    H34      Z     0.00001 -0.00008  0.00006
    H35      X    -0.00002 -0.00001  0.00004
    H35      Y    -0.00002  0.00001 -0.00001
    H35      Z     0.00009 -0.00005 -0.00003
    H36      X     0.00003 -0.00003  0.00003
    H36      Y     0.00003 -0.00007  0.00004
    H36      Z     0.00003 -0.00005  0.00004
    H37      X    -0.00009 -0.00002 -0.00002
    H37      Y     0.00001  0.00001 -0.00000
    H37      Z     0.00001  0.00000  0.00000
    H38      X     0.00002 -0.00010  0.00005
    H38      Y     0.00001 -0.00007  0.00004
    H38      Z     0.00002 -0.00008  0.00003
    H39      X    -0.00004 -0.00001 -0.00004
    H39      Y     0.00012 -0.00003  0.00007
    H39      Z    -0.00002  0.00001 -0.00001
    H40      X     0.00001  0.00003 -0.00000
    H40      Y     0.00000  0.00003  0.00000
    H40      Z    -0.00006  0.00011 -0.00009
    H41      X     0.00005 -0.00006  0.00011
    H41      Y     0.00006 -0.00007  0.00015
    H41      Z     0.00006 -0.00010  0.00017
    H42      X     0.00002  0.00001  0.00071
    H42      Y    -0.00000  0.00001 -0.00037
    H42      Z    -0.00000  0.00003 -0.00087
    H43      X     0.00003 -0.00009  0.00047
    H43      Y    -0.00002  0.00003 -0.00021
    H43      Z     0.00000 -0.00003  0.00017
    H44      X     0.00001  0.00000  0.00038
    H44      Y    -0.00000 -0.00000 -0.00020
    H44      Z    -0.00003 -0.00001 -0.00072
    H45      X     0.00001  0.00000  0.00003
    H45      Y     0.00008  0.00005 -0.00010
    H45      Z    -0.00005 -0.00003  0.00010
    H46      X     0.00001 -0.00001  0.00008
    H46      Y    -0.00001  0.00000 -0.00003
    H46      Z    -0.00001  0.00002 -0.00010
    H47      X     0.00004  0.00001 -0.00008
    H47      Y     0.00006  0.00003 -0.00026
    H47      Z     0.00004  0.00002 -0.00011
    H48      X     0.00003  0.00000  0.00007
    H48      Y    -0.00001 -0.00000  0.00002
    H48      Z    -0.00005 -0.00001 -0.00008
    H49      X     0.00010  0.00001  0.00012
    H49      Y    -0.00002 -0.00000  0.00003
    H49      Z     0.00003  0.00000  0.00008
    H50      X     0.00001  0.00000  0.00041
    H50      Y    -0.00001 -0.00000 -0.00036
    H50      Z    -0.00004 -0.00000 -0.00100
    H51      X     0.00005  0.00001  0.00389
    H51      Y    -0.00001 -0.00000 -0.00007
    H51      Z    -0.00009 -0.00002 -0.00658
    H52      X    -0.00002 -0.00003 -0.00019
    H52      Y     0.00004  0.00010 -0.00115
    H52      Z    -0.00004 -0.00008  0.00145
    H53      X    -0.00001 -0.00002 -0.00019
    H53      Y     0.00129  0.00074  0.00326
    H53      Z     0.00071  0.00043  0.00184
    H54      X     0.00025  0.00011  0.00042
    H54      Y     0.00012  0.00006  0.00015
    H54      Z     0.00110  0.00046  0.00131
    H55      X     0.00051  0.00028  0.00047
    H55      Y    -0.00158 -0.00086 -0.00148
    H55      Z     0.00103  0.00059  0.00097
    H56      X    -0.00007 -0.00002 -0.00002
    H56      Y    -0.00070 -0.00085 -0.00277
    H56      Z    -0.00040 -0.00048 -0.00127
    H57      X     0.61439  0.04182  0.00126
    H57      Y    -0.29020 -0.01930 -0.00062
    H57      Z    -0.63577 -0.04161 -0.00140
    H58      X    -0.05544 -0.03673 -0.00010
    H58      Y    -0.02859 -0.02278 -0.00005
    H58      Z    -0.17146 -0.13128 -0.00036
    H59      X     0.08471 -0.89408 -0.00225
    H59      Y    -0.01264  0.13576  0.00035
    H59      Z     0.02603 -0.25782 -0.00069
    H60      X    -0.00103  0.00412 -0.00005
    H60      Y     0.00068 -0.00341  0.00001
    H60      Z     0.00271 -0.01331  0.00010
    H61      X     0.00036 -0.00077 -0.00002
    H61      Y    -0.00150  0.00555  0.00006
    H61      Z     0.00146 -0.00715 -0.00007
    H62      X     0.00085 -0.00392 -0.00004
    H62      Y     0.00280 -0.01506 -0.00008
    H62      Z     0.00096 -0.00618 -0.00003
    H63      X     0.00042 -0.00015  0.00018
    H63      Y     0.01006 -0.00010  0.00087
    H63      Z    -0.00944  0.00007 -0.00149
    H64      X    -0.01467 -0.00022  0.00221
    H64      Y     0.00091  0.00000 -0.00037
    H64      Z    -0.01221 -0.00027  0.00143
    H65      X    -0.00602 -0.00017  0.00054
    H65      Y    -0.01668  0.00002  0.00062
    H65      Z    -0.00851 -0.00010  0.00007
  
  Number of imaginary frequencies:   0
   
  Writing vibrational animation data to ox_add_L_trans_L1_PL145.vib
  Writing IR vibrational spectrum data to ox_add_L_trans_L1_PL145_vib.spm
  rotational symmetry number:  1

  rotational temperatures (K):      0.004534      0.003874      0.003406
   
  The Quasi-Harmonic approximation will be applied to compute
  vibrational constributions to thermodynamic properties.
  Frequencies will be adjusted to a minimum value of  100.00 cm^-1.

  vibrational temperatures:
       mode:      1        2        3        4        5        6
  temp. (K):   143.88   143.88   143.88   143.88   143.88   143.88
   
       mode:      7        8        9       10       11       12
  temp. (K):   143.88   143.88   143.88   143.88   143.88   143.88
   
       mode:     13       14       15       16       17       18
  temp. (K):   143.88   143.88   145.57   165.10   168.67   207.49
   
       mode:     19       20       21       22       23       24
  temp. (K):   220.67   234.08   239.86   253.85   259.84   262.01
   
       mode:     25       26       27       28       29       30
  temp. (K):   274.01   292.90   306.79   315.69   317.49   326.77
   
       mode:     31       32       33       34       35       36
  temp. (K):   368.15   374.40   396.75   400.26   407.49   431.00
   
       mode:     37       38       39       40       41       42
  temp. (K):   449.56   469.65   482.33   484.34   493.10   496.67
   
       mode:     43       44       45       46       47       48
  temp. (K):   541.27   560.91   580.79   591.81   616.94   629.36
   
       mode:     49       50       51       52       53       54
  temp. (K):   643.03   651.15   677.01   687.29   699.97   720.47
   
       mode:     55       56       57       58       59       60
  temp. (K):   742.61   757.41   770.61   777.69   789.69   825.82
   
       mode:     61       62       63       64       65       66
  temp. (K):   844.06   871.72   900.01   909.10   912.73   978.12
   
       mode:     67       68       69       70       71       72
  temp. (K):  1014.66  1042.78  1052.42  1069.93  1089.71  1106.22
   
       mode:     73       74       75       76       77       78
  temp. (K):  1130.51  1137.69  1158.16  1170.77  1179.99  1188.19
   
       mode:     79       80       81       82       83       84
  temp. (K):  1199.99  1204.14  1214.64  1218.76  1234.84  1262.73
   
       mode:     85       86       87       88       89       90
  temp. (K):  1263.78  1304.87  1312.95  1317.76  1327.39  1331.99
   
       mode:     91       92       93       94       95       96
  temp. (K):  1353.11  1362.52  1367.95  1369.50  1407.78  1408.15
   
       mode:     97       98       99      100      101      102
  temp. (K):  1426.90  1465.93  1471.83  1478.16  1478.54  1483.70
   
       mode:    103      104      105      106      107      108
  temp. (K):  1525.53  1531.36  1537.49  1538.90  1547.73  1557.61
   
       mode:    109      110      111      112      113      114
  temp. (K):  1564.04  1593.93  1599.43  1603.81  1605.03  1611.40
   
       mode:    115      116      117      118      119      120
  temp. (K):  1627.60  1643.84  1651.84  1667.11  1669.04  1683.77
   
       mode:    121      122      123      124      125      126
  temp. (K):  1702.40  1708.75  1725.19  1742.19  1745.09  1751.74
   
       mode:    127      128      129      130      131      132
  temp. (K):  1760.65  1761.52  1779.18  1794.38  1813.49  1847.89
   
       mode:    133      134      135      136      137      138
  temp. (K):  1851.51  1869.63  1873.36  1878.92  1890.87  1894.47
   
       mode:    139      140      141      142      143      144
  temp. (K):  1898.58  1902.44  1908.57  1909.94  1928.01  1933.26
   
       mode:    145      146      147      148      149      150
  temp. (K):  1934.71  1939.47  1942.40  1971.93  1975.07  1979.62
   
       mode:    151      152      153      154      155      156
  temp. (K):  1990.75  1997.53  2009.82  2016.05  2019.53  2021.19
   
       mode:    157      158      159      160      161      162
  temp. (K):  2022.28  2025.35  2052.62  2120.55  2134.75  2153.42
   
       mode:    163      164      165      166      167      168
  temp. (K):  2160.21  2168.72  2173.19  2173.60  2175.72  2176.33
   
       mode:    169      170      171      172      173      174
  temp. (K):  2181.84  2185.32  2190.57  2190.65  2192.86  2196.37
   
       mode:    175      176      177      178      179      180
  temp. (K):  2201.54  2203.43  2204.86  2211.99  2216.95  2224.08
   
       mode:    181      182      183      184      185      186
  temp. (K):  2334.39  2357.36  2372.39  2381.36  2384.17  2392.67
   
       mode:    187      188      189      190      191      192
  temp. (K):  4327.58  4352.92  4357.15  4357.41  4359.81  4359.92
   
       mode:    193      194      195      196      197      198
  temp. (K):  4368.28  4369.52  4373.73  4380.02  4384.86  4429.18
   
       mode:    199      200      201      202      203      204
  temp. (K):  4433.87  4438.56  4442.83  4449.33  4451.70  4458.35
   
       mode:    205      206      207      208      209      210
  temp. (K):  4460.52  4468.14  4486.01  4489.06  4495.14  4506.31
   
       mode:    211      212      213      214      215      216
  temp. (K):  4523.24  4539.13  4549.73  4556.58  4557.69  4590.17
   
       mode:    217      218      219      220      221      222
  temp. (K):  4599.43  4607.48  4622.15  4622.44  4625.33  4631.94
   
       mode:    223      224      225
  temp. (K):  4656.20  4682.64  4692.68
   
   
  Thermodynamic properties calculated assuming an ideal gas

  In the table below, the units for temperature
  are kelvins, the units for U, H, and G are
  kcal/mol and the units for Cv and S are cal/(mol K)

  The zero point energy (ZPE):    409.557 kcal/mol
  is not included in U, H, or G in the table below
  
 
  =============================================================================
  Thermodynamic properties for P = 1.00E+00 atm, calculated at   1 temperatures


  T =   298.15 K, P = 1.00E+00 atm
   
                  U         Cv          S          H          G        ln(Q)
              =========  =========  =========  =========  =========  =========
  trans.          0.889      2.981     45.476      1.481    -12.077   20.38435
  rot.            0.889      2.981     37.627      0.889    -10.330   17.43476
  vib.           21.031    138.315    128.583     21.031    -17.306   29.20877
  elec.           0.000      0.000      0.000      0.000      0.000    0.00000
  ----------------------------------------------------------------------------
  total          22.809    144.277    211.687     23.401    -39.713   67.02788
   
   Total internal energy, Utot(SCFE + ZPE + U):   -1973.425887 hartrees
   Total enthalpy, Htot (Utot + nRT), with n=1:   -1973.424943 hartrees
    Total Gibbs free energy, Gtot (Htot - T*S):   -1973.525522 hartrees
   
  end of program freq
   
 Time(freq)  user:        2.7  user+sys:        2.7  wallclock:        6.4
  
  start of program post
  
  Writing input files for PBF
  end of program post
   
 Time(post)  user:        2.0  user+sys:        2.0  wallclock:        2.1

 Total cpu seconds     user:   41331.163   user+sys:   41331.163
  
 Total elapsed time:    41760 seconds

Job ox_add_L_trans_L1_PL145 completed on bp1-compute137.data.bp.acrc.priv at Sat Mar 23 16:35:56 2024
