Job ox_add_Ar_trans_L1_PL145_2 started on bp1-compute092.data.bp.acrc.priv at Mon Mar 18 15:46:27 2024
jobid: bp1-compute092-0-65f861d0

  +--------------------------------------------------------------------+
  |  Jaguar version 11.4, release 135                                  |
  |                                                                    |
  |  Copyright Schrodinger, Inc.                                       |
  |  All Rights Reserved.                                              |
  |                                                                    |
  |  The following have contributed to Jaguar (listed alphabetically): |
  |  Mike Beachy, Art Bochevarov, Dale Braden, Yixiang Cao,            |
  |  Alan Chien, Chris Cortis, Rich Friesner, Bill Goddard,            |
  |  Hod Greeley, Tom Hughes, Leif Jacobson, Jean-Marc Langlois,       |
  |  Daniel Levine, Daniel Mainz, Rob Murphy, Dean Philipp,            |
  |  Tom Pollard, Murco Ringnalda, Mark Watson, Haoyu Yu.              |
  |                                                                    |
  |  Use of this program should be acknowledged in publications as:    |
  |                                                                    |
  |  Jaguar, version 11.4, Schrodinger, Inc., New York, NY, 2021.      |
  |                                                                    |
  |  A. D. Bochevarov, E. Harder, T. F. Hughes, J. R. Greenwood,       |
  |  D. A. Braden, D. M. Philipp, D. Rinaldo, M. D. Halls,             |
  |  J. Zhang, R. A. Friesner, "Jaguar: A High-Performance Quantum     |
  |  Chemistry Software Program with Strengths in Life and Materials   |
  |  Sciences", Int. J. Quantum Chem., 2013, 113(18), 2110-2142.       |
  +--------------------------------------------------------------------+
  
  start of program pre
  
  Job name: ox_add_Ar_trans_L1_PL145_2
  Executables used: /sw/apps/schrodinger2021-4/jaguar-v11.4/bin/Linux-x86_64
  Temporary files : /tmp/ar21627/ox_add_Ar_trans_L1_PL145_2
  Maestro file (input):  ox_add_Ar_trans_L1_PL145_2.mae
  Maestro file (output): ox_add_Ar_trans_L1_PL145_2.01.mae
  
 Contents of input file: &gen section only
 ----------------Contents start----------------
&gen
dftname=b3pw91-d3
basis=6-31G*
numd=5
ip11=2
iaccg=3
isolv=2
igeopt=1
solvent=benzene
ifreq=1
&
 -----------------Contents end-----------------
 
  basis set:             non_standard                    
  net molecular charge:    0
  multiplicity:            1
  
  This run will use ECP on            2  atoms
  number of basis functions....          626
  
 Input geometry:
                                   angstroms
  atom               x                 y                 z
  P1            0.0000000000      0.0000000000      0.0000000000 
  Pd2           0.0000000000      0.0000000000      2.2761010486 
  Br3           0.3233640480      0.0000000000      4.8111435857 
  C73          -4.6167908059     -1.1016158757      2.2279252576 
  C74          -3.7224080245     -1.9847067143      1.6418108827 
  C75          -2.3569402664     -1.6996309654      1.7018174885 
  C76          -1.8940897633     -0.5411742274      2.3383578262 
  C77          -2.8193633541      0.3060635237      2.9598281293 
  C78          -4.1885431354      0.0330114619      2.9016279143 
  F79          -5.9452903695     -1.3541176883      2.1413929409 
  H80          -4.0974958067     -2.8644168312      1.1251304941 
  H82          -2.4753289364      1.1866669463      3.4933165131 
  H83          -4.9197814924      0.6865290475      3.3712966916 
  H14          -1.6438885571     -2.3760886840      1.2541991077 
  C3            1.7608762509      0.0000000000     -0.7421894815 
  C4           -0.8162921494     -1.5574842211     -0.7603611454 
  C5           -0.8021165931      1.4244115892     -0.9186980760 
  C6            1.9146491168      0.4060714136     -2.2245412319 
  C7            3.4081965324      0.5198683567     -2.6093393883 
  C8            4.1820583051     -0.7780787713     -2.3129690622 
  C9            3.9979547511     -1.2054981706     -0.8448675086 
  C10           2.5055327183     -1.3294493602     -0.4715173370 
  C11          -2.2271425360     -1.1975763358     -1.3003690912 
  C12          -2.9769182293     -2.4588280670     -1.7830257907 
  C13          -2.1779845963     -3.2166694063     -2.8605330107 
  C14          -0.7550654487     -3.5358127916     -2.3631296085 
  C15          -0.0188073924     -2.2646011226     -1.8866033600 
  C16          -1.1242155392      1.2375240466     -2.2863189806 
  C17          -1.7234752811      2.2408517206     -3.0584062873 
  C18          -2.0198144825      3.4790428304     -2.4699975819 
  C19          -1.6929591617      3.6880696740     -1.1262848168 
  C20          -1.0799874677      2.6893800314     -0.3327116885 
  C21          -0.7623996973      3.0697307434      1.0795928611 
  C22          -1.8060053725      3.1900988101      2.0297503096 
  C23          -1.5366533592      3.5935126391      3.3513772174 
  C24          -0.2199254133      3.9021562911      3.7132034198 
  C25           0.8270891990      3.8420096765      2.7852567189 
  C26           0.5507539822      3.4236713384      1.4698104190 
  O27           1.4992583859      3.3522325147      0.4724543367 
  C28           2.8533384922      3.6072424938      0.8518659008 
  O29          -3.0643071908      2.9146500914      1.5548327362 
  C30          -4.0888055149      2.6783631170      2.5217698272 
  H31           2.2421854995      0.7738520556     -0.1134750923 
  H32           1.4329316660     -0.3500122301     -2.8812996894 
  H33           1.4134840190      1.3688954111     -2.4213778571 
  H34           3.8611219606      1.3524423143     -2.0321848305 
  H35           3.4995188980      0.7926625559     -3.6800344396 
  H36           3.8049954211     -1.5842430828     -2.9778874372 
  H37           5.2567009737     -0.6499016741     -2.5530046021 
  H38           4.4652851582     -0.4577396365     -0.1733620357 
  H39           4.5137412005     -2.1674241652     -0.6550191122 
  H40           2.4147364956     -1.5947898063      0.5957456873 
  H41           2.0516827871     -2.1429027840     -1.0752732074 
  H42          -0.9392177736     -2.2697619842      0.0870996194 
  H43          -2.8276071948     -0.6741638174     -0.5375225027 
  H44          -2.0976601732     -0.4856378031     -2.1374873086 
  H45          -3.9729135749     -2.1709727257     -2.1728515620 
  H46          -3.1596131232     -3.1351093422     -0.9197561717 
  H47          -2.7055573210     -4.1459012171     -3.1566753851 
  H48          -2.1073136534     -2.5835229592     -3.7676133875 
  H49          -0.1672219282     -4.0264038836     -3.1643816246 
  H50          -0.8159250610     -4.2664356005     -1.5267468472 
  H51           0.0962336201     -1.5506607935     -2.7224129655 
  H52           1.0000714003     -2.5301978105     -1.5580115139 
  H53          -0.8901137861      0.2818308150     -2.7668899433 
  H54          -1.9558460338      2.0507490735     -4.1138163845 
  H55          -2.4952346582      4.2768691893     -3.0539088487 
  H56          -1.9091748432      4.6533610507     -0.6543707284 
  H57          -2.3328536194      3.6277470654      4.0987289039 
  H58          -0.0003689518      4.1833500545      4.7492839160 
  H59           1.8495431705      4.0572237386      3.1025078095 
  H60           3.4462810625      3.4763850746     -0.0681000210 
  H61           3.1853497061      2.8828948570      1.6187207393 
  H62           2.9812619939      4.6462511135      1.2201099843 
  H63          -3.7922665394      1.8658495689      3.2092963185 
  H64          -4.9714892885      2.3641859827      1.9421291735 
  H65          -4.3384177598      3.5994186982      3.0895580454 
   
  principal moments of inertia:
        amu*angstrom^2:     5594.16490     6508.55697     7507.02944
                g*cm^2: 9.28932820E-37 1.08077118E-36 1.24657141E-36
   
  rotational constants:
               cm^(-1):      0.00301343      0.00259007      0.00224558
                   GHz:      0.09034038      0.07764840      0.06732077
   
  Molecular weight:     690.09 amu
   
  Stoichiometry: PdC32PH39BrO2F
  Molecular Point Group: C1      
  Point Group used: C1
  
 
Number of optimization coordinates:   268
Number of independent coordinates:    268
Number of non-redundant coordinates:  225
Number of frozen coordinates:           0
Number of harmonic constraints:         0
 
Number of geometric degrees of freedom:   225
Maximum geometric degrees of freedom:     225
 " " " " " excluding dummy atoms:         225
 
 
  bond lengths (angstroms):
 
 P1      -Pd2     :   2.276101      P1      -C3      :   1.910898
 P1      -C4      :   1.915787      P1      -C5      :   1.875192
 Pd2     -Br3     :   2.555583      Pd2     -C76     :   1.970868
 C73     -C74     :   1.386831      C73     -C78     :   1.387318
 C73     -F79     :   1.355048      C74     -C75     :   1.396199
 C74     -H80     :   1.086986      C75     -C76     :   1.400513
 C75     -H14     :   1.080000      C76     -C77     :   1.400060
 C77     -C78     :   1.397354      C77     -H82     :   1.085556
 C78     -H83     :   1.087375      C3      -C6      :   1.544638
 C3      -C10     :   1.547647      C3      -H31     :   1.107153
 C4      -C11     :   1.552946      C4      -C15     :   1.550619
 C4      -H42     :   1.113840      C5      -C16     :   1.417414
 C5      -C20     :   1.421526      C6      -C7      :   1.546513
 C6      -H32     :   1.111326      C6      -H33     :   1.103151
 C7      -C8      :   1.539923      C7      -H34     :   1.109697
 C7      -H35     :   1.108668      C8      -C9      :   1.540099
 C8      -H36     :   1.110943      C8      -H37     :   1.108559
 C9      -C10     :   1.543398      C9      -H38     :   1.108359
 C9      -H39     :   1.107872      C10     -H40     :   1.103494
 C10     -H41     :   1.110048      C11     -C12     :   1.544628
 C11     -H43     :   1.102929      C11     -H44     :   1.106521
 C12     -C13     :   1.540662      C12     -H45     :   1.107624
 C12     -H46     :   1.111741      C13     -C14     :   1.540767
 C13     -H47     :   1.108830      C13     -H48     :   1.108451
 C14     -C15     :   1.544387      C14     -H49     :   1.108262
 C14     -H50     :   1.112227      C15     -H51     :   1.105225
 C15     -H52     :   1.103009      C16     -C17     :   1.400678
 C16     -H53     :   1.095035      C17     -C18     :   1.402554
 C17     -H54     :   1.097281      C18     -C19     :   1.398603
 C18     -H55     :   1.097043      C19     -C20     :   1.415229
 C19     -H56     :   1.096011      C20     -C21     :   1.496707
 C21     -C22     :   1.416475      C21     -C26     :   1.414891
 C22     -C23     :   1.407832      C22     -O29     :   1.372859
 C23     -C24     :   1.399983      C23     -H57     :   1.092539
 C24     -C25     :   1.400336      C24     -H58     :   1.095782
 C25     -C26     :   1.407752      C25     -H59     :   1.091960
 C26     -O27     :   1.378217      O27     -C28     :   1.429166
 C28     -H60     :   1.102289      C28     -H61     :   1.105883
 C28     -H62     :   1.109733      O29     -C30     :   1.428424
 C30     -H63     :   1.104901      C30     -H64     :   1.101736
 C30     -H65     :   1.110420
 
  bond angles:
 
 C3      -P1      -Pd2     : 112.854874  C4      -P1      -Pd2     : 113.384048
 C4      -P1      -C3      : 103.797047  C5      -P1      -Pd2     : 119.335462
 C5      -P1      -C3      : 101.764216  C5      -P1      -C4      : 103.935872
 Br3     -Pd2     -P1      : 172.730742  C76     -Pd2     -P1      :  91.810189
 C76     -Pd2     -Br3     :  95.179054  C78     -C73     -C74     : 121.799250
 F79     -C73     -C74     : 119.119355  F79     -C73     -C78     : 119.081372
 C75     -C74     -C73     : 118.851227  H80     -C74     -C73     : 119.583608
 H80     -C74     -C75     : 121.543804  C76     -C75     -C74     : 120.772927
 H14     -C75     -C74     : 120.000000  H14     -C75     -C76     : 119.227073
 C75     -C76     -Pd2     : 122.031368  C77     -C76     -Pd2     : 118.881056
 C77     -C76     -C75     : 118.939883  C78     -C77     -C76     : 120.718410
 H82     -C77     -C76     : 119.973007  H82     -C77     -C78     : 119.308555
 C77     -C78     -C73     : 118.849083  H83     -C78     -C73     : 119.584134
 H83     -C78     -C77     : 121.566745  C6      -C3      -P1      : 117.676148
 C10     -C3      -P1      : 112.052203  C10     -C3      -C6      : 110.228616
 H31     -C3      -P1      : 100.372038  H31     -C3      -C6      : 108.538360
 H31     -C3      -C10     : 106.973355  C11     -C4      -P1      : 109.675858
 C15     -C4      -P1      : 116.095413  C15     -C4      -C11     : 108.685035
 H42     -C4      -P1      : 105.362777  H42     -C4      -C11     : 108.210602
 H42     -C4      -C15     : 108.527420  C16     -C5      -P1      : 118.018741
 C20     -C5      -P1      : 123.890444  C20     -C5      -C16     : 118.076616
 C7      -C6      -C3      : 110.748753  H32     -C6      -C3      : 110.189696
 H32     -C6      -C7      : 108.761852  H33     -C6      -C3      : 110.821576
 H33     -C6      -C7      : 109.276348  H33     -C6      -H32     : 106.943579
 C8      -C7      -C6      : 112.049932  H34     -C7      -C6      : 108.661171
 H34     -C7      -C8      : 109.097085  H35     -C7      -C6      : 109.752032
 H35     -C7      -C8      : 110.601340  H35     -C7      -H34     : 106.502571
 C9      -C8      -C7      : 110.934835  H36     -C8      -C7      : 109.018804
 H36     -C8      -C9      : 109.182296  H37     -C8      -C7      : 110.366786
 H37     -C8      -C9      : 110.755376  H37     -C8      -H36     : 106.459137
 C10     -C9      -C8      : 111.621485  H38     -C9      -C8      : 109.870468
 H38     -C9      -C10     : 108.381341  H39     -C9      -C8      : 110.405725
 H39     -C9      -C10     : 109.816229  H39     -C9      -H38     : 106.598006
 C9      -C10     -C3      : 110.730175  H40     -C10     -C3      : 109.640323
 H40     -C10     -C9      : 109.440822  H41     -C10     -C3      : 109.733502
 H41     -C10     -C9      : 108.822300  H41     -C10     -H40     : 108.432918
 C12     -C11     -C4      : 111.125405  H43     -C11     -C4      : 111.351347
 H43     -C11     -C12     : 109.837706  H44     -C11     -C4      : 107.810704
 H44     -C11     -C12     : 110.228737  H44     -C11     -H43     : 106.357483
 C13     -C12     -C11     : 111.621470  H45     -C12     -C11     : 109.527273
 H45     -C12     -C13     : 110.364658  H46     -C12     -C11     : 109.501987
 H46     -C12     -C13     : 109.211968  H46     -C12     -H45     : 106.475670
 C14     -C13     -C12     : 110.794037  H47     -C13     -C12     : 110.626783
 H47     -C13     -C14     : 110.611963  H48     -C13     -C12     : 108.930251
 H48     -C13     -C14     : 108.881681  H48     -C13     -H47     : 106.885455
 C15     -C14     -C13     : 111.677594  H49     -C14     -C13     : 110.373692
 H49     -C14     -C15     : 109.546854  H50     -C14     -C13     : 109.165367
 H50     -C14     -C15     : 109.558147  H50     -C14     -H49     : 106.374181
 C14     -C15     -C4      : 110.749596  H51     -C15     -C4      : 107.952207
 H51     -C15     -C14     : 110.364467  H52     -C15     -C4      : 111.623564
 H52     -C15     -C14     : 109.517124  H52     -C15     -H51     : 106.539811
 C17     -C16     -C5      : 122.319238  H53     -C16     -C5      : 119.336537
 H53     -C16     -C17     : 118.341005  C18     -C17     -C16     : 119.440155
 H54     -C17     -C16     : 119.781371  H54     -C17     -C18     : 120.778471
 C19     -C18     -C17     : 119.053335  H55     -C18     -C17     : 120.683342
 H55     -C18     -C19     : 120.262150  C20     -C19     -C18     : 122.309158
 H56     -C19     -C18     : 119.947166  H56     -C19     -C20     : 117.743514
 C19     -C20     -C5      : 118.781466  C21     -C20     -C5      : 125.004211
 C21     -C20     -C19     : 116.211950  C22     -C21     -C20     : 119.882526
 C26     -C21     -C20     : 121.382210  C26     -C21     -C22     : 118.524148
 C23     -C22     -C21     : 120.870938  O29     -C22     -C21     : 115.225735
 O29     -C22     -C23     : 123.890184  C24     -C23     -C22     : 119.061268
 H57     -C23     -C22     : 120.778045  H57     -C23     -C24     : 120.113983
 C25     -C24     -C23     : 121.499432  H58     -C24     -C23     : 119.300694
 H58     -C24     -C25     : 119.193960  C26     -C25     -C24     : 119.025933
 H59     -C25     -C24     : 119.940819  H59     -C25     -C26     : 120.920782
 C25     -C26     -C21     : 120.945871  O27     -C26     -C21     : 115.225326
 O27     -C26     -C25     : 123.815288  C28     -O27     -C26     : 116.787962
 H60     -C28     -O27     : 105.480406  H61     -C28     -O27     : 110.589352
 H61     -C28     -H60     : 109.845361  H62     -C28     -O27     : 111.368976
 H62     -C28     -H60     : 109.031337  H62     -C28     -H61     : 110.398103
 C30     -O29     -C22     : 117.154581  H63     -C30     -O29     : 110.509948
 H64     -C30     -O29     : 105.405671  H64     -C30     -H63     : 109.432569
 H65     -C30     -O29     : 111.724695  H65     -C30     -H63     : 110.617181
 H65     -C30     -H64     : 108.993185
 
  torsional angles:
 
 P1      -Pd2     -C76     -C75     :  56.208904
 P1      -Pd2     -C76     -C77     :-119.324774
 P1      -C3      -C6      -C7      : 173.025537
 P1      -C3      -C6      -H32     : -66.592077
 P1      -C3      -C6      -H33     :  51.575275
 P1      -C3      -C10     -C9      :-169.424702
 P1      -C3      -C10     -H40     : -48.565920
 P1      -C3      -C10     -H41     :  70.426147
 P1      -C4      -C11     -C12     :-173.877998
 P1      -C4      -C11     -H43     : -51.081401
 P1      -C4      -C11     -H44     :  65.226560
 P1      -C4      -C15     -C14     : 177.367530
 P1      -C4      -C15     -H51     : -61.707073
 P1      -C4      -C15     -H52     :  55.058353
 P1      -C5      -C16     -C17     :-179.929022
 P1      -C5      -C16     -H53     :  -0.592880
 P1      -C5      -C20     -C19     :-179.821997
 P1      -C5      -C20     -C21     :   0.761002
 Pd2     -P1      -C3      -C6      :-162.731193
 Pd2     -P1      -C3      -C10     :  67.943966
 Pd2     -P1      -C3      -H31     : -45.281142
 Pd2     -P1      -C4      -C11     : 104.342666
 Pd2     -P1      -C4      -C15     :-132.016217
 Pd2     -P1      -C4      -H42     : -11.916398
 Pd2     -P1      -C5      -C16     :-162.687575
 Pd2     -P1      -C5      -C20     :  18.712067
 Pd2     -C76     -C75     -C74     :-173.175344
 Pd2     -C76     -C75     -H14     :   6.824656
 Pd2     -C76     -C77     -C78     : 173.082800
 Pd2     -C76     -C77     -H82     :  -6.856619
 Br3     -Pd2     -P1      -C3      :   0.000000
 Br3     -Pd2     -P1      -C4      : 117.659457
 Br3     -Pd2     -P1      -C5      :-119.384791
 Br3     -Pd2     -C76     -C75     :-121.790841
 Br3     -Pd2     -C76     -C77     :  62.675482
 C73     -C74     -C75     -C76     :  -0.186500
 C73     -C74     -C75     -H14     : 179.813500
 C73     -C78     -C77     -C76     :   0.652883
 C73     -C78     -C77     -H82     :-179.407300
 C74     -C73     -C78     -C77     :   1.604524
 C74     -C73     -C78     -H83     :-178.325638
 C74     -C75     -C76     -C77     :   2.355796
 C75     -C74     -C73     -C78     :  -1.835403
 C75     -C74     -C73     -F79     : 178.220350
 C75     -C76     -C77     -C78     :  -2.590835
 C75     -C76     -C77     -H82     : 177.469747
 C76     -Pd2     -P1      -C3      :-164.054444
 C76     -Pd2     -P1      -C4      : -46.394987
 C76     -Pd2     -P1      -C5      :  76.560765
 C76     -C75     -C74     -H80     : 178.124774
 C76     -C77     -C78     -H83     :-179.418397
 C77     -C76     -C75     -H14     :-177.644204
 C77     -C78     -C73     -F79     :-178.451208
 C78     -C73     -C74     -H80     : 179.819533
 F79     -C73     -C74     -H80     :  -0.124714
 F79     -C73     -C78     -H83     :   1.618630
 H80     -C74     -C75     -H14     :  -1.875226
 H82     -C77     -C78     -H83     :   0.521420
 C3      -P1      -C4      -C11     :-132.843429
 C3      -P1      -C4      -C15     :  -9.202312
 C3      -P1      -C4      -H42     : 110.897507
 C3      -P1      -C5      -C16     :  72.413626
 C3      -P1      -C5      -C20     :-106.186733
 C3      -C6      -C7      -C8      :  55.634693
 C3      -C6      -C7      -H34     : -64.987080
 C3      -C6      -C7      -H35     : 178.919672
 C3      -C10     -C9      -C8      : -56.646533
 C3      -C10     -C9      -H38     :  64.483797
 C3      -C10     -C9      -H39     :-179.431519
 C4      -P1      -C3      -C6      :  74.106847
 C4      -P1      -C3      -C10     : -55.217994
 C4      -P1      -C3      -H31     :-168.443102
 C4      -P1      -C5      -C16     : -35.204125
 C4      -P1      -C5      -C20     : 146.195516
 C4      -C11     -C12     -C13     : -56.808193
 C4      -C11     -C12     -H45     :-179.338689
 C4      -C11     -C12     -H46     :  64.248597
 C4      -C15     -C14     -C13     :  57.586148
 C4      -C15     -C14     -H49     :-179.820371
 C4      -C15     -C14     -H50     : -63.486672
 C5      -P1      -C3      -C6      : -33.618468
 C5      -P1      -C3      -C10     :-162.943309
 C5      -P1      -C3      -H31     :  83.831583
 C5      -P1      -C4      -C11     : -26.747617
 C5      -P1      -C4      -C15     :  96.893500
 C5      -P1      -C4      -H42     :-143.006681
 C5      -C16     -C17     -C18     :   0.039287
 C5      -C16     -C17     -H54     :-179.941590
 C5      -C20     -C19     -C18     :  -0.781942
 C5      -C20     -C19     -H56     : 179.365007
 C5      -C20     -C21     -C22     :-107.228545
 C5      -C20     -C21     -C26     :  78.129400
 C6      -C3      -C10     -C9      :  57.469349
 C6      -C3      -C10     -H40     : 178.328131
 C6      -C3      -C10     -H41     : -62.679802
 C6      -C7      -C8      -C9      : -54.134037
 C6      -C7      -C8      -H36     :  66.129439
 C6      -C7      -C8      -H37     :-177.278229
 C7      -C6      -C3      -C10     : -56.801689
 C7      -C6      -C3      -H31     :  60.052067
 C7      -C8      -C9      -C10     :  54.569811
 C7      -C8      -C9      -H38     : -65.690592
 C7      -C8      -C9      -H39     : 177.017486
 C8      -C7      -C6      -H32     : -65.594582
 C8      -C7      -C6      -H33     : 177.990841
 C8      -C9      -C10     -H40     :-177.623539
 C8      -C9      -C10     -H41     :  64.045397
 C9      -C8      -C7      -H34     :  66.234617
 C9      -C8      -C7      -H35     :-176.939257
 C9      -C10     -C3      -H31     : -60.353786
 C10     -C3      -C6      -H32     :  63.580696
 C10     -C3      -C6      -H33     :-178.251951
 C10     -C9      -C8      -H36     : -65.596447
 C10     -C9      -C8      -H37     : 177.489827
 C11     -C4      -C15     -C14     : -58.478386
 C11     -C4      -C15     -H51     :  62.447011
 C11     -C4      -C15     -H52     : 179.212437
 C11     -C12     -C13     -C14     :  53.999904
 C11     -C12     -C13     -H47     : 177.044954
 C11     -C12     -C13     -H48     : -65.748743
 C12     -C11     -C4      -C15     :  58.238166
 C12     -C11     -C4      -H42     : -59.432276
 C12     -C13     -C14     -C15     : -54.490564
 C12     -C13     -C14     -H49     :-176.610055
 C12     -C13     -C14     -H50     :  66.810280
 C13     -C12     -C11     -H43     : 179.527012
 C13     -C12     -C11     -H44     :  62.653743
 C13     -C14     -C15     -H51     : -61.899481
 C13     -C14     -C15     -H52     :-178.883557
 C14     -C13     -C12     -H45     : 176.049504
 C14     -C13     -C12     -H46     : -67.225513
 C14     -C15     -C4      -H42     :  58.990564
 C15     -C4      -C11     -H43     :-178.965237
 C15     -C4      -C11     -H44     : -62.657277
 C15     -C14     -C13     -H47     :-177.544184
 C15     -C14     -C13     -H48     :  65.287172
 C16     -C5      -C20     -C19     :   1.578398
 C16     -C5      -C20     -C21     :-177.838604
 C16     -C17     -C18     -C19     :   0.806805
 C16     -C17     -C18     -H55     :-179.586217
 C17     -C16     -C5      -C20     :  -1.245820
 C17     -C18     -C19     -C20     :  -0.436161
 C17     -C18     -C19     -H56     : 179.413743
 C18     -C17     -C16     -H53     :-179.303176
 C18     -C19     -C20     -C21     : 178.685783
 C19     -C18     -C17     -H54     :-179.212513
 C19     -C20     -C21     -C22     :  73.340999
 C19     -C20     -C21     -C26     :-101.301056
 C20     -C5      -C16     -H53     : 178.090321
 C20     -C19     -C18     -H55     : 179.955164
 C20     -C21     -C22     -C23     :-177.687037
 C20     -C21     -C22     -O29     :   1.044076
 C20     -C21     -C26     -C25     : 176.908189
 C20     -C21     -C26     -O27     :  -1.804053
 C21     -C20     -C19     -H56     :  -1.167268
 C21     -C22     -C23     -C24     :   1.241559
 C21     -C22     -C23     -H57     :-176.275674
 C21     -C22     -O29     -C30     : 164.048999
 C21     -C26     -C25     -C24     :   0.137764
 C21     -C26     -C25     -H59     : 176.279676
 C21     -C26     -O27     -C28     :-175.544166
 C22     -C21     -C26     -C25     :   2.195393
 C22     -C21     -C26     -O27     :-176.516850
 C22     -C23     -C24     -C25     :   1.189470
 C22     -C23     -C24     -H58     :-177.918494
 C22     -O29     -C30     -H63     : -55.368098
 C22     -O29     -C30     -H64     :-173.501882
 C22     -O29     -C30     -H65     :  68.256581
 C23     -C22     -C21     -C26     :  -2.892692
 C23     -C22     -O29     -C30     : -17.263028
 C23     -C24     -C25     -C26     :  -1.872391
 C23     -C24     -C25     -H59     :-178.052929
 C24     -C23     -C22     -O29     :-177.375611
 C24     -C25     -C26     -O27     : 178.735594
 C25     -C24     -C23     -H57     : 178.723569
 C25     -C26     -O27     -C28     :   5.785165
 C26     -C21     -C22     -O29     : 175.838421
 C26     -C25     -C24     -H58     : 177.236503
 C26     -O27     -C28     -H60     : 178.556959
 C26     -O27     -C28     -H61     :  59.849315
 C26     -O27     -C28     -H62     : -63.298094
 O27     -C26     -C25     -H59     :  -5.122494
 O29     -C22     -C23     -H57     :   5.107156
 H31     -C3      -C6      -H32     :-179.565548
 H31     -C3      -C6      -H33     : -61.398195
 H31     -C3      -C10     -H40     :  60.504996
 H31     -C3      -C10     -H41     : 179.497063
 H32     -C6      -C7      -H34     : 173.783646
 H32     -C6      -C7      -H35     :  57.690397
 H33     -C6      -C7      -H34     :  57.369069
 H33     -C6      -C7      -H35     : -58.724180
 H34     -C7      -C8      -H36     :-173.501907
 H34     -C7      -C8      -H37     : -56.909575
 H35     -C7      -C8      -H36     : -56.675780
 H35     -C7      -C8      -H37     :  59.916551
 H36     -C8      -C9      -H38     : 174.143149
 H36     -C8      -C9      -H39     :  56.851228
 H37     -C8      -C9      -H38     :  57.229423
 H37     -C8      -C9      -H39     : -60.062498
 H38     -C9      -C10     -H40     : -56.493209
 H38     -C9      -C10     -H41     :-174.824272
 H39     -C9      -C10     -H40     :  59.591475
 H39     -C9      -C10     -H41     : -58.739588
 H42     -C4      -C11     -H43     :  63.364321
 H42     -C4      -C11     -H44     : 179.672282
 H42     -C4      -C15     -H51     : 179.915962
 H42     -C4      -C15     -H52     : -63.318613
 H43     -C11     -C12     -H45     :  56.996516
 H43     -C11     -C12     -H46     : -59.416198
 H44     -C11     -C12     -H45     : -59.876753
 H44     -C11     -C12     -H46     :-176.289467
 H45     -C12     -C13     -H47     : -60.905446
 H45     -C12     -C13     -H48     :  56.300857
 H46     -C12     -C13     -H47     :  55.819537
 H46     -C12     -C13     -H48     : 173.025840
 H47     -C13     -C14     -H49     :  60.336325
 H47     -C13     -C14     -H50     : -56.243340
 H48     -C13     -C14     -H49     : -56.832318
 H48     -C13     -C14     -H50     :-173.411983
 H49     -C14     -C15     -H51     :  60.694001
 H49     -C14     -C15     -H52     : -56.290076
 H50     -C14     -C15     -H51     : 177.027700
 H50     -C14     -C15     -H52     :  60.043624
 H53     -C16     -C17     -H54     :   0.715947
 H54     -C17     -C18     -H55     :   0.394465
 H55     -C18     -C19     -H56     :  -0.194931
 H57     -C23     -C24     -H58     :  -0.384394
 H58     -C24     -C25     -H59     :   1.055964
 
  nuclear repulsion energy.......    5241.142030430 hartrees
  
  Detected an organometallic with only one TM atom. 
  
  Oxidation state on metal       2 is     2
  Formal multiplet on metal      2 is     1
  Formal charge on ligand        3 is    -1
  Formal multiplet on ligand     3 is     1
  Formal charge on ligand        4 is    -1
  Formal multiplet on ligand     4 is     1
  
 
  Will use High-Quality Initial guess for organometallics
       including d-d repulsion (iguess=30)
 
 Non-default options chosen:
   SCF calculation type: DFT(b3pw91-d3)              
   DFT=Becke_3_Parameter/HF+Slater+Becke88+PW91+PW-GGAIIC (B3PW91-D3)
   Geometry will be optimized in redundant internal coordinates
   Solvation energy will be computed using PBF
     -solute cavity energy will not be included
     -surface area terms will not be included
   Vibrational frequencies and related properties will be computed
      from analytic second derivatives
   IR intensities will be computed
   Thermochemical properties will be computed
   Scaling standard convergence criteria by a factor of   5.00
   Solvent: benzene                                                         
   Internal dielectric constant:    1.000
   Continuum dielectric constant:   2.283
   Solvent probe molecule radius:   2.600
  
 Non-default print settings:
     11=  2
  
 Temporary integer options set:
     21= -1  73=  2
  
  atom       vdw   vdw2    cov     mass  grid  daf  charge   basis
  P1        2.147  2.074  1.060   30.974    Y    Y      Y    6-31g*
  Pd2       1.450  1.450  1.280  105.903    Y    Y      Y    lacv3p*
  Br3       2.095  2.095  1.140   78.918    Y    Y      Y    lav3p*
  C73       1.949  1.900  0.770   12.000    Y    Y      Y    6-31g*
  C74       1.949  1.900  0.770   12.000    Y    Y      Y    6-31g*
  C75       1.949  1.900  0.770   12.000    Y    Y      Y    6-31g*
  C76       1.949  1.900  0.770   12.000    Y    Y      Y    6-31g*
  C77       1.949  1.900  0.770   12.000    Y    Y      Y    6-31g*
  C78       1.949  1.900  0.770   12.000    Y    Y      Y    6-31g*
  F79       1.736  1.682  0.720   18.998    Y    Y      Y    6-31g*
  H80       1.597  1.150  0.320    1.008    Y    Y      Y    6-31g*
  H82       1.597  1.150  0.320    1.008    Y    Y      Y    6-31g*
  H83       1.597  1.150  0.320    1.008    Y    Y      Y    6-31g*
  H14       1.597  1.150  0.320    1.008    Y    Y      Y    6-31g*
  C3        1.949  1.900  0.770   12.000    Y    Y      Y    6-31g*
  C4        1.949  1.900  0.770   12.000    Y    Y      Y    6-31g*
  C5        1.949  1.900  0.770   12.000    Y    Y      Y    6-31g*
  C6        1.949  1.900  0.770   12.000    Y    Y      Y    6-31g*
  C7        1.949  1.900  0.770   12.000    Y    Y      Y    6-31g*
  C8        1.949  1.900  0.770   12.000    Y    Y      Y    6-31g*
  C9        1.949  1.900  0.770   12.000    Y    Y      Y    6-31g*
  C10       1.949  1.900  0.770   12.000    Y    Y      Y    6-31g*
  C11       1.949  1.900  0.770   12.000    Y    Y      Y    6-31g*
  C12       1.949  1.900  0.770   12.000    Y    Y      Y    6-31g*
  C13       1.949  1.900  0.770   12.000    Y    Y      Y    6-31g*
  C14       1.949  1.900  0.770   12.000    Y    Y      Y    6-31g*
  C15       1.949  1.900  0.770   12.000    Y    Y      Y    6-31g*
  C16       1.949  1.900  0.770   12.000    Y    Y      Y    6-31g*
  C17       1.949  1.900  0.770   12.000    Y    Y      Y    6-31g*
  C18       1.949  1.900  0.770   12.000    Y    Y      Y    6-31g*
  C19       1.949  1.900  0.770   12.000    Y    Y      Y    6-31g*
  C20       1.949  1.900  0.770   12.000    Y    Y      Y    6-31g*
  C21       1.949  1.900  0.770   12.000    Y    Y      Y    6-31g*
  C22       1.949  1.900  0.770   12.000    Y    Y      Y    6-31g*
  C23       1.949  1.900  0.770   12.000    Y    Y      Y    6-31g*
  C24       1.949  1.900  0.770   12.000    Y    Y      Y    6-31g*
  C25       1.949  1.900  0.770   12.000    Y    Y      Y    6-31g*
  C26       1.949  1.900  0.770   12.000    Y    Y      Y    6-31g*
  O27       1.702  1.600  0.730   15.995    Y    Y      Y    6-31g*
  C28       1.949  1.900  0.770   12.000    Y    Y      Y    6-31g*
  O29       1.702  1.600  0.730   15.995    Y    Y      Y    6-31g*
  C30       1.949  1.900  0.770   12.000    Y    Y      Y    6-31g*
  H31       1.597  1.150  0.320    1.008    Y    Y      Y    6-31g*
  H32       1.597  1.150  0.320    1.008    Y    Y      Y    6-31g*
  H33       1.597  1.150  0.320    1.008    Y    Y      Y    6-31g*
  H34       1.597  1.150  0.320    1.008    Y    Y      Y    6-31g*
  H35       1.597  1.150  0.320    1.008    Y    Y      Y    6-31g*
  H36       1.597  1.150  0.320    1.008    Y    Y      Y    6-31g*
  H37       1.597  1.150  0.320    1.008    Y    Y      Y    6-31g*
  H38       1.597  1.150  0.320    1.008    Y    Y      Y    6-31g*
  H39       1.597  1.150  0.320    1.008    Y    Y      Y    6-31g*
  H40       1.597  1.150  0.320    1.008    Y    Y      Y    6-31g*
  H41       1.597  1.150  0.320    1.008    Y    Y      Y    6-31g*
  H42       1.597  1.150  0.320    1.008    Y    Y      Y    6-31g*
  H43       1.597  1.150  0.320    1.008    Y    Y      Y    6-31g*
  H44       1.597  1.150  0.320    1.008    Y    Y      Y    6-31g*
  H45       1.597  1.150  0.320    1.008    Y    Y      Y    6-31g*
  H46       1.597  1.150  0.320    1.008    Y    Y      Y    6-31g*
  H47       1.597  1.150  0.320    1.008    Y    Y      Y    6-31g*
  H48       1.597  1.150  0.320    1.008    Y    Y      Y    6-31g*
  H49       1.597  1.150  0.320    1.008    Y    Y      Y    6-31g*
  H50       1.597  1.150  0.320    1.008    Y    Y      Y    6-31g*
  H51       1.597  1.150  0.320    1.008    Y    Y      Y    6-31g*
  H52       1.597  1.150  0.320    1.008    Y    Y      Y    6-31g*
  H53       1.597  1.150  0.320    1.008    Y    Y      Y    6-31g*
  H54       1.597  1.150  0.320    1.008    Y    Y      Y    6-31g*
  H55       1.597  1.150  0.320    1.008    Y    Y      Y    6-31g*
  H56       1.597  1.150  0.320    1.008    Y    Y      Y    6-31g*
  H57       1.597  1.150  0.320    1.008    Y    Y      Y    6-31g*
  H58       1.597  1.150  0.320    1.008    Y    Y      Y    6-31g*
  H59       1.597  1.150  0.320    1.008    Y    Y      Y    6-31g*
  H60       1.597  1.150  0.320    1.008    Y    Y      Y    6-31g*
  H61       1.597  1.150  0.320    1.008    Y    Y      Y    6-31g*
  H62       1.597  1.150  0.320    1.008    Y    Y      Y    6-31g*
  H63       1.597  1.150  0.320    1.008    Y    Y      Y    6-31g*
  H64       1.597  1.150  0.320    1.008    Y    Y      Y    6-31g*
  H65       1.597  1.150  0.320    1.008    Y    Y      Y    6-31g*
 
  atom      formal  2spin      esp    mulk    frag
  P1           0       0        Y    0.000       0
  Pd2          2       0        Y    0.000       0
  Br3         -1       0        Y    0.000       0
  C73         -1       0        Y    0.000       0
  
  end of program pre
   
 Time(pre)  user:        2.0  user+sys:        2.0  wallclock:        2.2
  
  start of program onee
  
  smallest eigenvalue of S:    4.160E-04
  number of canonical orbitals.....          624
  end of program onee
   
 Time(onee)  user:        2.8  user+sys:        2.8  wallclock:        3.3
  
  start of program hfig
  
  initial wavefunction generated automatically from atomic wavefunctions
  Only one state below 0.010000
  Skip d-d repulsion considerations 
 
  Irreducible     Total no   No of occupied orbitals 
  representation  orbitals   Shell_1  Shell_2    ...
  No Symm          624        148
  ------------------------
  Orbital occupation/shell    1.000
 
  end of program hfig
   
 Time(hfig)  user:        0.6  user+sys:        0.6  wallclock:        0.7
  
  start of program probe
  
  end of program probe
   
 Time(probe)  user:        0.3  user+sys:        0.3  wallclock:        0.3
  
  start of program grid
  
   grid     grid set  grid #  grid sym
  ------    --------  ------  --------
  coarse        0        0        1
  medium        2        1        1
  fine          0        0        1
  ultrafine     4        2        1
  charge       -1        3        1
  gradient      4        2        1
  density       0        0        1
  DFT-fine    -11        4        1
  DFT-med.    -10        5        1
  DFT-grad    -12        6        1
  DFT-der2     -8        7        1
  DFT-cphf     -9        8        1
  LMP2-enrg     4        2        1
  LMP2-grad     2        1        1
  DFT-cphf2   -15        9        1
  PBF-dens      0        0        1
  plotting      0        0        1
  Rel-grad    -17        0        1
  
  number of gridpoints: 
     atom        P1      Pd2      Br3      C73      C74      C75      C76
  grid # 1      611      356      516       80       94       96      100
  grid # 2      431      329      507      334      321      323      398
  grid # 3        9      281      461       41       30       28       23
  grid # 4     8714     8714     8714     8714     8714     8714     8714
  grid # 5     1192     1192     1192     1192     1192     1192     1192
  grid # 6     9132     9132     9132     5922     5922     5922     5922
  grid # 7    23034    32968    11582    13950    13950    13950    13950
  grid # 8      722     1150      694      748      748      748      748
  grid # 9      366     2198      358      394      394      394      394
   
  number of gridpoints: 
     atom       C77      C78      F79      H80      H82      H83      H14
  grid # 1       94       93      585      110      103      104      102
  grid # 2      320      320      567      447      411      436      411
  grid # 3       26       33      352      270       77      245      151
  grid # 4     8714     8714     8714     8714     8714     8714     8714
  grid # 5     1192     1192     1192     1192     1192     1192     1192
  grid # 6     5922     5922     5922     5922     5922     5922     5922
  grid # 7    13950    13950    23190    15206    15206    15206    15206
  grid # 8      748      748      770      786      786      786      786
  grid # 9      394      394      420      420      420      420      420
   
  number of gridpoints: 
     atom        C3       C4       C5       C6       C7       C8       C9
  grid # 1       82       80       95       92       92       92       92
  grid # 2      331      331      391      278      280      279      277
  grid # 3        6        6       12        6        6        6        6
  grid # 4     8714     8714     8714     8714     8714     8714     8714
  grid # 5     1192     1192     1192     1192     1192     1192     1192
  grid # 6     5922     5922     5922     5922     5922     5922     5922
  grid # 7    13950    13950    13950    13950    13950    13950    13950
  grid # 8      748      748      748      748      748      748      748
  grid # 9      394      394      394      394      394      394      394
   
  number of gridpoints: 
     atom       C10      C11      C12      C13      C14      C15      C16
  grid # 1       91       90       92       92       92       92       92
  grid # 2      281      282      282      282      282      283      320
  grid # 3        6        6        6        6        6        6       10
  grid # 4     8714     8714     8714     8714     8714     8714     8714
  grid # 5     1192     1192     1192     1192     1192     1192     1192
  grid # 6     5922     5922     5922     5922     5922     5922     5922
  grid # 7    13950    13950    13950    13950    13950    13950    13950
  grid # 8      748      748      748      748      748      748      748
  grid # 9      394      394      394      394      394      394      394
   
  number of gridpoints: 
     atom       C17      C18      C19      C20      C21      C22      C23
  grid # 1       95       97       95      100      100       92       96
  grid # 2      325      324      328      360      364      346      321
  grid # 3       30       44       29       16       10       19       32
  grid # 4     8714     8714     8714     8714     8714     8714     8714
  grid # 5     1192     1192     1192     1192     1192     1192     1192
  grid # 6     5922     5922     5922     5922     5922     5922     5922
  grid # 7    13950    13950    13950    13950    13950    13950    13950
  grid # 8      748      748      748      748      748      748      748
  grid # 9      394      394      394      394      394      394      394
   
  number of gridpoints: 
     atom       C24      C25      C26      O27      C28      O29      C30
  grid # 1       96       96       92      118       76      119       76
  grid # 2      327      325      349      457      225      456      228
  grid # 3       30       33       24       63        6       74        6
  grid # 4     8714     8714     8714     8714     8714     8714     8714
  grid # 5     1192     1192     1192     1192     1192     1192     1192
  grid # 6     5922     5922     5922     5922     5922     5922     5922
  grid # 7    13950    13950    13950    23382    13950    23382    13950
  grid # 8      748      748      748      774      748      774      748
  grid # 9      394      394      394      416      394      416      394
   
  number of gridpoints: 
     atom       H31      H32      H33      H34      H35      H36      H37
  grid # 1      101      103      107      108      112      110      112
  grid # 2      429      420      439      445      455      453      459
  grid # 3       63       99      162      183      326      258      331
  grid # 4     8714     8714     8714     8714     8714     8714     8714
  grid # 5     1192     1192     1192     1192     1192     1192     1192
  grid # 6     5922     5922     5922     5922     5922     5922     5922
  grid # 7    15206    15206    15206    15206    15206    15206    15206
  grid # 8      786      786      786      786      786      786      786
  grid # 9      420      420      420      420      420      420      420
   
  number of gridpoints: 
     atom       H38      H39      H40      H41      H42      H43      H44
  grid # 1      110      112      106       90       96      104       98
  grid # 2      448      456      450      386      399      431      405
  grid # 3      242      328      207       83       62      130       79
  grid # 4     8714     8714     8714     8714     8714     8714     8714
  grid # 5     1192     1192     1192     1192     1192     1192     1192
  grid # 6     5922     5922     5922     5922     5922     5922     5922
  grid # 7    15206    15206    15206    15206    15206    15206    15206
  grid # 8      786      786      786      786      786      786      786
  grid # 9      420      420      420      420      420      420      420
   
  number of gridpoints: 
     atom       H45      H46      H47      H48      H49      H50      H51
  grid # 1      112      106      112      110      112      110      100
  grid # 2      457      434      458      456      457      452      409
  grid # 3      311      128      332      257      324      263       73
  grid # 4     8714     8714     8714     8714     8714     8714     8714
  grid # 5     1192     1192     1192     1192     1192     1192     1192
  grid # 6     5922     5922     5922     5922     5922     5922     5922
  grid # 7    15206    15206    15206    15206    15206    15206    15206
  grid # 8      786      786      786      786      786      786      786
  grid # 9      420      420      420      420      420      420      420
   
  number of gridpoints: 
     atom       H52      H53      H54      H55      H56      H57      H58
  grid # 1       91       98      118      118      116      111      117
  grid # 2      385      404      466      469      457      444      466
  grid # 3       97       74      405      428      341      233      377
  grid # 4     8714     8714     8714     8714     8714     8714     8714
  grid # 5     1192     1192     1192     1192     1192     1192     1192
  grid # 6     5922     5922     5922     5922     5922     5922     5922
  grid # 7    15206    15206    15206    15206    15206    15206    15206
  grid # 8      786      786      786      786      786      786      786
  grid # 9      420      420      420      420      420      420      420
   
  number of gridpoints: 
     atom       H59      H60      H61      H62      H63      H64      H65
  grid # 1      110      107      110      111       93      109      110
  grid # 2      442      451      445      448      383      450      448
  grid # 3      240      279      228      324       43      297      315
  grid # 4     8714     8714     8714     8714     8714     8714     8714
  grid # 5     1192     1192     1192     1192     1192     1192     1192
  grid # 6     5922     5922     5922     5922     5922     5922     5922
  grid # 7    15206    15206    15206    15206    15206    15206    15206
  grid # 8      786      786      786      786      786      786      786
  grid # 9      420      420      420      420      420      420      420
   
  number of gridpoints: 
     atom     total
  grid # 1     9408
  grid # 2    29825
  grid # 3    10459
  grid # 4   670978
  grid # 5    91784
  grid # 6   465624
  grid # 7  1176972
  grid # 8    59474
  grid # 9    33162
   
  end of program grid
   
 Time(grid)  user:      186.9  user+sys:      186.9  wallclock:      187.3
  
  start of program rwr
  
  end of program rwr
   
 Time(rwr)  user:        8.3  user+sys:        8.3  wallclock:        9.2
  
  start of program scf
  
 number of electrons..........        296
 number of alpha electrons....        148
 number of beta electrons.....        148
 number of orbitals, total....        624
 number of doubly-occ'd orbs..        148
 number of open shell orbs....          0
 number of occupied orbitals..        148
 number of virtual orbitals...        476
 number of hamiltonians.......          1
 number of shells.............          1
 SCF type: DFT=Becke_3_Parameter/HF+Slater+Becke88+PW91+PW-GGAIIC (B3PW91-D3)
 Energy computed with NOPS off.
 Convergence Criterion:
    Energy (econv):       1.00E-05
    RMS density (dconv):  5.00E-06
  
       i  u  d  i  g                   
       t  p  i  c  r                                 RMS    maximum
       e  d  i  u  i                       energy  density   DIIS  
       r  t  s  t  d       total energy    change  change    error 
  
etot    1  N  N  5  M   -1969.13627272858           2.2E-03  2.3E-01
etot    2  Y  Y  6  M   -1972.36784453331  3.2E+00  3.2E-03  1.4E-01
etot    3  Y  Y  6  M   -1973.31254753333  9.4E-01  1.5E-03  6.3E-02
etot    4  N  Y  2  U   -1973.69579219358  3.8E-01  7.9E-04  2.8E-02
etot    5  Y  Y  6  M   -1973.81716204977  1.2E-01  5.3E-04  1.7E-02
etot    6  N  Y  2  U   -1973.83145339872  1.4E-02  4.8E-04  8.2E-03
etot    7  Y  Y  6  M   -1973.83105267210 -4.0E-04  1.2E-04  4.1E-03
etot    8  Y  Y  6  M   -1973.83585119442  4.8E-03  3.9E-05  1.2E-03
etot    9  N  Y  2  U   -1973.83674034453  8.9E-04  1.5E-05  2.1E-04
etot   10  N  Y  2  U   -1973.83675076160  1.0E-05  7.4E-06  1.4E-04
etot   11  N  Y  2  U   -1973.83675362975  2.9E-06  3.2E-06  3.8E-05
etot   12  N  N  2  U   -1973.83675435389  7.2E-07  0.0E+00  0.0E+00
 
  Computing the dispersion energy correction and its gradients...
  
  
 Energy components, in hartrees:
   (A)  Nuclear repulsion............    5241.14203042953
   (E)  Total one-electron terms.....  -13186.63203584944
   (F)    Electron-nuclear...........  -15059.99590430270
   (H)    Kinetic....................    1873.36386845325
   (I)  Total two-electron terms.....    5971.65325106603
   (J)    Coulomb....................    6225.69891424638
   (K)    Exchange+Correlation.......    -254.04566318036
   (L)  Electronic energy............   -7214.97878478342  (E+I)
   (N0) D3 correction................      -0.14534787288
   (N)  Total energy.................   -1973.98210222677  (A+L+N0)
   (O)  Gas phase energy.............   -1973.98210222677
  
 SCFE: SCF energy: DFT(b3pw91-d3)     -1973.98210222677 hartrees   iterations:  12
  
 
 HOMO energy:    -0.21409
 LUMO energy:    -0.08340
 
  Orbital energies (hartrees): 
   -77.09503   -24.68368   -19.17606   -19.16734   -10.25121   -10.24249
   -10.24002   -10.23080   -10.20805   -10.20563   -10.20480   -10.20218
   -10.19971   -10.19924   -10.19484   -10.18929   -10.18885   -10.18474
   -10.18379   -10.18053   -10.18033   -10.18011   -10.17899   -10.17804
   -10.17795   -10.17785   -10.17755   -10.17746   -10.17739   -10.17599
   -10.17528   -10.17267   -10.17174   -10.17104   -10.16987   -10.16838
    -6.59503    -4.75275    -4.75260    -4.75023    -3.35358    -2.08983
    -2.08300    -2.05102    -1.21449    -1.07354    -1.06645    -0.87631
    -0.86670    -0.85482    -0.84927    -0.84104    -0.78971    -0.78257
    -0.77265    -0.76236    -0.75643    -0.75324    -0.75005    -0.74732
    -0.74339    -0.74019    -0.70845    -0.69212    -0.67214    -0.66462
    -0.63627    -0.63286    -0.62622    -0.62018    -0.61667    -0.61575
    -0.61297    -0.59693    -0.58642    -0.57620    -0.56725    -0.56476
    -0.55188    -0.53504    -0.51659    -0.50462    -0.49529    -0.49366
    -0.48767    -0.48712    -0.48092    -0.47996    -0.47653    -0.47126
    -0.46951    -0.46692    -0.46222    -0.45672    -0.45380    -0.44950
    -0.44727    -0.44343    -0.44116    -0.43820    -0.43352    -0.42463
    -0.41893    -0.41488    -0.40723    -0.40257    -0.39955    -0.39545
    -0.39458    -0.38991    -0.38647    -0.38346    -0.38036    -0.37806
    -0.37635    -0.36951    -0.36654    -0.36516    -0.36004    -0.35776
    -0.35386    -0.35071    -0.34583    -0.34232    -0.33804    -0.33646
    -0.33482    -0.33133    -0.32350    -0.32122    -0.31742    -0.31403
    -0.30811    -0.30476    -0.30197    -0.28714    -0.28353    -0.28007
    -0.26467    -0.25738    -0.25653    -0.25452    -0.24046    -0.22536
    -0.22349    -0.22169    -0.21888    -0.21409    -0.08340    -0.03928
    -0.02124    -0.01504    -0.00652     0.00028     0.01205     0.01459
     0.02107     0.04633
 
  end of program scf
   
 Time(scf)  user:      270.3  user+sys:      270.3  wallclock:      274.3
  
  start of program der1a
  
  end of program der1a
   
 Time(der1a)  user:        9.6  user+sys:        9.6  wallclock:        9.7
  
  start of program rwr
  
  end of program rwr
   
 Time(rwr)  user:        9.8  user+sys:        9.8  wallclock:       12.2
  
  start of program der1b
  
   
  forces (hartrees/bohr) : total     
   
 atom  label           x              y              z
 ---- --------   -------------  -------------  -------------
    1 P1         -8.338805E-04  -2.920543E-03  -2.909522E-02
    2 Pd2         4.937735E-03   3.839558E-03   1.623133E-02
    3 Br3        -1.952225E-03   5.572535E-04  -1.244188E-02
    4 C73        -4.505035E-03  -1.160636E-03   9.778942E-04
    5 C74         8.813041E-04  -1.010646E-03   1.358702E-03
    6 C75        -4.137392E-03   3.214178E-03   1.874906E-02
    7 C76        -1.084713E-02  -3.736170E-03  -6.083911E-03
    8 C77         1.242344E-02  -1.785191E-02   3.753340E-04
    9 C78        -5.656417E-04  -2.474345E-02   1.271677E-03
   10 F79         6.396625E-03   9.195995E-04   9.287932E-04
   11 H80         4.276761E-04   5.417222E-04   1.639211E-03
   12 H82         9.380937E-03  -1.011641E-02   1.084195E-03
   13 H83        -1.657091E-03  -1.290864E-02   4.488501E-04
   14 H14        -9.430358E-03  -4.208452E-03   1.176348E-02
   15 C3          2.233473E-03   3.685965E-06   7.305327E-03
   16 C4         -5.913941E-04   3.270522E-03  -1.009499E-02
   17 C5         -9.973540E-04   4.136325E-03   1.928453E-03
   18 C6         -3.904593E-05   2.895373E-03  -3.840316E-03
   19 C7          8.009479E-04   1.397628E-03   1.716321E-03
   20 C8         -7.191293E-04  -9.217341E-04  -1.536530E-03
   21 C9          1.205043E-03   6.256688E-04   2.038388E-03
   22 C10         1.064990E-02   2.569223E-03   4.862816E-03
   23 C11        -6.380511E-03  -1.063048E-02   2.777905E-04
   24 C12        -2.191532E-04  -6.268521E-04   1.540017E-03
   25 C13        -1.752767E-04   9.598983E-06   2.507465E-04
   26 C14        -1.617261E-03  -2.550686E-04  -9.609850E-04
   27 C15        -1.211425E-02  -5.207427E-03  -2.229956E-03
   28 C16         6.905610E-03   1.088583E-02  -3.420543E-03
   29 C17         1.864209E-03  -6.401122E-04   4.018468E-03
   30 C18         2.000286E-03  -3.783934E-03   3.811514E-03
   31 C19         1.046381E-03  -2.351407E-03  -2.167353E-04
   32 C20        -1.332180E-03  -1.683554E-03  -5.600917E-03
   33 C21         5.766262E-04  -1.033944E-04   3.793390E-03
   34 C22        -4.652649E-04   2.123196E-03  -3.509129E-03
   35 C23         3.279085E-03  -1.603437E-03  -2.205948E-03
   36 C24        -9.074675E-04  -2.762806E-03  -2.900551E-03
   37 C25        -2.308111E-03  -4.799747E-03  -7.597668E-04
   38 C26        -8.059338E-04   4.358283E-04  -2.587542E-03
   39 O27         3.432895E-04  -7.422482E-04   1.108533E-02
   40 C28        -3.802196E-03   1.382645E-04  -4.242497E-03
   41 O29         7.392296E-03  -3.491328E-03   1.083615E-02
   42 C30        -4.531210E-03   2.463907E-02   1.839839E-03
   43 H31         1.025761E-04  -8.220631E-04  -5.619238E-03
   44 H32         6.246381E-03   8.465015E-03   6.050229E-03
   45 H33         3.065343E-03  -5.159541E-03   1.766755E-03
   46 H34        -2.285049E-03  -4.244971E-03  -2.907642E-03
   47 H35        -1.318438E-03  -1.880935E-03   6.852111E-03
   48 H36         1.968565E-03   4.447896E-03   4.106904E-03
   49 H37        -6.821489E-03  -8.267807E-04   2.109987E-03
   50 H38        -7.382846E-04  -3.014879E-03  -4.160553E-03
   51 H39        -3.578481E-03   5.644531E-03  -8.662634E-04
   52 H40        -9.040007E-04  -2.083801E-03  -3.659596E-03
   53 H41         2.494416E-02   1.597449E-02   1.841600E-02
   54 H42         1.176262E-02   1.087924E-02  -2.264538E-02
   55 H43         4.151655E-03  -1.795211E-03  -4.486462E-03
   56 H44        -1.365511E-02  -1.874563E-02   1.159957E-02
   57 H45         5.834241E-03  -1.497890E-03   2.675684E-03
   58 H46         1.717798E-03   4.463580E-03  -6.194990E-03
   59 H47         3.511923E-03   6.127961E-03   1.884484E-03
   60 H48        -4.186587E-04  -3.120355E-03   3.776582E-03
   61 H49        -3.233509E-03   3.190065E-03   4.808267E-03
   62 H50         1.064974E-03   5.823699E-03  -4.641783E-03
   63 H51        -1.471493E-03  -9.195312E-03   1.160982E-03
   64 H52        -2.958112E-02  -4.838601E-03  -1.206813E-02
   65 H53         6.004511E-03   1.519986E-02  -5.370379E-04
   66 H54         1.683910E-03   1.046527E-03   6.702329E-03
   67 H55         3.006977E-03  -4.998122E-03   3.784557E-03
   68 H56         1.279157E-03  -5.802743E-03  -2.627425E-03
   69 H57         4.424368E-03   1.254917E-03  -4.023671E-03
   70 H58        -1.400503E-03  -1.678602E-03  -6.340368E-03
   71 H59        -6.200830E-03   3.739620E-04  -1.301134E-03
   72 H60        -3.509821E-03   2.020613E-04   5.721557E-03
   73 H61         1.372266E-04   4.649332E-03  -3.163312E-03
   74 H62        -4.985494E-04  -7.740057E-03  -1.602817E-03
   75 H63        -1.195648E-02   4.501664E-02  -1.038170E-02
   76 H64         5.990392E-03   2.526321E-03   2.907202E-03
   77 H65         1.486881E-03  -3.039240E-03  -5.674267E-03
 -------------   -------------  -------------  -------------
     total        2.622218E-03  -1.256500E-03  -1.728971E-04
   
  end of program der1b
   
 Time(der1b)  user:       90.7  user+sys:       90.7  wallclock:       91.1
  
  start of program geopt
  
 ----------------------------------------------------------------------------
  Geometry optimization step   1
  Total energy:     -1973.98210222677 hartrees
 ----------------------------------------------------------------------------
  
  
  Level shifts adjusted to satisfy step-size constraints
   Step size:    0.3000045
   Cos(theta):   0.6961282
   Final level shift:  -8.5057044E-01
  
  gradient maximum:        3.3512E-01 .  (  2.2500E-03 )
  gradient rms:            5.4978E-02 .  (  1.5000E-03 )
  displacement maximum:    8.4549E-02 .  (  9.0000E-03 )
  displacement rms:        1.4426E-02 .  (  6.0000E-03 )
  
  predicted energy change:  -1.1341E-01
  step size:     0.23616
  trust radius:  0.30000
  
  molecular structure not yet converged...
  
  center of mass moved by:
     x:     2.2171E-02     y:    -5.4450E-02     z:    -2.8069E-02
  
  new geometry: 
                                   angstroms
  atom               x                 y                 z
  P1           -0.0753324795     -0.0148820584     -0.0789828272 
  Pd2          -0.0454693255     -0.0402279356      2.2132079089 
  Br3           0.4650714040      0.0119270235      4.7110765823 
  C73          -4.6158224043     -1.3023497862      2.6203205407 
  C74          -3.7467489090     -2.1583901578      1.9684254982 
  C75          -2.3969060471     -1.8172717872      1.8940975630 
  C76          -1.9151268776     -0.6313224997      2.4600863014 
  C77          -2.8158747483      0.1911399565      3.1472593583 
  C78          -4.1722862698     -0.1394344268      3.2271566565 
  F79          -5.9325872375     -1.6096959326      2.6664198740 
  H80          -4.1310659545     -3.0641765351      1.5075895347 
  H82          -2.4482919518      1.0862307746      3.6358991336 
  H83          -4.8864206015      0.4833315100      3.7562046141 
  H14          -1.7077074821     -2.4837196319      1.4021086649 
  C3            1.7174915363      0.1033257836     -0.7401811297 
  C4           -0.8871291846     -1.5850939354     -0.8532179859 
  C5           -0.8402776058      1.4410432079     -0.9770987686 
  C6            1.9176715391      0.5451949192     -2.2041452463 
  C7            3.4136564783      0.7764540905     -2.5065577861 
  C8            4.2693371395     -0.4588611956     -2.1802083017 
  C9            4.0484674091     -0.9090450743     -0.7267006127 
  C10           2.5573426225     -1.1577304254     -0.4265367853 
  C11          -2.3176563193     -1.2518423002     -1.3638456608 
  C12          -3.0729269946     -2.5171896885     -1.8198718060 
  C13          -2.3019114622     -3.2733131681     -2.9117914883 
  C14          -0.8723545797     -3.5868853376     -2.4451741312 
  C15          -0.1329284418     -2.3115575406     -1.9964669717 
  C16          -1.1288754362      1.3002007656     -2.3551482109 
  C17          -1.6620783979      2.3389927555     -3.1201744844 
  C18          -1.9103377630      3.5762454610     -2.5186622469 
  C19          -1.6064960713      3.7446531787     -1.1686521979 
  C20          -1.0753608926      2.7037487050     -0.3771613467 
  C21          -0.7623638109      3.0637953938      1.0374920812 
  C22          -1.8138926025      3.3072810728      1.9445263877 
  C23          -1.5440681351      3.7052654052      3.2635240707 
  C24          -0.2174959199      3.9022127067      3.6555314091 
  C25           0.8462581516      3.7182864372      2.7695870922 
  C26           0.5661920310      3.2929348646      1.4592983477 
  O27           1.5228852434      3.1085137118      0.4896253762 
  C28           2.8850618202      3.2327960860      0.8930194132 
  O29          -3.0689378853      3.1972527070      1.4088417755 
  C30          -4.1678051224      3.1184513478      2.3096278668 
  H31           2.1204804765      0.9001953431     -0.0879258932 
  H32           1.5189993137     -0.2219991819     -2.8955383290 
  H33           1.3677623422      1.4768278286     -2.4085081806 
  H34           3.7704173655      1.6294933305     -1.8965998051 
  H35           3.5387622232      1.0717675135     -3.5651422087 
  H36           3.9924205687     -1.2829119206     -2.8682484792 
  H37           5.3391415383     -0.2449127011     -2.3618275716 
  H38           4.4248501840     -0.1329502987     -0.0334072019 
  H39           4.6251210988     -1.8282987700     -0.5157130048 
  H40           2.4409976520     -1.4286324181      0.6357586827 
  H41           2.2118954599     -2.0072823379     -1.0385090789 
  H42          -0.9778869223     -2.3068631285     -0.0208419793 
  H43          -2.9096464874     -0.7440296214     -0.5870764821 
  H44          -2.2360490526     -0.5441014303     -2.2014249221 
  H45          -4.0780393520     -2.2360069060     -2.1836916162 
  H46          -3.2284332991     -3.1889526361     -0.9513531485 
  H47          -2.8316721282     -4.2039145620     -3.1894116668 
  H48          -2.2576806964     -2.6450858862     -3.8218430034 
  H49          -0.3019552176     -4.0791382094     -3.2547207326 
  H50          -0.9123356020     -4.3100861531     -1.6045964800 
  H51          -0.0308947566     -1.6137226859     -2.8442339187 
  H52           0.8851044957     -2.5895482550     -1.6985861160 
  H53          -0.8859883509      0.3658362887     -2.8631532369 
  H54          -1.8697587545      2.1800308356     -4.1832999656 
  H55          -2.3334323112      4.4038250197     -3.0968149287 
  H56          -1.7845985852      4.7094587394     -0.6852421432 
  H57          -2.3522285815      3.8367988260      3.9837370742 
  H58          -0.0019438179      4.1812458506      4.6905442165 
  H59           1.8711155722      3.8503166729      3.1158621888 
  H60           3.4785967057      3.0254090252     -0.0094772138 
  H61           3.1292636348      2.4965544719      1.6786459778 
  H62           3.1099655884      4.2574813116      1.2462571775 
  H63          -4.0214751940      2.2822638168      3.0082967114 
  H64          -5.0472969131      2.9244801520      1.6793905352 
  H65          -4.3172585646      4.0724286820      2.8537601889 
   
 
  bond lengths (angstroms):
 
 P1      -Pd2     :   2.292525      P1      -C3      :   1.914517
 P1      -C4      :   1.929772      P1      -C5      :   1.873892
 Pd2     -Br3     :   2.550043      Pd2     -C76     :   1.976350
 C73     -C74     :   1.383134      C73     -C78     :   1.384683
 C73     -F79     :   1.352944      C74     -C75     :   1.394260
 C74     -H80     :   1.086517      C75     -C76     :   1.399618
 C75     -H14     :   1.077590      C76     -C77     :   1.399999
 C77     -C78     :   1.398397      C77     -H82     :   1.084008
 C78     -H83     :   1.085227      C3      -C6      :   1.542242
 C3      -C10     :   1.547251      C3      -H31     :   1.105820
 C4      -C11     :   1.555058      C4      -C15     :   1.550350
 C4      -H42     :   1.105458      C5      -C16     :   1.414972
 C5      -C20     :   1.417609      C6      -C7      :   1.543666
 C6      -H32     :   1.107046      C6      -H33     :   1.100956
 C7      -C8      :   1.537757      C7      -H34     :   1.107702
 C7      -H35     :   1.106102      C8      -C9      :   1.537574
 C8      -H36     :   1.108667      C8      -H37     :   1.106002
 C9      -C10     :   1.541232      C9      -H38     :   1.106636
 C9      -H39     :   1.105474      C10     -H40     :   1.102450
 C10     -H41     :   1.102534      C11     -C12     :   1.542562
 C11     -H43     :   1.100771      C11     -H44     :   1.099589
 C12     -C13     :   1.535733      C12     -H45     :   1.105296
 C12     -H46     :   1.108951      C13     -C14     :   1.536129
 C13     -H47     :   1.106227      C13     -H48     :   1.106716
 C14     -C15     :   1.540958      C14     -H49     :   1.105909
 C14     -H50     :   1.109589      C15     -H51     :   1.102766
 C15     -H52     :   1.096541      C16     -C17     :   1.395944
 C16     -H53     :   1.090917      C17     -C18     :   1.397943
 C17     -H54     :   1.094822      C18     -C19     :   1.393990
 C18     -H55     :   1.094604      C19     -C20     :   1.411398
 C19     -H56     :   1.093735      C20     -C21     :   1.492932
 C21     -C22     :   1.409861      C21     -C26     :   1.412617
 C22     -C23     :   1.403906      C22     -O29     :   1.369015
 C23     -C24     :   1.397230      C23     -H57     :   1.090473
 C24     -C25     :   1.396531      C24     -H58     :   1.093423
 C25     -C26     :   1.405780      C25     -H59     :   1.089803
 C26     -O27     :   1.374605      O27     -C28     :   1.426078
 C28     -H60     :   1.099906      C28     -H61     :   1.104036
 C28     -H62     :   1.106950      O29     -C30     :   1.423072
 C30     -H63     :   1.099436      C30     -H64     :   1.099241
 C30     -H65     :   1.108372
 
  bond angles:
 
 C3      -P1      -Pd2     : 109.499237  C4      -P1      -Pd2     : 113.430154
 C4      -P1      -C3      : 107.794806  C5      -P1      -Pd2     : 119.545580
 C5      -P1      -C3      :  99.716289  C5      -P1      -C4      : 105.555830
 Br3     -Pd2     -P1      : 169.045578  C76     -Pd2     -P1      :  96.654478
 C76     -Pd2     -Br3     :  94.195335  C78     -C73     -C74     : 121.673485
 F79     -C73     -C74     : 119.143313  F79     -C73     -C78     : 119.183198
 C75     -C74     -C73     : 118.817559  H80     -C74     -C73     : 119.578582
 H80     -C74     -C75     : 121.587368  C76     -C75     -C74     : 121.265657
 H14     -C75     -C74     : 119.486997  H14     -C75     -C76     : 119.243314
 C75     -C76     -Pd2     : 121.907512  C77     -C76     -Pd2     : 119.621501
 C77     -C76     -C75     : 118.346857  C78     -C77     -C76     : 120.880046
 H82     -C77     -C76     : 119.220688  H82     -C77     -C78     : 119.891368
 C77     -C78     -C73     : 118.959690  H83     -C78     -C73     : 119.000184
 H83     -C78     -C77     : 122.038525  C6      -C3      -P1      : 117.844203
 C10     -C3      -P1      : 112.828203  C10     -C3      -C6      : 110.823004
 H31     -C3      -P1      : 100.489034  H31     -C3      -C6      : 107.826469
 H31     -C3      -C10     : 105.660981  C11     -C4      -P1      : 110.142227
 C15     -C4      -P1      : 118.195646  C15     -C4      -C11     : 107.805719
 H42     -C4      -P1      : 105.289894  H42     -C4      -C11     : 108.158388
 H42     -C4      -C15     : 106.812822  C16     -C5      -P1      : 118.209391
 C20     -C5      -P1      : 123.842791  C20     -C5      -C16     : 117.839643
 C7      -C6      -C3      : 110.773433  H32     -C6      -C3      : 110.337014
 H32     -C6      -C7      : 109.297274  H33     -C6      -C3      : 110.720909
 H33     -C6      -C7      : 108.718537  H33     -C6      -H32     : 106.895293
 C8      -C7      -C6      : 112.168796  H34     -C7      -C6      : 108.639875
 H34     -C7      -C8      : 108.817761  H35     -C7      -C6      : 109.700186
 H35     -C7      -C8      : 110.771740  H35     -C7      -H34     : 106.556618
 C9      -C8      -C7      : 110.848124  H36     -C8      -C7      : 109.050501
 H36     -C8      -C9      : 109.461092  H37     -C8      -C7      : 110.364325
 H37     -C8      -C9      : 110.537408  H37     -C8      -H36     : 106.467521
 C10     -C9      -C8      : 111.735877  H38     -C9      -C8      : 109.757638
 H38     -C9      -C10     : 108.675303  H39     -C9      -C8      : 110.423571
 H39     -C9      -C10     : 109.471087  H39     -C9      -H38     : 106.629828
 C9      -C10     -C3      : 110.742389  H40     -C10     -C3      : 109.774489
 H40     -C10     -C9      : 109.233190  H41     -C10     -C3      : 110.208001
 H41     -C10     -C9      : 108.624506  H41     -C10     -H40     : 108.205924
 C12     -C11     -C4      : 111.820284  H43     -C11     -C4      : 111.215518
 H43     -C11     -C12     : 108.887858  H44     -C11     -C4      : 108.649828
 H44     -C11     -C12     : 109.823470  H44     -C11     -H43     : 106.290085
 C13     -C12     -C11     : 111.607900  H45     -C12     -C11     : 109.504018
 H45     -C12     -C13     : 110.350456  H46     -C12     -C11     : 109.513397
 H46     -C12     -C13     : 109.208457  H46     -C12     -H45     : 106.521847
 C14     -C13     -C12     : 110.594217  H47     -C13     -C12     : 110.621682
 H47     -C13     -C14     : 110.498010  H48     -C13     -C12     : 108.980258
 H48     -C13     -C14     : 109.175650  H48     -C13     -H47     : 106.876118
 C15     -C14     -C13     : 111.473218  H49     -C14     -C13     : 110.395180
 H49     -C14     -C15     : 109.514453  H50     -C14     -C13     : 109.246440
 H50     -C14     -C15     : 109.640651  H50     -C14     -H49     : 106.440488
 C14     -C15     -C4      : 111.660089  H51     -C15     -C4      : 108.384250
 H51     -C15     -C14     : 110.136954  H52     -C15     -C4      : 111.722537
 H52     -C15     -C14     : 108.347567  H52     -C15     -H51     : 106.461064
 C17     -C16     -C5      : 122.518352  H53     -C16     -C5      : 119.561604
 H53     -C16     -C17     : 117.852758  C18     -C17     -C16     : 119.382281
 H54     -C17     -C16     : 119.773901  H54     -C17     -C18     : 120.840080
 C19     -C18     -C17     : 119.007450  H55     -C18     -C17     : 120.698559
 H55     -C18     -C19     : 120.293607  C20     -C19     -C18     : 122.413093
 H56     -C19     -C18     : 119.941288  H56     -C19     -C20     : 117.644594
 C19     -C20     -C5      : 118.815498  C21     -C20     -C5      : 125.525293
 C21     -C20     -C19     : 115.621044  C22     -C21     -C20     : 119.663192
 C26     -C21     -C20     : 121.281239  C26     -C21     -C22     : 118.772824
 C23     -C22     -C21     : 120.667260  O29     -C22     -C21     : 114.716574
 O29     -C22     -C23     : 124.513864  C24     -C23     -C22     : 119.079773
 H57     -C23     -C22     : 120.815196  H57     -C23     -C24     : 120.088121
 C25     -C24     -C23     : 121.778941  H58     -C24     -C23     : 119.255813
 H58     -C24     -C25     : 118.943686  C26     -C25     -C24     : 118.645864
 H59     -C25     -C24     : 119.920044  H59     -C25     -C26     : 121.343423
 C25     -C26     -C21     : 120.981794  O27     -C26     -C21     : 114.971098
 O27     -C26     -C25     : 124.017099  C28     -O27     -C26     : 116.972115
 H60     -C28     -O27     : 105.480511  H61     -C28     -O27     : 110.759761
 H61     -C28     -H60     : 109.802732  H62     -C28     -O27     : 111.408171
 H62     -C28     -H60     : 109.070765  H62     -C28     -H61     : 110.199387
 C30     -O29     -C22     : 117.688457  H63     -C30     -O29     : 109.973884
 H64     -C30     -O29     : 105.347268  H64     -C30     -H63     : 109.671405
 H65     -C30     -O29     : 111.543793  H65     -C30     -H63     : 111.136218
 H65     -C30     -H64     : 108.993625
 
  torsional angles:
 
 P1      -Pd2     -C76     -C75     :  56.881342
 P1      -Pd2     -C76     -C77     :-119.000268
 P1      -C3      -C6      -C7      : 172.035241
 P1      -C3      -C6      -H32     : -66.797211
 P1      -C3      -C6      -H33     :  51.340303
 P1      -C3      -C10     -C9      :-168.900946
 P1      -C3      -C10     -H40     : -48.205575
 P1      -C3      -C10     -H41     :  70.880515
 P1      -C4      -C11     -C12     :-172.456372
 P1      -C4      -C11     -H43     : -50.486483
 P1      -C4      -C11     -H44     :  66.166370
 P1      -C4      -C15     -C14     : 176.647611
 P1      -C4      -C15     -H51     : -61.863516
 P1      -C4      -C15     -H52     :  55.126742
 P1      -C5      -C16     -C17     :-178.074502
 P1      -C5      -C16     -H53     :  -1.123091
 P1      -C5      -C20     -C19     : 177.378421
 P1      -C5      -C20     -C21     :  -0.269983
 Pd2     -P1      -C3      -C6      :-162.442316
 Pd2     -P1      -C3      -C10     :  66.368535
 Pd2     -P1      -C3      -H31     : -45.705024
 Pd2     -P1      -C4      -C11     : 103.818198
 Pd2     -P1      -C4      -C15     :-131.696479
 Pd2     -P1      -C4      -H42     : -12.566660
 Pd2     -P1      -C5      -C16     :-165.503316
 Pd2     -P1      -C5      -C20     :  18.366323
 Pd2     -C76     -C75     -C74     :-173.812679
 Pd2     -C76     -C75     -H14     :   6.921678
 Pd2     -C76     -C77     -C78     : 173.839900
 Pd2     -C76     -C77     -H82     :  -7.183549
 Br3     -Pd2     -P1      -C3      :   5.952268
 Br3     -Pd2     -P1      -C4      : 126.402735
 Br3     -Pd2     -P1      -C5      :-108.033756
 Br3     -Pd2     -C76     -C75     :-121.605765
 Br3     -Pd2     -C76     -C77     :  62.512625
 C73     -C74     -C75     -C76     :  -0.209269
 C73     -C74     -C75     -H14     : 179.054614
 C73     -C78     -C77     -C76     :   0.356609
 C73     -C78     -C77     -H82     :-178.613125
 C74     -C73     -C78     -C77     :   1.647484
 C74     -C73     -C78     -H83     :-177.901630
 C74     -C75     -C76     -C77     :   2.119461
 C75     -C74     -C73     -C78     :  -1.720170
 C75     -C74     -C73     -F79     : 178.304810
 C75     -C76     -C77     -C78     :  -2.187888
 C75     -C76     -C77     -H82     : 176.788663
 C76     -Pd2     -P1      -C3      :-166.082942
 C76     -Pd2     -P1      -C4      : -45.632475
 C76     -Pd2     -P1      -C5      :  79.931033
 C76     -C75     -C74     -H80     : 178.306829
 C76     -C77     -C78     -H83     : 179.891401
 C77     -C76     -C75     -H14     :-177.146182
 C77     -C78     -C73     -F79     :-178.377505
 C78     -C73     -C74     -H80     : 179.733291
 F79     -C73     -C74     -H80     :  -0.241730
 F79     -C73     -C78     -H83     :   2.073381
 H80     -C74     -C75     -H14     :  -2.429288
 H82     -C77     -C78     -H83     :   0.921667
 C3      -P1      -C4      -C11     :-134.771418
 C3      -P1      -C4      -C15     : -10.286095
 C3      -P1      -C4      -H42     : 108.843724
 C3      -P1      -C5      -C16     :  75.397280
 C3      -P1      -C5      -C20     :-100.733081
 C3      -C6      -C7      -C8      :  55.276214
 C3      -C6      -C7      -H34     : -65.057065
 C3      -C6      -C7      -H35     : 178.825615
 C3      -C10     -C9      -C8      : -56.184506
 C3      -C10     -C9      -H38     :  65.073597
 C3      -C10     -C9      -H39     :-178.827744
 C4      -P1      -C3      -C6      :  73.731568
 C4      -P1      -C3      -C10     : -57.457581
 C4      -P1      -C3      -H31     :-169.531140
 C4      -P1      -C5      -C16     : -36.288169
 C4      -P1      -C5      -C20     : 147.581470
 C4      -C11     -C12     -C13     : -56.946221
 C4      -C11     -C12     -H45     :-179.433389
 C4      -C11     -C12     -H46     :  64.105015
 C4      -C15     -C14     -C13     :  57.908280
 C4      -C15     -C14     -H49     :-179.631030
 C4      -C15     -C14     -H50     : -63.188694
 C5      -P1      -C3      -C6      : -36.188490
 C5      -P1      -C3      -C10     :-167.377639
 C5      -P1      -C3      -H31     :  80.548802
 C5      -P1      -C4      -C11     : -28.908442
 C5      -P1      -C4      -C15     :  95.576881
 C5      -P1      -C4      -H42     :-145.293300
 C5      -C16     -C17     -C18     :   0.799411
 C5      -C16     -C17     -H54     :-179.897816
 C5      -C20     -C19     -C18     :   0.092881
 C5      -C20     -C19     -H56     : 179.723845
 C5      -C20     -C21     -C22     :-111.763486
 C5      -C20     -C21     -C26     :  74.419349
 C6      -C3      -C10     -C9      :  56.489680
 C6      -C3      -C10     -H40     : 177.185050
 C6      -C3      -C10     -H41     : -63.728859
 C6      -C7      -C8      -C9      : -54.500472
 C6      -C7      -C8      -H36     :  66.074779
 C6      -C7      -C8      -H37     :-177.305513
 C7      -C6      -C3      -C10     : -55.872321
 C7      -C6      -C3      -H31     :  59.321201
 C7      -C8      -C9      -C10     :  54.896035
 C7      -C8      -C9      -H38     : -65.732788
 C7      -C8      -C9      -H39     : 176.993934
 C8      -C7      -C6      -H32     : -66.503402
 C8      -C7      -C6      -H33     : 177.152362
 C8      -C9      -C10     -H40     :-177.200788
 C8      -C9      -C10     -H41     :  64.974509
 C9      -C8      -C7      -H34     :  65.729521
 C9      -C8      -C7      -H35     :-177.447313
 C9      -C10     -C3      -H31     : -60.047671
 C10     -C3      -C6      -H32     :  65.295227
 C10     -C3      -C6      -H33     :-176.567259
 C10     -C9      -C8      -H36     : -65.435262
 C10     -C9      -C8      -H37     : 177.600750
 C11     -C4      -C15     -C14     : -57.722121
 C11     -C4      -C15     -H51     :  63.766752
 C11     -C4      -C15     -H52     :-179.242990
 C11     -C12     -C13     -C14     :  54.326292
 C11     -C12     -C13     -H47     : 177.084251
 C11     -C12     -C13     -H48     : -65.693758
 C12     -C11     -C4      -C15     :  57.274066
 C12     -C11     -C4      -H42     : -57.880356
 C12     -C13     -C14     -C15     : -54.781360
 C12     -C13     -C14     -H49     :-176.734389
 C12     -C13     -C14     -H50     :  66.545289
 C13     -C12     -C11     -H43     : 179.757020
 C13     -C12     -C11     -H44     :  63.750415
 C13     -C14     -C15     -H51     : -62.560422
 C13     -C14     -C15     -H52     :-178.637687
 C14     -C13     -C12     -H45     : 176.326994
 C14     -C13     -C12     -H46     : -66.902293
 C14     -C15     -C4      -H42     :  58.317162
 C15     -C4      -C11     -H43     : 179.243955
 C15     -C4      -C11     -H44     : -64.103192
 C15     -C14     -C13     -H47     :-177.611314
 C15     -C14     -C13     -H48     :  65.121462
 C16     -C5      -C20     -C19     :   1.234771
 C16     -C5      -C20     -C21     :-176.413633
 C16     -C17     -C18     -C19     :   0.580168
 C16     -C17     -C18     -H55     :-179.644743
 C17     -C16     -C5      -C20     :  -1.708863
 C17     -C18     -C19     -C20     :  -1.026662
 C17     -C18     -C19     -H56     : 179.350596
 C18     -C17     -C16     -H53     :-176.201440
 C18     -C19     -C20     -C21     : 177.970419
 C19     -C18     -C17     -H54     :-178.714980
 C19     -C20     -C21     -C22     :  70.521576
 C19     -C20     -C21     -C26     :-103.295590
 C20     -C5      -C16     -H53     : 175.242547
 C20     -C19     -C18     -H55     : 179.197314
 C20     -C21     -C22     -C23     :-177.146813
 C20     -C21     -C22     -O29     :  -0.662353
 C20     -C21     -C26     -C25     : 175.717091
 C20     -C21     -C26     -O27     :  -2.367904
 C21     -C20     -C19     -H56     :  -2.398617
 C21     -C22     -C23     -C24     :   2.170027
 C21     -C22     -C23     -H57     :-176.335404
 C21     -C22     -O29     -C30     : 165.658999
 C21     -C26     -C25     -C24     :   0.461866
 C21     -C26     -C25     -H59     : 176.995937
 C21     -C26     -O27     -C28     :-175.546921
 C22     -C21     -C26     -C25     :   1.846214
 C22     -C21     -C26     -O27     :-176.238781
 C22     -C23     -C24     -C25     :   0.222785
 C22     -C23     -C24     -H58     :-178.069845
 C22     -O29     -C30     -H63     : -55.758979
 C22     -O29     -C30     -H64     :-173.869045
 C22     -O29     -C30     -H65     :  68.018644
 C23     -C22     -C21     -C26     :  -3.174547
 C23     -C22     -O29     -C30     : -18.011002
 C23     -C24     -C25     -C26     :  -1.523000
 C23     -C24     -C25     -H59     :-178.107747
 C24     -C23     -C22     -O29     :-173.953824
 C24     -C25     -C26     -O27     : 178.367382
 C25     -C24     -C23     -H57     : 178.739327
 C25     -C26     -O27     -C28     :   6.433865
 C26     -C21     -C22     -O29     : 173.309912
 C26     -C25     -C24     -H58     : 176.774800
 C26     -O27     -C28     -H60     : 178.536042
 C26     -O27     -C28     -H61     :  59.789989
 C26     -O27     -C28     -H62     : -63.251295
 O27     -C26     -C25     -H59     :  -5.098547
 O29     -C22     -C23     -H57     :   7.540745
 H31     -C3      -C6      -H32     :-179.511251
[...]
    H58      Y     0.25644  0.00230 -0.00022  0.00070 -0.00037 -0.00011
    H58      Z     0.86502  0.00782 -0.00070  0.00240 -0.00109 -0.00040
    H59      X    -0.09915 -0.00062  0.00006  0.00073  0.00010 -0.00001
    H59      Y    -0.00990 -0.00007  0.00004  0.00003  0.00001 -0.00001
    H59      Z    -0.08452 -0.00061  0.00005  0.00044  0.00013  0.00003
    H60      X     0.01042  0.00091  0.00021  0.00022 -0.00007 -0.00037
    H60      Y    -0.00420 -0.00034 -0.00007 -0.00006  0.00003  0.00013
    H60      Z    -0.00862 -0.00074 -0.00016 -0.00020  0.00004  0.00027
    H61      X    -0.00120 -0.00002  0.00001 -0.00003 -0.00003 -0.00005
    H61      Y     0.00494  0.00003  0.00007 -0.00002  0.00007  0.00004
    H61      Z    -0.01114 -0.00002 -0.00008  0.00001 -0.00014 -0.00012
    H62      X    -0.00004  0.00003  0.00003  0.00007 -0.00001 -0.00005
    H62      Y    -0.00122 -0.00076 -0.00013 -0.00115 -0.00044 -0.00036
    H62      Z     0.00041 -0.00003  0.00002 -0.00009 -0.00004 -0.00006
    H63      X     0.00112 -0.00032  0.00004 -0.00031  0.00017 -0.00003
    H63      Y     0.00447 -0.00048  0.00005 -0.00070  0.00016 -0.00007
    H63      Z    -0.00494  0.00066 -0.00009  0.00087 -0.00038  0.00008
    H64      X    -0.00745 -0.00050  0.00013  0.00068  0.00052  0.00016
    H64      Y    -0.00303 -0.00013  0.00004  0.00035  0.00015  0.00006
    H64      Z    -0.01192 -0.00071  0.00018  0.00093  0.00076  0.00023
    H65      X     0.00049 -0.00006  0.00000  0.00001 -0.00001  0.00001
    H65      Y    -0.00549  0.00001  0.00005 -0.00023  0.00043 -0.00005
    H65      Z    -0.00150 -0.00002  0.00000 -0.00019  0.00008 -0.00002
  
  vibration #          223      224      225
                  -------- -------- --------
  frequencies      3232.62  3245.87  3253.75
  intensities         4.06     6.63     0.06
  reduc. mass         0.81     0.86     0.88
  force const         4.98     5.32     5.48
    P1       X    -0.00000 -0.00001  0.00000
    P1       Y     0.00001  0.00004 -0.00001
    P1       Z    -0.00000  0.00015  0.00000
    Pd2      X    -0.00000  0.00000  0.00000
    Pd2      Y     0.00000 -0.00000 -0.00000
    Pd2      Z     0.00000 -0.00000  0.00000
    Br3      X     0.00000  0.00000  0.00001
    Br3      Y    -0.00001  0.00000 -0.00003
    Br3      Z     0.00000  0.00000  0.00000
    C73      X     0.00000  0.00001  0.00000
    C73      Y     0.00003  0.00001 -0.00000
    C73      Z    -0.00000 -0.00000 -0.00000
    C74      X    -0.00002 -0.00002 -0.00000
    C74      Y     0.00005  0.00008  0.00000
    C74      Z     0.00000 -0.00000 -0.00000
    C75      X    -0.00003 -0.00009 -0.00000
    C75      Y    -0.00000  0.00001 -0.00000
    C75      Z     0.00001  0.00002 -0.00000
    C76      X    -0.00000  0.00002 -0.00000
    C76      Y     0.00002  0.00002  0.00001
    C76      Z    -0.00000 -0.00001  0.00000
    C77      X     0.00012  0.00001 -0.00001
    C77      Y    -0.00046 -0.00005  0.00004
    C77      Z     0.00001  0.00000 -0.00000
    C78      X     0.00041  0.00006 -0.00002
    C78      Y    -0.00008 -0.00002  0.00000
    C78      Z    -0.00011 -0.00002  0.00000
    F79      X    -0.00000 -0.00001 -0.00000
    F79      Y    -0.00001 -0.00001 -0.00000
    F79      Z     0.00000  0.00000 -0.00000
    H80      X     0.00017  0.00026  0.00001
    H80      Y    -0.00060 -0.00089 -0.00003
    H80      Z     0.00001  0.00002  0.00000
    H82      X    -0.00142 -0.00014  0.00014
    H82      Y     0.00504  0.00052 -0.00059
    H82      Z    -0.00004  0.00001 -0.00000
    H83      X    -0.00458 -0.00075  0.00013
    H83      Y     0.00092  0.00016 -0.00003
    H83      Z     0.00122  0.00021 -0.00003
    H14      X     0.00022  0.00087  0.00000
    H14      Y    -0.00003 -0.00019  0.00001
    H14      Z    -0.00006 -0.00021  0.00002
    C3       X    -0.00000  0.00001  0.00000
    C3       Y    -0.00000 -0.00009  0.00001
    C3       Z     0.00000  0.00006 -0.00001
    C4       X     0.00000  0.00009 -0.00000
    C4       Y     0.00000 -0.00031  0.00001
    C4       Z     0.00000  0.00028 -0.00001
    C5       X     0.00000 -0.00014  0.00000
    C5       Y     0.00002  0.00029 -0.00001
    C5       Z    -0.00001 -0.00279  0.00000
    C6       X     0.00000 -0.00046  0.00000
    C6       Y     0.00002 -0.00240 -0.00000
    C6       Z     0.00000  0.00022  0.00000
    C7       X    -0.00000  0.00002  0.00000
    C7       Y     0.00000  0.00011  0.00000
    C7       Z     0.00001 -0.00008  0.00000
    C8       X    -0.00001 -0.00004  0.00000
    C8       Y     0.00001 -0.00002 -0.00000
    C8       Z     0.00000 -0.00000 -0.00000
    C9       X    -0.00000 -0.00001  0.00000
    C9       Y     0.00001 -0.00002  0.00000
    C9       Z    -0.00000  0.00001  0.00000
    C10      X     0.00001  0.00004 -0.00000
    C10      Y     0.00001  0.00002 -0.00000
    C10      Z    -0.00000  0.00004  0.00001
    C11      X    -0.00000  0.00001  0.00000
    C11      Y     0.00000 -0.00005 -0.00001
    C11      Z    -0.00000  0.00021  0.00000
    C12      X     0.00003  0.00000 -0.00000
    C12      Y    -0.00001 -0.00003 -0.00000
    C12      Z    -0.00000  0.00003  0.00000
    C13      X     0.00000 -0.00001 -0.00000
    C13      Y     0.00001 -0.00009 -0.00000
    C13      Z     0.00000  0.00007 -0.00000
    C14      X     0.00000  0.00002 -0.00000
    C14      Y     0.00001 -0.00014 -0.00000
    C14      Z     0.00000  0.00016 -0.00000
    C15      X    -0.00001  0.00121  0.00000
    C15      Y     0.00001 -0.00137 -0.00000
    C15      Z    -0.00001  0.00154 -0.00000
    C16      X     0.00006 -0.02535  0.00006
    C16      Y    -0.00018  0.06705 -0.00015
    C16      Z    -0.00011  0.03849 -0.00008
    C17      X    -0.00000  0.00052 -0.00000
    C17      Y     0.00001 -0.00143  0.00000
    C17      Z     0.00001  0.01774 -0.00005
    C18      X     0.00004  0.00137 -0.00002
    C18      Y    -0.00012 -0.00361  0.00005
    C18      Z     0.00009  0.00112 -0.00005
    C19      X     0.00001  0.00084 -0.00004
    C19      Y    -0.00002 -0.00203  0.00009
    C19      Z    -0.00004 -0.00150  0.00008
    C20      X     0.00005  0.00022  0.00003
    C20      Y    -0.00002 -0.00055 -0.00000
    C20      Z     0.00005 -0.00035 -0.00003
    C21      X    -0.00051 -0.00001 -0.00038
    C21      Y     0.00005  0.00003 -0.00006
    C21      Z     0.00003 -0.00001 -0.00026
    C22      X    -0.00002  0.00005 -0.00001
    C22      Y     0.00094  0.00001 -0.00009
    C22      Z     0.00337  0.00006 -0.00025
    C23      X     0.07465  0.00015 -0.00501
    C23      Y    -0.01107 -0.00003  0.00042
    C23      Z    -0.02863 -0.00008  0.00092
    C24      X     0.00049 -0.00000 -0.00490
    C24      Y    -0.00622 -0.00000  0.00412
    C24      Z    -0.02123 -0.00001  0.01340
    C25      X     0.00470  0.00017  0.06423
    C25      Y     0.00090  0.00002  0.00644
    C25      Z     0.00546  0.00014  0.05189
    C26      X    -0.00006 -0.00004  0.00082
    C26      Y    -0.00010  0.00000 -0.00113
    C26      Z    -0.00013 -0.00000 -0.00326
    O27      X    -0.00002  0.00002 -0.00001
    O27      Y     0.00003 -0.00000  0.00017
    O27      Z     0.00001  0.00000  0.00035
    C28      X    -0.00017 -0.00005 -0.00058
    C28      Y     0.00005 -0.00000  0.00014
    C28      Z     0.00053  0.00002  0.00241
    O29      X     0.00011 -0.00002 -0.00009
    O29      Y    -0.00011 -0.00000 -0.00000
    O29      Z    -0.00036 -0.00002 -0.00003
    C30      X    -0.00020  0.00004  0.00006
    C30      Y    -0.00054  0.00001 -0.00002
    C30      Z    -0.00253  0.00000 -0.00001
    H31      X    -0.00002  0.00002  0.00001
    H31      Y     0.00000  0.00049 -0.00003
    H31      Z    -0.00000  0.00065 -0.00000
    H32      X    -0.00004  0.00145 -0.00002
    H32      Y    -0.00004  0.00495 -0.00004
    H32      Z    -0.00005  0.00365 -0.00003
    H33      X     0.00002 -0.00564  0.00001
    H33      Y    -0.00018  0.02458  0.00004
    H33      Z     0.00007 -0.00873 -0.00002
    H34      X    -0.00001  0.00024 -0.00004
    H34      Y    -0.00001 -0.00004 -0.00004
    H34      Z    -0.00000  0.00002 -0.00003
    H35      X     0.00002  0.00014  0.00000
    H35      Y     0.00001 -0.00008 -0.00000
    H35      Z    -0.00008  0.00011 -0.00001
    H36      X    -0.00003  0.00013 -0.00001
    H36      Y    -0.00003  0.00024 -0.00002
    H36      Z    -0.00003  0.00014 -0.00002
    H37      X     0.00008 -0.00030 -0.00003
    H37      Y    -0.00001  0.00028  0.00001
    H37      Z    -0.00001 -0.00005  0.00000
    H38      X    -0.00002 -0.00000 -0.00005
    H38      Y    -0.00001 -0.00002 -0.00006
    H38      Z    -0.00001 -0.00001 -0.00004
    H39      X     0.00003  0.00006 -0.00001
    H39      Y    -0.00010  0.00008  0.00001
    H39      Z     0.00003 -0.00008 -0.00001
    H40      X    -0.00000  0.00016  0.00003
    H40      Y     0.00001  0.00014  0.00000
    H40      Z     0.00002 -0.00097 -0.00007
    H41      X    -0.00005 -0.00009 -0.00001
    H41      Y    -0.00007 -0.00011 -0.00001
    H41      Z    -0.00005 -0.00006 -0.00002
    H42      X    -0.00002 -0.00066  0.00002
    H42      Y    -0.00003  0.00204 -0.00002
    H42      Z    -0.00001 -0.00238  0.00006
    H43      X     0.00005  0.00023 -0.00001
    H43      Y     0.00002 -0.00057 -0.00000
    H43      Z    -0.00003 -0.00160  0.00001
    H44      X     0.00004 -0.00053 -0.00003
    H44      Y    -0.00005  0.00127  0.00005
    H44      Z     0.00008 -0.00075 -0.00007
    H45      X    -0.00032  0.00006  0.00002
    H45      Y     0.00009 -0.00003 -0.00001
    H45      Z     0.00002 -0.00003 -0.00000
    H46      X     0.00001 -0.00007 -0.00000
    H46      Y    -0.00003  0.00037  0.00003
    H46      Z     0.00002 -0.00041 -0.00003
    H47      X    -0.00007  0.00036  0.00001
    H47      Y    -0.00008  0.00046  0.00002
    H47      Z    -0.00001 -0.00007  0.00000
    H48      X     0.00000 -0.00042 -0.00001
    H48      Y     0.00001  0.00059  0.00001
    H48      Z    -0.00000 -0.00074 -0.00002
    H49      X    -0.00001 -0.00002  0.00000
    H49      Y    -0.00002 -0.00036  0.00000
    H49      Z    -0.00004 -0.00060  0.00001
    H50      X     0.00000 -0.00041 -0.00000
    H50      Y    -0.00003  0.00231  0.00001
    H50      Z     0.00003 -0.00193 -0.00001
    H51      X     0.00003 -0.00318 -0.00001
    H51      Y    -0.00009  0.02047 -0.00000
    H51      Z     0.00012 -0.02119 -0.00001
    H52      X     0.00002 -0.00796 -0.00002
    H52      Y     0.00000  0.00268  0.00001
    H52      Z     0.00000  0.00118  0.00000
    H53      X    -0.00078  0.29315 -0.00068
    H53      Y     0.00200 -0.76779  0.00176
    H53      Z     0.00110 -0.44459  0.00107
    H54      X     0.00003  0.00228 -0.00001
    H54      Y    -0.00002 -0.00503  0.00003
    H54      Z    -0.00020 -0.17902  0.00055
    H55      X    -0.00052 -0.01159  0.00024
    H55      Y     0.00141  0.03102 -0.00066
    H55      Z    -0.00095 -0.01843  0.00047
    H56      X     0.00001 -0.00930  0.00036
    H56      Y     0.00014  0.02203 -0.00087
    H56      Z     0.00015  0.01335 -0.00055
    H57      X    -0.85123 -0.00190  0.04848
    H57      Y     0.12556  0.00030 -0.00678
    H57      Z     0.32380  0.00078 -0.01734
    H58      X    -0.03106 -0.00001  0.02453
    H58      Y     0.06519  0.00005 -0.04049
    H58      Z     0.22055  0.00015 -0.13776
    H59      X    -0.06730 -0.00192 -0.72850
    H59      Y    -0.00648 -0.00017 -0.06603
    H59      Z    -0.05661 -0.00150 -0.58948
    H60      X     0.00267  0.00041  0.01046
    H60      Y    -0.00119 -0.00015 -0.00556
    H60      Z    -0.00238 -0.00032 -0.01002
    H61      X    -0.00037  0.00003 -0.00052
    H61      Y     0.00185  0.00002  0.00878
    H61      Z    -0.00427  0.00000 -0.02334
    H62      X     0.00006  0.00000  0.00061
    H62      Y    -0.00158  0.00013 -0.00670
    H62      Z     0.00013  0.00003  0.00065
    H63      X    -0.00261 -0.00005 -0.00017
    H63      Y    -0.01120 -0.00010 -0.00015
    H63      Z     0.01390  0.00016  0.00005
    H64      X     0.00996 -0.00021 -0.00016
    H64      Y     0.00475 -0.00006 -0.00010
    H64      Z     0.01830 -0.00028 -0.00036
    H65      X    -0.00109 -0.00003 -0.00017
    H65      Y     0.01489  0.00008  0.00033
    H65      Z     0.00516  0.00005  0.00003
  
  Number of imaginary frequencies:   1
   
  Writing vibrational animation data to ox_add_Ar_trans_L1_PL145_2.vib
  Writing IR vibrational spectrum data to ox_add_Ar_trans_L1_PL145_2_vib.spm
  rotational symmetry number:  1

  rotational temperatures (K):      0.003964      0.003789      0.003582
   
  The Quasi-Harmonic approximation will be applied to compute
  vibrational constributions to thermodynamic properties.
  Frequencies will be adjusted to a minimum value of  100.00 cm^-1.

    1 vibrational frequencies below   0.0 cm-1 not included in zero-point
  energy or thermochemical analysis.  Set freqcut to change the frequency
  cutoff value.

  vibrational temperatures:
       mode:      2        3        4        5        6        7
  temp. (K):   143.88   143.88   143.88   143.88   143.88   143.88
   
       mode:      8        9       10       11       12       13
  temp. (K):   143.88   143.88   143.88   143.88   143.88   143.88
   
       mode:     14       15       16       17       18       19
  temp. (K):   143.88   144.43   150.74   165.69   176.27   206.50
   
       mode:     20       21       22       23       24       25
  temp. (K):   209.74   231.50   252.48   254.45   270.33   275.76
   
       mode:     26       27       28       29       30       31
  temp. (K):   280.70   301.36   309.49   319.30   334.25   336.95
   
       mode:     32       33       34       35       36       37
  temp. (K):   363.56   364.50   368.99   396.34   412.95   432.06
   
       mode:     38       39       40       41       42       43
  temp. (K):   464.15   472.13   484.89   495.91   500.50   541.23
   
       mode:     44       45       46       47       48       49
  temp. (K):   558.25   577.13   590.86   599.27   611.77   635.38
   
       mode:     50       51       52       53       54       55
  temp. (K):   641.76   649.53   688.42   697.32   725.38   743.04
   
       mode:     56       57       58       59       60       61
  temp. (K):   750.90   759.98   776.29   785.62   824.68   848.31
   
       mode:     62       63       64       65       66       67
  temp. (K):   853.00   900.40   908.99   911.44   975.38  1012.25
   
       mode:     68       69       70       71       72       73
  temp. (K):  1032.34  1054.63  1075.68  1094.42  1101.51  1129.51
   
       mode:     74       75       76       77       78       79
  temp. (K):  1135.11  1158.72  1168.76  1171.65  1178.63  1198.62
   
       mode:     80       81       82       83       84       85
  temp. (K):  1202.11  1208.37  1217.34  1251.43  1255.78  1259.93
   
       mode:     86       87       88       89       90       91
  temp. (K):  1301.11  1311.86  1321.42  1326.85  1331.39  1334.48
   
       mode:     92       93       94       95       96       97
  temp. (K):  1349.21  1357.99  1360.33  1381.97  1412.29  1423.89
   
       mode:     98       99      100      101      102      103
  temp. (K):  1465.47  1471.74  1478.70  1481.11  1484.62  1522.08
   
       mode:    104      105      106      107      108      109
  temp. (K):  1529.68  1536.45  1546.34  1553.80  1558.44  1567.32
   
       mode:    110      111      112      113      114      115
  temp. (K):  1596.47  1598.54  1601.16  1607.45  1612.13  1621.68
   
       mode:    116      117      118      119      120      121
  temp. (K):  1641.49  1653.75  1654.50  1661.48  1683.91  1701.31
   
       mode:    122      123      124      125      126      127
  temp. (K):  1707.47  1718.27  1734.50  1743.83  1749.87  1754.19
   
       mode:    128      129      130      131      132      133
  temp. (K):  1756.06  1774.71  1797.72  1809.55  1837.23  1843.00
   
       mode:    134      135      136      137      138      139
  temp. (K):  1848.95  1874.50  1876.69  1883.20  1888.47  1895.91
   
       mode:    140      141      142      143      144      145
  temp. (K):  1896.65  1898.26  1905.03  1920.91  1932.28  1935.53
   
       mode:    146      147      148      149      150      151
  temp. (K):  1938.46  1947.74  1973.32  1975.48  1977.52  1996.98
   
       mode:    152      153      154      155      156      157
  temp. (K):  1998.51  2008.88  2015.84  2017.53  2018.70  2020.90
   
       mode:    158      159      160      161      162      163
  temp. (K):  2022.72  2055.47  2117.36  2133.01  2148.88  2158.73
   
       mode:    164      165      166      167      168      169
  temp. (K):  2164.29  2166.89  2171.54  2172.88  2175.87  2177.17
   
       mode:    170      171      172      173      174      175
  temp. (K):  2178.17  2185.89  2186.10  2188.28  2189.55  2199.63
   
       mode:    176      177      178      179      180      181
  temp. (K):  2200.96  2203.77  2204.70  2211.83  2221.14  2340.86
   
       mode:    182      183      184      185      186      187
  temp. (K):  2368.04  2368.92  2378.60  2383.23  2393.33  4348.75
   
       mode:    188      189      190      191      192      193
  temp. (K):  4354.95  4358.87  4361.56  4366.32  4366.96  4372.05
   
       mode:    194      195      196      197      198      199
  temp. (K):  4377.59  4387.03  4390.19  4394.40  4402.72  4408.15
   
       mode:    200      201      202      203      204      205
  temp. (K):  4410.89  4440.82  4443.24  4444.00  4447.95  4453.78
   
       mode:    206      207      208      209      210      211
  temp. (K):  4454.01  4456.23  4470.97  4480.09  4493.77  4494.89
   
       mode:    212      213      214      215      216      217
  temp. (K):  4541.76  4559.14  4578.32  4590.09  4598.94  4606.75
   
       mode:    218      219      220      221      222      223
  temp. (K):  4610.00  4620.23  4627.16  4631.76  4643.49  4651.02
   
       mode:    224      225
  temp. (K):  4670.07  4681.42
   
   
  Thermodynamic properties calculated assuming an ideal gas

  In the table below, the units for temperature
  are kelvins, the units for U, H, and G are
  kcal/mol and the units for Cv and S are cal/(mol K)

  The zero point energy (ZPE):    408.650 kcal/mol
  is not included in U, H, or G in the table below
  
 
  =============================================================================
  Thermodynamic properties for P = 1.00E+00 atm, calculated at   1 temperatures


  T =   298.15 K, P = 1.00E+00 atm
   
                  U         Cv          S          H          G        ln(Q)
              =========  =========  =========  =========  =========  =========
  trans.          0.889      2.981     45.476      1.481    -12.077   20.38435
  rot.            0.889      2.981     37.732      0.889    -10.361   17.48767
  vib.           20.803    136.997    127.158     20.803    -17.109   28.87640
  elec.           0.000      0.000      0.000      0.000      0.000    0.00000
  ----------------------------------------------------------------------------
  total          22.581    142.958    210.366     23.173    -39.547   66.74842
   
   Total internal energy, Utot(SCFE + ZPE + U):   -1973.422922 hartrees
   Total enthalpy, Htot (Utot + nRT), with n=1:   -1973.421977 hartrees
    Total Gibbs free energy, Gtot (Htot - T*S):   -1973.521929 hartrees
   
  end of program freq
   
 Time(freq)  user:        3.1  user+sys:        3.1  wallclock:        9.8
  
  start of program post
  
  Writing input files for PBF
  end of program post
   
 Time(post)  user:        2.0  user+sys:        2.0  wallclock:        2.4

 Total cpu seconds     user:   48321.164   user+sys:   48321.164
  
 Total elapsed time:    49013 seconds

Job ox_add_Ar_trans_L1_PL145_2 completed on bp1-compute092.data.bp.acrc.priv at Tue Mar 19 05:23:20 2024
