Job ox_add_TS_L1_PL145 started on bp1-compute094.data.bp.acrc.priv at Fri Mar 22 10:57:46 2024
jobid: bp1-compute094-0-65fd6425

  +--------------------------------------------------------------------+
  |  Jaguar version 11.4, release 135                                  |
  |                                                                    |
  |  Copyright Schrodinger, Inc.                                       |
  |  All Rights Reserved.                                              |
  |                                                                    |
  |  The following have contributed to Jaguar (listed alphabetically): |
  |  Mike Beachy, Art Bochevarov, Dale Braden, Yixiang Cao,            |
  |  Alan Chien, Chris Cortis, Rich Friesner, Bill Goddard,            |
  |  Hod Greeley, Tom Hughes, Leif Jacobson, Jean-Marc Langlois,       |
  |  Daniel Levine, Daniel Mainz, Rob Murphy, Dean Philipp,            |
  |  Tom Pollard, Murco Ringnalda, Mark Watson, Haoyu Yu.              |
  |                                                                    |
  |  Use of this program should be acknowledged in publications as:    |
  |                                                                    |
  |  Jaguar, version 11.4, Schrodinger, Inc., New York, NY, 2021.      |
  |                                                                    |
  |  A. D. Bochevarov, E. Harder, T. F. Hughes, J. R. Greenwood,       |
  |  D. A. Braden, D. M. Philipp, D. Rinaldo, M. D. Halls,             |
  |  J. Zhang, R. A. Friesner, "Jaguar: A High-Performance Quantum     |
  |  Chemistry Software Program with Strengths in Life and Materials   |
  |  Sciences", Int. J. Quantum Chem., 2013, 113(18), 2110-2142.       |
  +--------------------------------------------------------------------+
  
  start of program pre
  
  Job name: ox_add_TS_L1_PL145
  Executables used: /sw/apps/schrodinger2021-4/jaguar-v11.4/bin/Linux-x86_64
  Temporary files : /tmp/ar21627/ox_add_TS_L1_PL145
  Maestro file (input):  ox_add_TS_L1_PL145.mae
  Maestro file (output): ox_add_TS_L1_PL145.01.mae
  
 Contents of input file: &gen section only
 ----------------Contents start----------------
&gen
dftname=b3pw91-d3
basis=6-31G*
numd=5
ip11=2
iaccg=3
isolv=2
igeopt=2
solvent=benzene
ifreq=1
&
 -----------------Contents end-----------------
 
  basis set:             non_standard                    
  net molecular charge:    0
  multiplicity:            1
  
  This run will use ECP on            2  atoms
  number of basis functions....          626
  
 Input geometry:
                                   angstroms
  atom               x                 y                 z
  P1            0.0000000000      0.0000000000      0.0000000000 
  Pd2           0.0000000000      0.0000000000      2.3517789536 
  Br3           0.8127497928      0.0000000000      4.9970488136 
  C73          -1.5129314544      3.7324258484      2.9838813386 
  C74          -0.1281109283      3.6777194835      2.8759596220 
  C75           0.5370637645      2.5314849786      3.3004588046 
  C76          -0.2220101190      1.4406557636      3.7707512531 
  C77          -1.6140881488      1.5421789744      3.9580624655 
  C78          -2.2647208744      2.6991547125      3.5256903057 
  F79          -2.1540578668      4.8418751516      2.5427602649 
  H80           0.4125825200      4.5084643527      2.4348642989 
  H81           1.6156381571      2.4573626438      3.2230842146 
  H82          -2.1675574363      0.7271166184      4.4118783462 
  H83          -3.3433096533      2.8020893354      3.6051745638 
  C3           -0.7162128952      1.6086405005     -0.7421894815 
  C4            1.7548485642     -0.1122340815     -0.7603611454 
  C5           -0.9750145267     -1.3121303583     -0.9186980760 
  C6           -1.1497226498      1.5839548801     -2.2245412319 
  C7           -1.8611617923      2.9020929507     -2.6093393883 
  C8           -0.9901860290      4.1369735158     -2.3129690622 
  C9           -0.5248373167      4.1426336819     -0.8448675086 
  C10           0.1954204572      2.8296538037     -0.4715173370 
  C11           2.7676167349      0.6350766119      0.1492917778 
  C12           4.1646535628      0.6971241745     -0.5066923764 
  C13           4.6967522440     -0.7090254045     -0.8432255988 
  C14           3.6809849724     -1.4873320247     -1.7013731388 
  C15           2.2908918369     -1.5419154752     -1.0307062917 
  C16          -0.6732748170     -1.5303683757     -2.2863189806 
  C17          -1.3461193603     -2.4859095208     -3.0584062873 
  C18          -2.3567312125     -3.2602465477     -2.4699975819 
  C19          -2.6806307718     -3.0466682307     -1.1262848168 
  C20          -2.0176004344     -2.0804870513     -0.3327116885 
  C21          -2.4942426833     -1.9450587581      1.0795928611 
  C22          -2.1797317149     -2.9473980856      2.0297503096 
  C23          -2.6578239196     -2.8654159639      3.3513772174 
  C24          -3.4753454304     -1.7880618129      3.7132034198 
  C25          -3.8462579725     -0.8071025377      2.7852567189 
  C26          -3.3516912255     -0.8893937884      1.4698104190 
  O27          -3.6722201097      0.0061648884      0.4724543367 
  C28          -4.4559373147      1.1394567160      0.8518659008 
  O29          -1.4162993315     -3.9848789089      1.5548327362 
  C30          -0.7837394302     -4.8246981285      2.5217698272 
  H31          -1.6189280335      1.7335843909     -0.1134750923 
  H32          -0.2630737327      1.4514110141     -2.8812996894 
  H33          -1.8254639297      0.7345019808     -2.4213778571 
  H34          -2.8059773177      2.9772225817     -2.0321848305 
  H35          -2.1475158463      2.8745646862     -3.6800344396 
  H36          -0.1003529924      4.1204059966     -2.9778874372 
  H37          -1.5443781854      5.0665741220     -2.5530046021 
  H38          -1.3980291299      4.2654204565     -0.1733620357 
  H39           0.1441365573      5.0050785998     -0.6550191122 
  H40           0.4747511673      2.8546310092      0.5957456873 
  H41           1.1231445350      2.7459025755     -1.0752732074 
  H42           1.6914066979      0.4313001496     -1.7305084219 
  H43           2.4192362104      1.6546223031      0.3851115867 
  H44           2.8210134604      0.0933780230      1.1126715030 
  H45           4.8674713952      1.2238871456      0.1681405100 
  H46           4.1105106883      1.3005570426     -1.4388434078 
  H47           5.6752659917     -0.6429162925     -1.3605702372 
  H48           4.8685224166     -1.2639616488      0.1008106230 
  H49           4.0432548532     -2.5179084479     -1.8882345494 
  H50           3.5949831114     -0.9997940885     -2.6973450990 
  H51           2.3514508548     -2.0717376114     -0.0626442926 
  H52           1.5988975470     -2.1225276828     -1.6636846196 
  H53           0.1045766324     -0.9277903257     -2.7668899433 
  H54          -1.0779382507     -2.6208690539     -4.1138163845 
  H55          -2.8922110523     -4.0190697047     -3.0539088487 
  H56          -3.4745254839     -3.6368104587     -0.6543707284 
  H57          -2.3652548031     -3.6067054907      4.0987289039 
  H58          -3.8215303738     -1.7018588122      4.7492839160 
  H59          -4.4587352975      0.0394201985      3.1025078095 
  H60          -4.5775645844      1.7343612151     -0.0681000210 
  H61          -3.9292539480      1.7373827786      1.6187207393 
  H62          -5.4571500953      0.8337177718      1.2201099843 
  H63          -0.1620846364     -4.2233172613      3.2092963185 
  H64          -0.1377045012     -5.5032825275      1.9421291735 
  H65          -1.5236391260     -5.4273573161      3.0895580454 
   
  principal moments of inertia:
        amu*angstrom^2:     5965.01943     6504.47256     7159.09047
                g*cm^2: 9.90514657E-37 1.08009295E-36 1.18879479E-36
   
  rotational constants:
               cm^(-1):      0.00282608      0.00259170      0.00235472
                   GHz:      0.08472378      0.07769715      0.07059263
   
  Molecular weight:     690.09 amu
   
  Stoichiometry: PdC32PH39BrO2F
  Molecular Point Group: C1      
  Point Group used: C1
  
 
Number of optimization coordinates:   275
Number of independent coordinates:    275
Number of non-redundant coordinates:  225
Number of frozen coordinates:           0
Number of harmonic constraints:         0
 
Number of geometric degrees of freedom:   225
Maximum geometric degrees of freedom:     225
 " " " " " excluding dummy atoms:         225
 
 
  bond lengths (angstroms):
 
 P1      -Pd2     :   2.351779      P1      -C3      :   1.910898
 P1      -C4      :   1.915787      P1      -C5      :   1.875192
 Pd2     -Br3     :   2.767312      Pd2     -C76     :   2.034271
 Br3     -C76     :   2.156391      C73     -C74     :   1.390096
 C73     -C78     :   1.387946      C73     -F79     :   1.355178
 C74     -C75     :   1.391586      C74     -H80     :   1.084920
 C75     -C76     :   1.409708      C75     -H81     :   1.083884
 C76     -C77     :   1.408288      C77     -C78     :   1.396016
 C77     -H82     :   1.084714      C78     -H83     :   1.086401
 C3      -C6      :   1.544638      C3      -C10     :   1.547647
 C3      -H31     :   1.107153      C4      -C11     :   1.552946
 C4      -C15     :   1.550619      C4      -H42     :   1.113840
 C5      -C16     :   1.417414      C5      -C20     :   1.421526
 C6      -C7      :   1.546513      C6      -H32     :   1.111326
 C6      -H33     :   1.103151      C7      -C8      :   1.539923
 C7      -H34     :   1.109697      C7      -H35     :   1.108668
 C8      -C9      :   1.540099      C8      -H36     :   1.110943
 C8      -H37     :   1.108559      C9      -C10     :   1.543398
 C9      -H38     :   1.108359      C9      -H39     :   1.107872
 C10     -H40     :   1.103494      C10     -H41     :   1.110048
 C11     -C12     :   1.544628      C11     -H43     :   1.102929
 C11     -H44     :   1.106521      C12     -C13     :   1.540662
 C12     -H45     :   1.107624      C12     -H46     :   1.111741
 C13     -C14     :   1.540767      C13     -H47     :   1.108830
 C13     -H48     :   1.108451      C14     -C15     :   1.544387
 C14     -H49     :   1.108262      C14     -H50     :   1.112227
 C15     -H51     :   1.105225      C15     -H52     :   1.103009
 C16     -C17     :   1.400678      C16     -H53     :   1.095035
 C17     -C18     :   1.402554      C17     -H54     :   1.097281
 C18     -C19     :   1.398603      C18     -H55     :   1.097043
 C19     -C20     :   1.415229      C19     -H56     :   1.096011
 C20     -C21     :   1.496707      C21     -C22     :   1.416475
 C21     -C26     :   1.414891      C22     -C23     :   1.407832
 C22     -O29     :   1.372859      C23     -C24     :   1.399983
 C23     -H57     :   1.092539      C24     -C25     :   1.400336
 C24     -H58     :   1.095782      C25     -C26     :   1.407752
 C25     -H59     :   1.091960      C26     -O27     :   1.378217
 O27     -C28     :   1.429166      C28     -H60     :   1.102289
 C28     -H61     :   1.105883      C28     -H62     :   1.109733
 O29     -C30     :   1.428424      C30     -H63     :   1.104901
 C30     -H64     :   1.101736      C30     -H65     :   1.110420
 
  bond angles:
 
 C3      -P1      -Pd2     : 112.854874  C4      -P1      -Pd2     : 113.384048
 C4      -P1      -C3      : 103.797047  C5      -P1      -Pd2     : 119.335462
 C5      -P1      -C3      : 101.764216  C5      -P1      -C4      : 103.935872
 Br3     -Pd2     -P1      : 162.920610  C76     -Pd2     -P1      : 134.229445
 C76     -Pd2     -Br3     :  50.600870  C76     -Br3     -Pd2     :  46.801082
 C78     -C73     -C74     : 122.725126  F79     -C73     -C74     : 118.570871
 F79     -C73     -C78     : 118.703960  C75     -C74     -C73     : 119.007012
 H80     -C74     -C73     : 119.861843  H80     -C74     -C75     : 121.098960
 C76     -C75     -C74     : 118.799927  H81     -C75     -C74     : 120.677739
 H81     -C75     -C76     : 120.445769  Br3     -C76     -Pd2     :  82.598047
 C75     -C76     -Pd2     : 104.864201  C75     -C76     -Br3     : 116.634448
 C77     -C76     -Pd2     : 104.578646  C77     -C76     -Br3     : 116.542285
 C77     -C76     -C75     : 121.389509  C78     -C77     -C76     : 118.636478
 H82     -C77     -C76     : 120.387739  H82     -C77     -C78     : 120.965076
 C77     -C78     -C73     : 119.041570  H83     -C78     -C73     : 119.721544
 H83     -C78     -C77     : 121.236849  C6      -C3      -P1      : 117.676148
 C10     -C3      -P1      : 112.052203  C10     -C3      -C6      : 110.228616
 H31     -C3      -P1      : 100.372038  H31     -C3      -C6      : 108.538360
 H31     -C3      -C10     : 106.973355  C11     -C4      -P1      : 109.675858
 C15     -C4      -P1      : 116.095413  C15     -C4      -C11     : 108.685035
 H42     -C4      -P1      : 105.362777  H42     -C4      -C11     : 108.210602
 H42     -C4      -C15     : 108.527420  C16     -C5      -P1      : 118.018741
 C20     -C5      -P1      : 123.890444  C20     -C5      -C16     : 118.076616
 C7      -C6      -C3      : 110.748753  H32     -C6      -C3      : 110.189696
 H32     -C6      -C7      : 108.761852  H33     -C6      -C3      : 110.821576
 H33     -C6      -C7      : 109.276348  H33     -C6      -H32     : 106.943579
 C8      -C7      -C6      : 112.049932  H34     -C7      -C6      : 108.661171
 H34     -C7      -C8      : 109.097085  H35     -C7      -C6      : 109.752032
 H35     -C7      -C8      : 110.601340  H35     -C7      -H34     : 106.502571
 C9      -C8      -C7      : 110.934835  H36     -C8      -C7      : 109.018804
 H36     -C8      -C9      : 109.182296  H37     -C8      -C7      : 110.366786
 H37     -C8      -C9      : 110.755376  H37     -C8      -H36     : 106.459137
 C10     -C9      -C8      : 111.621485  H38     -C9      -C8      : 109.870468
 H38     -C9      -C10     : 108.381341  H39     -C9      -C8      : 110.405725
 H39     -C9      -C10     : 109.816229  H39     -C9      -H38     : 106.598006
 C9      -C10     -C3      : 110.730175  H40     -C10     -C3      : 109.640323
 H40     -C10     -C9      : 109.440822  H41     -C10     -C3      : 109.733502
 H41     -C10     -C9      : 108.822300  H41     -C10     -H40     : 108.432918
 C12     -C11     -C4      : 111.125405  H43     -C11     -C4      : 111.351347
 H43     -C11     -C12     : 109.837706  H44     -C11     -C4      : 107.810704
 H44     -C11     -C12     : 110.228737  H44     -C11     -H43     : 106.357483
 C13     -C12     -C11     : 111.621470  H45     -C12     -C11     : 109.527273
 H45     -C12     -C13     : 110.364658  H46     -C12     -C11     : 109.501987
 H46     -C12     -C13     : 109.211968  H46     -C12     -H45     : 106.475670
 C14     -C13     -C12     : 110.794037  H47     -C13     -C12     : 110.626783
 H47     -C13     -C14     : 110.611963  H48     -C13     -C12     : 108.930251
 H48     -C13     -C14     : 108.881681  H48     -C13     -H47     : 106.885455
 C15     -C14     -C13     : 111.677594  H49     -C14     -C13     : 110.373692
 H49     -C14     -C15     : 109.546854  H50     -C14     -C13     : 109.165367
 H50     -C14     -C15     : 109.558147  H50     -C14     -H49     : 106.374181
 C14     -C15     -C4      : 110.749596  H51     -C15     -C4      : 107.952207
 H51     -C15     -C14     : 110.364467  H52     -C15     -C4      : 111.623564
 H52     -C15     -C14     : 109.517124  H52     -C15     -H51     : 106.539811
 C17     -C16     -C5      : 122.319238  H53     -C16     -C5      : 119.336537
 H53     -C16     -C17     : 118.341005  C18     -C17     -C16     : 119.440155
 H54     -C17     -C16     : 119.781371  H54     -C17     -C18     : 120.778471
 C19     -C18     -C17     : 119.053335  H55     -C18     -C17     : 120.683342
 H55     -C18     -C19     : 120.262150  C20     -C19     -C18     : 122.309158
 H56     -C19     -C18     : 119.947166  H56     -C19     -C20     : 117.743514
 C19     -C20     -C5      : 118.781466  C21     -C20     -C5      : 125.004211
 C21     -C20     -C19     : 116.211950  C22     -C21     -C20     : 119.882526
 C26     -C21     -C20     : 121.382210  C26     -C21     -C22     : 118.524149
 C23     -C22     -C21     : 120.870938  O29     -C22     -C21     : 115.225735
 O29     -C22     -C23     : 123.890184  C24     -C23     -C22     : 119.061268
 H57     -C23     -C22     : 120.778045  H57     -C23     -C24     : 120.113983
 C25     -C24     -C23     : 121.499432  H58     -C24     -C23     : 119.300694
 H58     -C24     -C25     : 119.193960  C26     -C25     -C24     : 119.025933
 H59     -C25     -C24     : 119.940819  H59     -C25     -C26     : 120.920782
 C25     -C26     -C21     : 120.945871  O27     -C26     -C21     : 115.225326
 O27     -C26     -C25     : 123.815288  C28     -O27     -C26     : 116.787962
 H60     -C28     -O27     : 105.480406  H61     -C28     -O27     : 110.589352
 H61     -C28     -H60     : 109.845361  H62     -C28     -O27     : 111.368976
 H62     -C28     -H60     : 109.031337  H62     -C28     -H61     : 110.398103
 C30     -O29     -C22     : 117.154581  H63     -C30     -O29     : 110.509948
 H64     -C30     -O29     : 105.405671  H64     -C30     -H63     : 109.432569
 H65     -C30     -O29     : 111.724695  H65     -C30     -H63     : 110.617181
 H65     -C30     -H64     : 108.993185
 
  torsional angles:
 
 P1      -Pd2     -Br3     -C76     : 113.585282
 P1      -Pd2     -C76     -Br3     :-157.936381
 P1      -Pd2     -C76     -C75     : -42.263337
 P1      -Pd2     -C76     -C77     :  86.480728
 P1      -C3      -C6      -C7      : 173.025537
 P1      -C3      -C6      -H32     : -66.592077
 P1      -C3      -C6      -H33     :  51.575275
 P1      -C3      -C10     -C9      :-169.424702
 P1      -C3      -C10     -H40     : -48.565920
 P1      -C3      -C10     -H41     :  70.426147
 P1      -C4      -C11     -C12     :-173.877998
 P1      -C4      -C11     -H43     : -51.081401
 P1      -C4      -C11     -H44     :  65.226560
 P1      -C4      -C15     -C14     : 177.367530
 P1      -C4      -C15     -H51     : -61.707073
 P1      -C4      -C15     -H52     :  55.058353
 P1      -C5      -C16     -C17     :-179.929022
 P1      -C5      -C16     -H53     :  -0.592880
 P1      -C5      -C20     -C19     :-179.821997
 P1      -C5      -C20     -C21     :   0.761002
 Pd2     -P1      -C3      -C6      :-162.731193
 Pd2     -P1      -C3      -C10     :  67.943966
 Pd2     -P1      -C3      -H31     : -45.281142
 Pd2     -P1      -C4      -C11     : -33.657334
 Pd2     -P1      -C4      -C15     :  89.983783
 Pd2     -P1      -C4      -H42     :-149.916398
 Pd2     -P1      -C5      -C16     :-162.687575
 Pd2     -P1      -C5      -C20     :  18.712067
 Pd2     -Br3     -C76     -C75     :-102.958243
 Pd2     -Br3     -C76     -C77     : 102.640667
 Pd2     -C76     -C75     -C74     : 110.681618
 Pd2     -C76     -C75     -H81     : -66.158207
 Pd2     -C76     -C77     -C78     :-110.762977
 Pd2     -C76     -C77     -H82     :  68.058233
 Br3     -Pd2     -P1      -C3      :-114.000000
 Br3     -Pd2     -P1      -C4      :   3.659457
 Br3     -Pd2     -P1      -C5      : 126.615209
 Br3     -Pd2     -C76     -C75     : 115.673044
 Br3     -Pd2     -C76     -C77     :-115.582891
 Br3     -C76     -C75     -C74     :-160.235470
 Br3     -C76     -C75     -H81     :  22.924705
 Br3     -C76     -C77     -C78     : 160.319162
 Br3     -C76     -C77     -H82     : -20.859629
 C73     -C74     -C75     -C76     :   2.788945
 C73     -C74     -C75     -H81     : 179.621198
 C73     -C78     -C77     -C76     :  -2.927155
 C73     -C78     -C77     -H82     : 178.258704
 C74     -C73     -C78     -C77     :  -1.328160
 C74     -C73     -C78     -H83     : 178.741364
 C74     -C75     -C76     -C77     :  -7.158916
 C75     -C74     -C73     -C78     :   1.400090
 C75     -C74     -C73     -F79     :-178.676353
 C75     -C76     -C77     -C78     :   7.219193
 C75     -C76     -C77     -H82     :-173.959597
 C76     -Pd2     -P1      -C3      : -15.239433
 C76     -Pd2     -P1      -C4      : 102.420023
 C76     -Pd2     -P1      -C5      :-134.624224
 C76     -C75     -C74     -H80     :-175.144442
 C76     -C77     -C78     -H83     : 177.002230
 C77     -C76     -C75     -H81     : 176.001259
 C77     -C78     -C73     -F79     : 178.748380
 C78     -C73     -C74     -H80     : 179.359586
 F79     -C73     -C74     -H80     :  -0.716857
 F79     -C73     -C78     -H83     :  -1.182096
 H80     -C74     -C75     -H81     :   1.687812
 H82     -C77     -C78     -H83     :  -1.811911
 C3      -P1      -C4      -C11     :  89.156571
 C3      -P1      -C4      -C15     :-147.202312
 C3      -P1      -C4      -H42     : -27.102493
 C3      -P1      -C5      -C16     :  72.413626
 C3      -P1      -C5      -C20     :-106.186733
 C3      -C6      -C7      -C8      :  55.634693
 C3      -C6      -C7      -H34     : -64.987080
 C3      -C6      -C7      -H35     : 178.919672
 C3      -C10     -C9      -C8      : -56.646533
 C3      -C10     -C9      -H38     :  64.483797
 C3      -C10     -C9      -H39     :-179.431519
 C4      -P1      -C3      -C6      :  74.106847
 C4      -P1      -C3      -C10     : -55.217994
 C4      -P1      -C3      -H31     :-168.443102
 C4      -P1      -C5      -C16     : -35.204125
 C4      -P1      -C5      -C20     : 146.195516
 C4      -C11     -C12     -C13     : -56.808193
 C4      -C11     -C12     -H45     :-179.338689
 C4      -C11     -C12     -H46     :  64.248597
 C4      -C15     -C14     -C13     :  57.586148
 C4      -C15     -C14     -H49     :-179.820371
 C4      -C15     -C14     -H50     : -63.486672
 C5      -P1      -C3      -C6      : -33.618468
 C5      -P1      -C3      -C10     :-162.943309
 C5      -P1      -C3      -H31     :  83.831583
 C5      -P1      -C4      -C11     :-164.747617
 C5      -P1      -C4      -C15     : -41.106500
 C5      -P1      -C4      -H42     :  78.993319
 C5      -C16     -C17     -C18     :   0.039287
 C5      -C16     -C17     -H54     :-179.941590
 C5      -C20     -C19     -C18     :  -0.781942
 C5      -C20     -C19     -H56     : 179.365007
 C5      -C20     -C21     -C22     :-107.228545
 C5      -C20     -C21     -C26     :  78.129400
 C6      -C3      -C10     -C9      :  57.469349
 C6      -C3      -C10     -H40     : 178.328131
 C6      -C3      -C10     -H41     : -62.679802
 C6      -C7      -C8      -C9      : -54.134037
 C6      -C7      -C8      -H36     :  66.129439
 C6      -C7      -C8      -H37     :-177.278229
 C7      -C6      -C3      -C10     : -56.801689
 C7      -C6      -C3      -H31     :  60.052067
 C7      -C8      -C9      -C10     :  54.569811
 C7      -C8      -C9      -H38     : -65.690592
 C7      -C8      -C9      -H39     : 177.017486
 C8      -C7      -C6      -H32     : -65.594582
 C8      -C7      -C6      -H33     : 177.990841
 C8      -C9      -C10     -H40     :-177.623539
 C8      -C9      -C10     -H41     :  64.045397
 C9      -C8      -C7      -H34     :  66.234617
 C9      -C8      -C7      -H35     :-176.939257
 C9      -C10     -C3      -H31     : -60.353786
 C10     -C3      -C6      -H32     :  63.580696
 C10     -C3      -C6      -H33     :-178.251951
 C10     -C9      -C8      -H36     : -65.596447
 C10     -C9      -C8      -H37     : 177.489827
 C11     -C4      -C15     -C14     : -58.478386
 C11     -C4      -C15     -H51     :  62.447011
 C11     -C4      -C15     -H52     : 179.212437
 C11     -C12     -C13     -C14     :  53.999904
 C11     -C12     -C13     -H47     : 177.044954
 C11     -C12     -C13     -H48     : -65.748743
 C12     -C11     -C4      -C15     :  58.238166
 C12     -C11     -C4      -H42     : -59.432276
 C12     -C13     -C14     -C15     : -54.490564
 C12     -C13     -C14     -H49     :-176.610055
 C12     -C13     -C14     -H50     :  66.810280
 C13     -C12     -C11     -H43     : 179.527012
 C13     -C12     -C11     -H44     :  62.653743
 C13     -C14     -C15     -H51     : -61.899481
 C13     -C14     -C15     -H52     :-178.883557
 C14     -C13     -C12     -H45     : 176.049504
 C14     -C13     -C12     -H46     : -67.225513
 C14     -C15     -C4      -H42     :  58.990564
 C15     -C4      -C11     -H43     :-178.965237
 C15     -C4      -C11     -H44     : -62.657277
 C15     -C14     -C13     -H47     :-177.544184
 C15     -C14     -C13     -H48     :  65.287172
 C16     -C5      -C20     -C19     :   1.578398
 C16     -C5      -C20     -C21     :-177.838604
 C16     -C17     -C18     -C19     :   0.806805
 C16     -C17     -C18     -H55     :-179.586217
 C17     -C16     -C5      -C20     :  -1.245820
 C17     -C18     -C19     -C20     :  -0.436161
 C17     -C18     -C19     -H56     : 179.413743
 C18     -C17     -C16     -H53     :-179.303176
 C18     -C19     -C20     -C21     : 178.685783
 C19     -C18     -C17     -H54     :-179.212513
 C19     -C20     -C21     -C22     :  73.340999
 C19     -C20     -C21     -C26     :-101.301056
 C20     -C5      -C16     -H53     : 178.090321
 C20     -C19     -C18     -H55     : 179.955164
 C20     -C21     -C22     -C23     :-177.687037
 C20     -C21     -C22     -O29     :   1.044076
 C20     -C21     -C26     -C25     : 176.908189
 C20     -C21     -C26     -O27     :  -1.804053
 C21     -C20     -C19     -H56     :  -1.167268
 C21     -C22     -C23     -C24     :   1.241559
 C21     -C22     -C23     -H57     :-176.275674
 C21     -C22     -O29     -C30     : 164.048999
 C21     -C26     -C25     -C24     :   0.137764
 C21     -C26     -C25     -H59     : 176.279676
 C21     -C26     -O27     -C28     :-175.544166
 C22     -C21     -C26     -C25     :   2.195393
 C22     -C21     -C26     -O27     :-176.516850
 C22     -C23     -C24     -C25     :   1.189470
 C22     -C23     -C24     -H58     :-177.918494
 C22     -O29     -C30     -H63     : -55.368098
 C22     -O29     -C30     -H64     :-173.501882
 C22     -O29     -C30     -H65     :  68.256581
 C23     -C22     -C21     -C26     :  -2.892692
 C23     -C22     -O29     -C30     : -17.263028
 C23     -C24     -C25     -C26     :  -1.872391
 C23     -C24     -C25     -H59     :-178.052929
 C24     -C23     -C22     -O29     :-177.375611
 C24     -C25     -C26     -O27     : 178.735594
 C25     -C24     -C23     -H57     : 178.723569
 C25     -C26     -O27     -C28     :   5.785165
 C26     -C21     -C22     -O29     : 175.838421
 C26     -C25     -C24     -H58     : 177.236503
 C26     -O27     -C28     -H60     : 178.556959
 C26     -O27     -C28     -H61     :  59.849315
 C26     -O27     -C28     -H62     : -63.298094
 O27     -C26     -C25     -H59     :  -5.122494
 O29     -C22     -C23     -H57     :   5.107156
 H31     -C3      -C6      -H32     :-179.565548
 H31     -C3      -C6      -H33     : -61.398195
 H31     -C3      -C10     -H40     :  60.504996
 H31     -C3      -C10     -H41     : 179.497063
 H32     -C6      -C7      -H34     : 173.783646
 H32     -C6      -C7      -H35     :  57.690397
 H33     -C6      -C7      -H34     :  57.369069
 H33     -C6      -C7      -H35     : -58.724180
 H34     -C7      -C8      -H36     :-173.501907
 H34     -C7      -C8      -H37     : -56.909575
 H35     -C7      -C8      -H36     : -56.675781
 H35     -C7      -C8      -H37     :  59.916551
 H36     -C8      -C9      -H38     : 174.143149
 H36     -C8      -C9      -H39     :  56.851228
 H37     -C8      -C9      -H38     :  57.229423
 H37     -C8      -C9      -H39     : -60.062498
 H38     -C9      -C10     -H40     : -56.493209
 H38     -C9      -C10     -H41     :-174.824272
 H39     -C9      -C10     -H40     :  59.591475
 H39     -C9      -C10     -H41     : -58.739588
 H42     -C4      -C11     -H43     :  63.364321
 H42     -C4      -C11     -H44     : 179.672282
 H42     -C4      -C15     -H51     : 179.915962
 H42     -C4      -C15     -H52     : -63.318613
 H43     -C11     -C12     -H45     :  56.996516
 H43     -C11     -C12     -H46     : -59.416198
 H44     -C11     -C12     -H45     : -59.876753
 H44     -C11     -C12     -H46     :-176.289467
 H45     -C12     -C13     -H47     : -60.905446
 H45     -C12     -C13     -H48     :  56.300857
 H46     -C12     -C13     -H47     :  55.819537
 H46     -C12     -C13     -H48     : 173.025840
 H47     -C13     -C14     -H49     :  60.336325
 H47     -C13     -C14     -H50     : -56.243340
 H48     -C13     -C14     -H49     : -56.832318
 H48     -C13     -C14     -H50     :-173.411983
 H49     -C14     -C15     -H51     :  60.694001
 H49     -C14     -C15     -H52     : -56.290076
 H50     -C14     -C15     -H51     : 177.027700
 H50     -C14     -C15     -H52     :  60.043624
 H53     -C16     -C17     -H54     :   0.715947
 H54     -C17     -C18     -H55     :   0.394465
 H55     -C18     -C19     -H56     :  -0.194931
 H57     -C23     -C24     -H58     :  -0.384394
 H58     -C24     -C25     -H59     :   1.055964
 
  nuclear repulsion energy.......    5178.410609481 hartrees
  
  Detected an organometallic with only one TM atom. 
  
  
 
  Will use High-Quality Initial guess for organometallics
       including d-d repulsion (iguess=30)
 
 Non-default options chosen:
   SCF calculation type: DFT(b3pw91-d3)              
   DFT=Becke_3_Parameter/HF+Slater+Becke88+PW91+PW-GGAIIC (B3PW91-D3)
   Transition state optimization
   Geometry will be optimized in redundant internal coordinates
   Culot/Fletcher trust radius adjustment
      initial trust radius:  0.100
   P-RFO level-shifting used
   Solvation energy will be computed using PBF
     -solute cavity energy will not be included
     -surface area terms will not be included
   Vibrational frequencies and related properties will be computed
      from analytic second derivatives
   IR intensities will be computed
   Thermochemical properties will be computed
   Scaling standard convergence criteria by a factor of   5.00
   Mixed Murtagh-Sargent/Powell Hessian-updating used
   Solvent: benzene                                                         
   Internal dielectric constant:    1.000
   Continuum dielectric constant:   2.283
   Solvent probe molecule radius:   2.600
  
 Non-default print settings:
     11=  2
  
 Temporary integer options set:
     21= -1  73=  2
  
  atom       vdw   vdw2    cov     mass  grid  daf  charge   basis
  P1        2.147  2.074  1.060   30.974    Y    Y      Y    6-31g*
  Pd2       1.450  1.450  1.280  105.903    Y    Y      Y    lacv3p*
  Br3       2.095  2.095  1.140   78.918    Y    Y      Y    lav3p*
  C73       1.949  1.900  0.770   12.000    Y    Y      Y    6-31g*
  C74       1.949  1.900  0.770   12.000    Y    Y      Y    6-31g*
  C75       1.949  1.900  0.770   12.000    Y    Y      Y    6-31g*
  C76       1.949  1.900  0.770   12.000    Y    Y      Y    6-31g*
  C77       1.949  1.900  0.770   12.000    Y    Y      Y    6-31g*
  C78       1.949  1.900  0.770   12.000    Y    Y      Y    6-31g*
  F79       1.736  1.682  0.720   18.998    Y    Y      Y    6-31g*
  H80       1.597  1.150  0.320    1.008    Y    Y      Y    6-31g*
  H81       1.597  1.150  0.320    1.008    Y    Y      Y    6-31g*
  H82       1.597  1.150  0.320    1.008    Y    Y      Y    6-31g*
  H83       1.597  1.150  0.320    1.008    Y    Y      Y    6-31g*
  C3        1.949  1.900  0.770   12.000    Y    Y      Y    6-31g*
  C4        1.949  1.900  0.770   12.000    Y    Y      Y    6-31g*
  C5        1.949  1.900  0.770   12.000    Y    Y      Y    6-31g*
  C6        1.949  1.900  0.770   12.000    Y    Y      Y    6-31g*
  C7        1.949  1.900  0.770   12.000    Y    Y      Y    6-31g*
  C8        1.949  1.900  0.770   12.000    Y    Y      Y    6-31g*
  C9        1.949  1.900  0.770   12.000    Y    Y      Y    6-31g*
  C10       1.949  1.900  0.770   12.000    Y    Y      Y    6-31g*
  C11       1.949  1.900  0.770   12.000    Y    Y      Y    6-31g*
  C12       1.949  1.900  0.770   12.000    Y    Y      Y    6-31g*
  C13       1.949  1.900  0.770   12.000    Y    Y      Y    6-31g*
  C14       1.949  1.900  0.770   12.000    Y    Y      Y    6-31g*
  C15       1.949  1.900  0.770   12.000    Y    Y      Y    6-31g*
  C16       1.949  1.900  0.770   12.000    Y    Y      Y    6-31g*
  C17       1.949  1.900  0.770   12.000    Y    Y      Y    6-31g*
  C18       1.949  1.900  0.770   12.000    Y    Y      Y    6-31g*
  C19       1.949  1.900  0.770   12.000    Y    Y      Y    6-31g*
  C20       1.949  1.900  0.770   12.000    Y    Y      Y    6-31g*
  C21       1.949  1.900  0.770   12.000    Y    Y      Y    6-31g*
  C22       1.949  1.900  0.770   12.000    Y    Y      Y    6-31g*
  C23       1.949  1.900  0.770   12.000    Y    Y      Y    6-31g*
  C24       1.949  1.900  0.770   12.000    Y    Y      Y    6-31g*
  C25       1.949  1.900  0.770   12.000    Y    Y      Y    6-31g*
  C26       1.949  1.900  0.770   12.000    Y    Y      Y    6-31g*
  O27       1.702  1.600  0.730   15.995    Y    Y      Y    6-31g*
  C28       1.949  1.900  0.770   12.000    Y    Y      Y    6-31g*
  O29       1.702  1.600  0.730   15.995    Y    Y      Y    6-31g*
  C30       1.949  1.900  0.770   12.000    Y    Y      Y    6-31g*
  H31       1.597  1.150  0.320    1.008    Y    Y      Y    6-31g*
  H32       1.597  1.150  0.320    1.008    Y    Y      Y    6-31g*
  H33       1.597  1.150  0.320    1.008    Y    Y      Y    6-31g*
  H34       1.597  1.150  0.320    1.008    Y    Y      Y    6-31g*
  H35       1.597  1.150  0.320    1.008    Y    Y      Y    6-31g*
  H36       1.597  1.150  0.320    1.008    Y    Y      Y    6-31g*
  H37       1.597  1.150  0.320    1.008    Y    Y      Y    6-31g*
  H38       1.597  1.150  0.320    1.008    Y    Y      Y    6-31g*
  H39       1.597  1.150  0.320    1.008    Y    Y      Y    6-31g*
  H40       1.597  1.150  0.320    1.008    Y    Y      Y    6-31g*
  H41       1.597  1.150  0.320    1.008    Y    Y      Y    6-31g*
  H42       1.597  1.150  0.320    1.008    Y    Y      Y    6-31g*
  H43       1.597  1.150  0.320    1.008    Y    Y      Y    6-31g*
  H44       1.597  1.150  0.320    1.008    Y    Y      Y    6-31g*
  H45       1.597  1.150  0.320    1.008    Y    Y      Y    6-31g*
  H46       1.597  1.150  0.320    1.008    Y    Y      Y    6-31g*
  H47       1.597  1.150  0.320    1.008    Y    Y      Y    6-31g*
  H48       1.597  1.150  0.320    1.008    Y    Y      Y    6-31g*
  H49       1.597  1.150  0.320    1.008    Y    Y      Y    6-31g*
  H50       1.597  1.150  0.320    1.008    Y    Y      Y    6-31g*
  H51       1.597  1.150  0.320    1.008    Y    Y      Y    6-31g*
  H52       1.597  1.150  0.320    1.008    Y    Y      Y    6-31g*
  H53       1.597  1.150  0.320    1.008    Y    Y      Y    6-31g*
  H54       1.597  1.150  0.320    1.008    Y    Y      Y    6-31g*
  H55       1.597  1.150  0.320    1.008    Y    Y      Y    6-31g*
  H56       1.597  1.150  0.320    1.008    Y    Y      Y    6-31g*
  H57       1.597  1.150  0.320    1.008    Y    Y      Y    6-31g*
  H58       1.597  1.150  0.320    1.008    Y    Y      Y    6-31g*
  H59       1.597  1.150  0.320    1.008    Y    Y      Y    6-31g*
  H60       1.597  1.150  0.320    1.008    Y    Y      Y    6-31g*
  H61       1.597  1.150  0.320    1.008    Y    Y      Y    6-31g*
  H62       1.597  1.150  0.320    1.008    Y    Y      Y    6-31g*
  H63       1.597  1.150  0.320    1.008    Y    Y      Y    6-31g*
  H64       1.597  1.150  0.320    1.008    Y    Y      Y    6-31g*
  H65       1.597  1.150  0.320    1.008    Y    Y      Y    6-31g*
 
  atom      formal  2spin      esp    mulk    frag
  P1           0       0        Y    0.000       0
  Pd2          0       0        Y    0.000       0
  Br3          0       0        Y    0.000       0
  
  end of program pre
   
 Time(pre)  user:        2.2  user+sys:        2.2  wallclock:        2.4
  
  start of program onee
  
  smallest eigenvalue of S:    4.201E-04
  number of canonical orbitals.....          624
  end of program onee
   
 Time(onee)  user:        2.8  user+sys:        2.8  wallclock:        2.8
  
  start of program hfig
  
  initial wavefunction generated automatically from atomic wavefunctions
  Only one possible d-orb occupation 
  Skip d-d repulsion considerations 
 
  Irreducible     Total no   No of occupied orbitals 
  representation  orbitals   Shell_1  Shell_2    ...
  No Symm          624        148
  ------------------------
  Orbital occupation/shell    1.000
 
  end of program hfig
   
 Time(hfig)  user:        0.6  user+sys:        0.6  wallclock:        0.7
  
  start of program probe
  
  end of program probe
   
 Time(probe)  user:        0.4  user+sys:        0.4  wallclock:        0.3
  
  start of program grid
  
   grid     grid set  grid #  grid sym
  ------    --------  ------  --------
  coarse        0        0        1
  medium        2        1        1
  fine          0        0        1
  ultrafine     4        2        1
  charge       -1        3        1
  gradient      4        2        1
  density       0        0        1
  DFT-fine    -11        4        1
  DFT-med.    -10        5        1
  DFT-grad    -12        6        1
  DFT-der2     -8        7        1
  DFT-cphf     -9        8        1
  LMP2-enrg     4        2        1
  LMP2-grad     2        1        1
  DFT-cphf2   -15        9        1
  PBF-dens      0        0        1
  plotting      0        0        1
  Rel-grad    -17        0        1
  
  number of gridpoints: 
     atom        P1      Pd2      Br3      C73      C74      C75      C76
  grid # 1      615      363      506       79       94       96       95
  grid # 2      434      339      483      330      319      324      391
  grid # 3       10      301      397       34       32       30       20
  grid # 4     8714     8714     8714     8714     8714     8714     8714
  grid # 5     1192     1192     1192     1192     1192     1192     1192
  grid # 6     9132     9132     9132     5922     5922     5922     5922
  grid # 7    23034    32968    11582    13950    13950    13950    13950
  grid # 8      722     1150      694      748      748      748      748
  grid # 9      366     2198      358      394      394      394      394
   
  number of gridpoints: 
     atom       C77      C78      F79      H80      H81      H82      H83
  grid # 1       96       94      579      112      112      110      110
  grid # 2      323      322      561      453      458      448      450
  grid # 3       30       30      277      295      267      182      275
  grid # 4     8714     8714     8714     8714     8714     8714     8714
  grid # 5     1192     1192     1192     1192     1192     1192     1192
  grid # 6     5922     5922     5922     5922     5922     5922     5922
  grid # 7    13950    13950    23190    15206    15206    15206    15206
  grid # 8      748      748      770      786      786      786      786
  grid # 9      394      394      420      420      420      420      420
   
  number of gridpoints: 
     atom        C3       C4       C5       C6       C7       C8       C9
  grid # 1       82       80       95       92       92       92       92
  grid # 2      331      331      392      278      280      279      277
  grid # 3        6        6       16        6        6        6        6
  grid # 4     8714     8714     8714     8714     8714     8714     8714
  grid # 5     1192     1192     1192     1192     1192     1192     1192
  grid # 6     5922     5922     5922     5922     5922     5922     5922
  grid # 7    13950    13950    13950    13950    13950    13950    13950
  grid # 8      748      748      748      748      748      748      748
  grid # 9      394      394      394      394      394      394      394
   
  number of gridpoints: 
     atom       C10      C11      C12      C13      C14      C15      C16
  grid # 1       91       90       92       92       92       92       93
  grid # 2      281      282      282      282      282      283      322
  grid # 3        6        6        6        6        6        6       10
  grid # 4     8714     8714     8714     8714     8714     8714     8714
  grid # 5     1192     1192     1192     1192     1192     1192     1192
  grid # 6     5922     5922     5922     5922     5922     5922     5922
  grid # 7    13950    13950    13950    13950    13950    13950    13950
  grid # 8      748      748      748      748      748      748      748
  grid # 9      394      394      394      394      394      394      394
   
  number of gridpoints: 
     atom       C17      C18      C19      C20      C21      C22      C23
  grid # 1       95       97       95      100      100       92       96
  grid # 2      325      324      328      360      364      347      323
  grid # 3       28       44       29       16       10       19       33
  grid # 4     8714     8714     8714     8714     8714     8714     8714
  grid # 5     1192     1192     1192     1192     1192     1192     1192
  grid # 6     5922     5922     5922     5922     5922     5922     5922
  grid # 7    13950    13950    13950    13950    13950    13950    13950
  grid # 8      748      748      748      748      748      748      748
  grid # 9      394      394      394      394      394      394      394
   
  number of gridpoints: 
     atom       C24      C25      C26      O27      C28      O29      C30
  grid # 1       96       96       92      118       76      119       76
  grid # 2      326      323      349      457      225      459      228
  grid # 3       31       33       24       63        6       78        6
  grid # 4     8714     8714     8714     8714     8714     8714     8714
  grid # 5     1192     1192     1192     1192     1192     1192     1192
  grid # 6     5922     5922     5922     5922     5922     5922     5922
  grid # 7    13950    13950    13950    23382    13950    23382    13950
  grid # 8      748      748      748      774      748      774      748
  grid # 9      394      394      394      416      394      416      394
   
  number of gridpoints: 
     atom       H31      H32      H33      H34      H35      H36      H37
  grid # 1      100      107      107      108      112      110      112
  grid # 2      429      434      439      445      455      454      459
  grid # 3       60      151      162      183      326      269      331
  grid # 4     8714     8714     8714     8714     8714     8714     8714
  grid # 5     1192     1192     1192     1192     1192     1192     1192
  grid # 6     5922     5922     5922     5922     5922     5922     5922
  grid # 7    15206    15206    15206    15206    15206    15206    15206
  grid # 8      786      786      786      786      786      786      786
  grid # 9      420      420      420      420      420      420      420
   
  number of gridpoints: 
     atom       H38      H39      H40      H41      H42      H43      H44
  grid # 1      105      110      100      104      101      101      105
  grid # 2      437      451      417      433      421      423      439
  grid # 3      145      291       46      119       65       97      132
  grid # 4     8714     8714     8714     8714     8714     8714     8714
  grid # 5     1192     1192     1192     1192     1192     1192     1192
  grid # 6     5922     5922     5922     5922     5922     5922     5922
  grid # 7    15206    15206    15206    15206    15206    15206    15206
  grid # 8      786      786      786      786      786      786      786
  grid # 9      420      420      420      420      420      420      420
   
  number of gridpoints: 
     atom       H45      H46      H47      H48      H49      H50      H51
  grid # 1      112      110      112      110      112      110      110
  grid # 2      457      452      458      456      458      451      443
  grid # 3      325      250      332      266      326      259      186
  grid # 4     8714     8714     8714     8714     8714     8714     8714
  grid # 5     1192     1192     1192     1192     1192     1192     1192
  grid # 6     5922     5922     5922     5922     5922     5922     5922
  grid # 7    15206    15206    15206    15206    15206    15206    15206
  grid # 8      786      786      786      786      786      786      786
  grid # 9      420      420      420      420      420      420      420
   
  number of gridpoints: 
     atom       H52      H53      H54      H55      H56      H57      H58
  grid # 1      107      106      118      118      116      111      116
  grid # 2      435      428      467      469      457      446      463
  grid # 3      157      107      409      428      341      246      364
  grid # 4     8714     8714     8714     8714     8714     8714     8714
  grid # 5     1192     1192     1192     1192     1192     1192     1192
  grid # 6     5922     5922     5922     5922     5922     5922     5922
  grid # 7    15206    15206    15206    15206    15206    15206    15206
  grid # 8      786      786      786      786      786      786      786
  grid # 9      420      420      420      420      420      420      420
   
  number of gridpoints: 
     atom       H59      H60      H61      H62      H63      H64      H65
  grid # 1      108      107      104      111      111      111      110
  grid # 2      436      451      428      448      449      463      448
  grid # 3      179      277      101      322      251      391      319
  grid # 4     8714     8714     8714     8714     8714     8714     8714
  grid # 5     1192     1192     1192     1192     1192     1192     1192
  grid # 6     5922     5922     5922     5922     5922     5922     5922
  grid # 7    15206    15206    15206    15206    15206    15206    15206
  grid # 8      786      786      786      786      786      786      786
  grid # 9      420      420      420      420      420      420      420
   
  number of gridpoints: 
     atom     total
  grid # 1     9488
  grid # 2    30154
  grid # 3    10911
  grid # 4   670978
  grid # 5    91784
  grid # 6   465624
  grid # 7  1176972
  grid # 8    59474
  grid # 9    33162
   
  end of program grid
   
 Time(grid)  user:      187.3  user+sys:      187.3  wallclock:      187.8
  
  start of program rwr
  
  end of program rwr
   
 Time(rwr)  user:        8.2  user+sys:        8.2  wallclock:        9.2
  
  start of program scf
  
 number of electrons..........        296
 number of alpha electrons....        148
 number of beta electrons.....        148
 number of orbitals, total....        624
 number of doubly-occ'd orbs..        148
 number of open shell orbs....          0
 number of occupied orbitals..        148
 number of virtual orbitals...        476
 number of hamiltonians.......          1
 number of shells.............          1
 SCF type: DFT=Becke_3_Parameter/HF+Slater+Becke88+PW91+PW-GGAIIC (B3PW91-D3)
 Energy computed with NOPS off.
 Convergence Criterion:
    Energy (econv):       1.00E-05
    RMS density (dconv):  5.00E-06
  
       i  u  d  i  g                   
       t  p  i  c  r                                 RMS    maximum
       e  d  i  u  i                       energy  density   DIIS  
       r  t  s  t  d       total energy    change  change    error 
  
etot    1  N  N  5  M   -1969.28388679861           2.1E-03  1.9E-01
etot    2  Y  Y  6  M   -1972.66120930262  3.4E+00  2.8E-03  1.3E-01
etot    3  Y  Y  6  M   -1973.37292420501  7.1E-01  1.4E-03  6.6E-02
etot    4  N  Y  2  U   -1973.80110964416  4.3E-01  7.9E-04  2.3E-02
etot    5  Y  Y  6  M   -1973.88700272025  8.6E-02  4.3E-04  1.3E-02
etot    6  N  Y  2  U   -1973.89567721307  8.7E-03  4.4E-04  6.6E-03
etot    7  Y  Y  6  M   -1973.89759858355  1.9E-03  9.9E-05  3.8E-03
etot    8  Y  Y  6  M   -1973.90058605627  3.0E-03  2.6E-05  7.0E-04
etot    9  N  Y  2  U   -1973.90171125780  1.1E-03  7.9E-06  1.9E-04
etot   10  N  Y  2  U   -1973.90171870875  7.5E-06  3.7E-06  7.4E-05
etot   11  N  N  2  U   -1973.90172040925  1.7E-06  0.0E+00  0.0E+00
 
  Computing the dispersion energy correction and its gradients...
  
  
 Energy components, in hartrees:
   (A)  Nuclear repulsion............    5178.41060948063
   (E)  Total one-electron terms.....  -13064.71569245342
   (F)    Electron-nuclear...........  -14937.84307908636
   (H)    Kinetic....................    1873.12738663295
   (I)  Total two-electron terms.....    5912.40336256354
   (J)    Coulomb....................    6166.36053174621
   (K)    Exchange+Correlation.......    -253.95716918267
   (L)  Electronic energy............   -7152.31232988988  (E+I)
   (N0) D3 correction................      -0.13789637049
   (N)  Total energy.................   -1974.03961677974  (A+L+N0)
   (O)  Gas phase energy.............   -1974.03961677974
  
 SCFE: SCF energy: DFT(b3pw91-d3)     -1974.03961677974 hartrees   iterations:  11
  
 
 HOMO energy:    -0.17080
 LUMO energy:    -0.05127
 
  Orbital energies (hartrees): 
   -77.05934   -24.68841   -19.16759   -19.16247   -10.25479   -10.23777
   -10.23664   -10.23470   -10.22184   -10.21801   -10.19035   -10.19005
   -10.18936   -10.18536   -10.18427   -10.18256   -10.17954   -10.17920
   -10.17902   -10.17830   -10.17717   -10.17531   -10.17478   -10.17147
   -10.16918   -10.16749   -10.16404   -10.16352   -10.16331   -10.16239
   -10.16205   -10.16198   -10.16153   -10.16089   -10.16030   -10.15963
    -6.55904    -4.71723    -4.71664    -4.71358    -3.27832    -2.01649
    -1.99730    -1.99193    -1.21895    -1.06507    -1.06180    -0.87516
    -0.86258    -0.84420    -0.83166    -0.82524    -0.78069    -0.77665
    -0.76800    -0.76259    -0.75250    -0.74204    -0.73641    -0.73320
    -0.73283    -0.73129    -0.71871    -0.70423    -0.68553    -0.64609
    -0.63337    -0.62357    -0.60945    -0.60745    -0.60135    -0.60127
    -0.59774    -0.58406    -0.58127    -0.55748    -0.55259    -0.54658
    -0.54074    -0.53227    -0.50335    -0.49851    -0.49416    -0.48545
    -0.48141    -0.47561    -0.47288    -0.47023    -0.46678    -0.46393
    -0.46030    -0.44990    -0.44841    -0.44254    -0.44168    -0.44069
    -0.43894    -0.43562    -0.43349    -0.42979    -0.42549    -0.41781
    -0.41527    -0.40487    -0.40279    -0.39949    -0.39258    -0.38937
    -0.38464    -0.37937    -0.37582    -0.37394    -0.37137    -0.36727
    -0.36557    -0.36311    -0.35458    -0.35311    -0.34869    -0.34738
    -0.34333    -0.34106    -0.33766    -0.33572    -0.33370    -0.33174
    -0.32156    -0.31705    -0.31506    -0.31192    -0.30301    -0.30168
    -0.29635    -0.29160    -0.28632    -0.28358    -0.28002    -0.27317
    -0.27038    -0.24856    -0.24575    -0.22951    -0.21944    -0.21578
    -0.21251    -0.20625    -0.19763    -0.17080    -0.05127    -0.02240
    -0.02217    -0.00961    -0.00715     0.00301     0.01519     0.02133
     0.04071     0.05248
 
FATAL MAE_GET_COORDS(): TOO MANY ATOMS IN CT BLOCK
  end of program scf
   
 Time(scf)  user:      245.9  user+sys:      245.9  wallclock:      250.2
  
  start of program der1a
  
  end of program der1a
   
 Time(der1a)  user:        9.7  user+sys:        9.7  wallclock:        9.8
  
  start of program rwr
  
  end of program rwr
   
 Time(rwr)  user:        9.7  user+sys:        9.7  wallclock:       12.3
  
  start of program der1b
  
   
  forces (hartrees/bohr) : total     
   
 atom  label           x              y              z
 ---- --------   -------------  -------------  -------------
    1 P1          2.922408E-03  -1.149468E-02  -5.931858E-03
    2 Pd2        -2.983425E-03  -1.025472E-03  -1.011534E-02
    3 Br3        -3.297431E-03   3.110529E-03  -4.092809E-03
    4 C73        -2.732866E-03   5.825328E-03  -1.953408E-03
    5 C74        -8.028151E-04  -8.493759E-04   1.309721E-03
    6 C75         1.979691E-04  -6.867657E-04   1.992047E-04
    7 C76         1.724906E-03   4.358676E-04   8.042219E-03
    8 C77         6.918822E-04  -3.120711E-04   1.525518E-03
    9 C78         1.680546E-03  -1.249676E-03   4.359936E-04
   10 F79         1.820182E-03  -3.563786E-03   9.702234E-04
   11 H80        -3.899346E-04   1.119769E-03   1.011329E-03
   12 H81         3.523127E-04  -5.239101E-04   1.007092E-03
   13 H82         8.860655E-04   1.080851E-04  -1.404043E-03
   14 H83         8.326884E-04   6.167173E-04   1.146551E-03
   15 C3         -6.710005E-04   1.287802E-03   4.242433E-03
   16 C4         -2.191267E-03   4.498236E-03  -6.142872E-03
   17 C5         -1.220538E-03   3.303712E-04  -4.497818E-03
   18 C6         -3.828347E-04   1.040173E-04  -9.251093E-04
   19 C7         -9.476668E-04  -1.742747E-04   6.204886E-04
   20 C8          8.514154E-04   2.807136E-04  -1.465962E-03
   21 C9         -6.754689E-04   1.814823E-04   1.363541E-03
   22 C10        -4.871162E-04  -8.349198E-04  -1.359228E-03
   23 C11        -1.408143E-03  -5.422417E-04  -2.219757E-03
   24 C12         7.067129E-04   1.043996E-03  -2.461151E-04
   25 C13        -1.735989E-04  -1.307057E-04   3.236300E-04
   26 C14         1.118326E-03  -7.304459E-04  -9.524023E-05
   27 C15        -3.388007E-03   2.620056E-03   3.449451E-04
   28 C16        -3.599641E-03  -3.106360E-03   8.513164E-04
   29 C17         2.527452E-04   9.900990E-04   3.918293E-03
   30 C18         2.248787E-03   3.589583E-03   2.927830E-03
   31 C19         1.918790E-03   2.291311E-03   7.950066E-04
   32 C20         1.864090E-03  -4.494959E-04  -7.413873E-03
   33 C21        -1.567780E-03   2.037978E-04   3.948126E-03
   34 C22        -9.613741E-05   2.264671E-04  -3.588201E-03
   35 C23         2.135195E-03   3.712554E-03  -7.349676E-04
   36 C24         2.383911E-03   3.929991E-04  -3.326276E-03
   37 C25         4.533183E-03  -8.849058E-04  -6.138209E-04
   38 C26         2.956066E-04   4.021768E-04  -5.073042E-03
   39 O27         4.704668E-04  -8.514864E-04   1.323856E-02
   40 C28         1.858222E-03  -3.089429E-03  -3.684313E-03
   41 O29        -1.234401E-03   6.231057E-03   1.074220E-02
   42 C30        -1.705440E-03   1.853752E-05  -4.466900E-03
   43 H31         2.338752E-03  -7.042365E-04  -4.419192E-03
   44 H32        -4.601753E-03   7.056362E-04   4.990495E-03
   45 H33         3.556723E-03   4.744217E-03   1.637429E-03
   46 H34         4.904975E-03  -4.726513E-04  -2.769945E-03
   47 H35         2.026278E-03   3.183722E-05   6.581576E-03
   48 H36        -4.816496E-03  -1.294352E-04   4.158634E-03
   49 H37         3.354902E-03  -5.667735E-03   2.019071E-03
   50 H38         4.046136E-03   2.394254E-04  -3.330166E-03
   51 H39        -3.617340E-03  -4.873113E-03  -9.589791E-04
   52 H40         8.773848E-05  -9.707235E-04  -7.110718E-03
   53 H41        -5.441686E-03   6.064100E-05   4.020494E-03
   54 H42         2.330696E-03  -3.769586E-03   5.569436E-03
   55 H43         1.722624E-03  -5.610237E-03  -8.950214E-04
   56 H44         3.759805E-04   2.413845E-03  -3.458535E-03
   57 H45        -3.754267E-03  -2.987250E-03  -3.705255E-03
   58 H46        -5.499065E-04  -3.643337E-03   5.860128E-03
   59 H47        -6.249362E-03  -3.027484E-04   3.272431E-03
   60 H48        -6.500858E-04   2.680120E-03  -4.509549E-03
   61 H49        -2.054892E-03   5.990101E-03   1.289076E-03
   62 H50        -6.785221E-04  -2.913772E-03   6.652403E-03
   63 H51         8.372686E-04   7.942180E-04  -3.292122E-03
   64 H52         3.927697E-03   3.171946E-03   4.388705E-03
   65 H53        -4.578669E-03  -3.292271E-03   2.600782E-03
   66 H54        -1.743151E-03   7.246277E-04   6.395512E-03
   67 H55         3.184296E-03   4.705352E-03   3.743463E-03
   68 H56         4.477450E-03   3.189399E-03  -2.719540E-03
   69 H57        -2.852709E-03   3.827104E-03  -3.987427E-03
   70 H58         1.138173E-03  -1.124167E-03  -5.629277E-03
   71 H59         1.730196E-03  -5.592858E-03  -1.738298E-03
   72 H60         1.354145E-03  -3.302159E-03   5.873093E-03
   73 H61        -4.152692E-03  -2.626758E-03  -4.955429E-03
   74 H62         6.715180E-03   2.335303E-03  -1.803173E-03
   75 H63        -3.451008E-03  -3.583947E-03  -1.493809E-03
   76 H64        -3.861869E-03   3.830807E-03   3.474228E-03
   77 H65         5.532824E-03   4.511860E-03  -3.122669E-03
 -------------   -------------  -------------  -------------
     total        2.378525E-03   1.511004E-03   2.241115E-03
   
  end of program der1b
   
 Time(der1b)  user:       96.4  user+sys:       96.4  wallclock:       97.0
  
  start of program geopt
  
 ----------------------------------------------------------------------------
  Geometry optimization step   1
  Total energy:     -1974.03961677974 hartrees
 ----------------------------------------------------------------------------
  
  Hessian eigenvalues: 
    0.00000E+00    0.00000E+00    0.00000E+00    0.00000E+00    0.00000E+00
    0.00000E+00    0.00000E+00    0.00000E+00    0.00000E+00    0.00000E+00
    0.00000E+00    0.00000E+00    0.00000E+00    0.00000E+00    0.00000E+00
    0.00000E+00    0.00000E+00    0.00000E+00    0.00000E+00    0.00000E+00
    0.00000E+00    0.00000E+00    0.00000E+00    0.00000E+00    0.00000E+00
    0.00000E+00    0.00000E+00    0.00000E+00    0.00000E+00    0.00000E+00
    0.00000E+00    0.00000E+00    0.00000E+00    0.00000E+00    0.00000E+00
    0.00000E+00    0.00000E+00    0.00000E+00    0.00000E+00    0.00000E+00
    0.00000E+00    0.00000E+00    0.00000E+00    0.00000E+00    0.00000E+00
    0.00000E+00    0.00000E+00    0.00000E+00    0.00000E+00    0.00000E+00
    4.06964E-03    5.76593E-03    6.45499E-03    8.59706E-03    1.48419E-02
    1.56659E-02    1.60290E-02    1.81977E-02    1.90920E-02    2.06788E-02
    2.27938E-02    2.57056E-02    2.81355E-02    2.99211E-02    3.04820E-02
    3.08382E-02    3.12298E-02    3.14403E-02    3.22208E-02    3.43582E-02
    3.52909E-02    3.66964E-02    4.07902E-02    4.30657E-02    4.51071E-02
    5.17228E-02    5.52444E-02    6.40325E-02    6.46072E-02    7.05626E-02
    7.21261E-02    7.42437E-02    7.58143E-02    7.90883E-02    8.11815E-02
    8.41714E-02    8.48660E-02    8.81648E-02    9.36430E-02    9.59422E-02
    1.03024E-01    1.06070E-01    1.08953E-01    1.16478E-01    1.19435E-01
    1.26850E-01    1.30631E-01    1.31334E-01    1.34592E-01    1.35119E-01
    1.36660E-01    1.38535E-01    1.39144E-01    1.41275E-01    1.41687E-01
    1.42315E-01    1.44493E-01    1.46733E-01    1.46971E-01    1.50777E-01
    1.57413E-01    1.57635E-01    1.59962E-01    1.63888E-01    1.64210E-01
    1.66101E-01    1.70271E-01    1.70673E-01    1.72061E-01    1.77920E-01
    1.80402E-01    1.81638E-01    1.84130E-01    1.99338E-01    2.00379E-01
    2.00752E-01    2.05507E-01    2.09149E-01    2.17147E-01    2.17677E-01
    2.18528E-01    2.21155E-01    2.23646E-01    2.23919E-01    2.26060E-01
    2.26966E-01    2.28468E-01    2.29179E-01    2.30577E-01    2.32492E-01
    2.32895E-01    2.33514E-01    2.34556E-01    2.34787E-01    2.35709E-01
    2.36625E-01    2.37455E-01    2.39077E-01    2.45064E-01    2.46428E-01
    2.47145E-01    2.50257E-01    2.51661E-01    2.52825E-01    2.60106E-01
    2.61690E-01    2.62817E-01    2.66882E-01    2.74018E-01    2.79063E-01
    2.83207E-01    2.85871E-01    2.86151E-01    2.90944E-01    2.94570E-01
    2.96461E-01    2.97573E-01    2.98107E-01    2.99041E-01    2.99488E-01
    3.03298E-01    3.04436E-01    3.05689E-01    3.15515E-01    3.16729E-01
    3.17152E-01    3.17648E-01    3.18073E-01    3.18465E-01    3.18639E-01
    3.19004E-01    3.19096E-01    3.19389E-01    3.19717E-01    3.19748E-01
    3.20354E-01    3.20631E-01    3.20799E-01    3.20801E-01    3.20912E-01
    3.21036E-01    3.21041E-01    3.21160E-01    3.21221E-01    3.21626E-01
    3.21883E-01    3.22423E-01    3.23053E-01    3.23801E-01    3.24410E-01
    3.24759E-01    3.26585E-01    3.26639E-01    3.26867E-01    3.26958E-01
    3.27501E-01    3.27576E-01    3.28092E-01    3.32306E-01    3.32895E-01
    3.33076E-01    3.33154E-01    3.34300E-01    3.34532E-01    3.35361E-01
    3.37095E-01    3.37696E-01    3.38126E-01    3.38770E-01    3.42007E-01
    3.43697E-01    3.45061E-01    3.46757E-01    3.46984E-01    3.47920E-01
    3.49971E-01    3.52437E-01    3.56047E-01    3.56282E-01    3.56933E-01
    3.57422E-01    3.61348E-01    3.63612E-01    3.65225E-01    3.69515E-01
    3.74717E-01    3.74843E-01    3.75287E-01    3.78270E-01    3.79055E-01
    3.79411E-01    3.96267E-01    3.99262E-01    3.99389E-01    4.03443E-01
    4.10477E-01    4.10776E-01    4.12649E-01    4.18028E-01    4.25831E-01
    4.26901E-01    4.37691E-01    4.44052E-01    4.64685E-01    4.76926E-01
    4.96138E-01    4.96899E-01    5.04842E-01    5.15514E-01    5.29368E-01
    5.32289E-01    5.33816E-01    5.38132E-01    5.44378E-01    5.47688E-01
    5.64634E-01    5.83468E-01    6.25998E-01    6.73648E-01    6.78403E-01
    7.06418E-01    7.16706E-01    7.32367E-01    7.71932E-01    1.12823E+00
  
 WARNING: Hessian has wrong number of negative eigenvalues:           0
  
  TS search will follow eigenvector  51 on this iteration
  
  Selected vector:  eigenvalue     4.06964E-03

 51)  C76-Pd2-P1-C3( 68) -0.50059
      C76-Pd2-P1-C4( 69) -0.49104
      C76-Pd2-P1-C5( 70) -0.48826
      Br3-Pd2-P1-C3( 41) -0.43659
  
  
  Level shifts adjusted to satisfy step-size constraints
   Step size:    0.1000455
   Cos(theta):   0.9866754
   Final level shift:  -6.3266272E-01
  
  gradient maximum:        2.8385E-02 .  (  2.2500E-03 )
  gradient rms:            5.6293E-03 .  (  1.5000E-03 )
  displacement maximum:    2.7273E-02 .  (  9.0000E-03 )
  displacement rms:        6.0314E-03 .  (  6.0000E-03 )
  
  predicted energy change:  -7.7578E-03
  step size:     0.10002
  trust radius:  0.10000
  
  molecular structure not yet converged...
  
  center of mass moved by:
     x:    -9.2004E-03     y:    -5.8751E-02     z:    -2.4756E-02
  
  new geometry: 
                                   angstroms
  atom               x                 y                 z
  P1           -0.0029218284     -0.0024964341     -0.0304466768 
  Pd2          -0.0130848240     -0.0536372622      2.3173044395 
  Br3           0.7892520130     -0.1019576092      4.9655837359 
  C73          -1.5727022101      3.6539095998      3.0582908235 
  C74          -0.1873862196      3.6169794642      2.9512533156 
  C75           0.4897539654      2.4644280721      3.3406756299 
  C76          -0.2576606969      1.3514542846      3.7751631332 
  C77          -1.6499451923      1.4314708837      3.9614240873 
  C78          -2.3121562055      2.5943821777      3.5653114896 
  F79          -2.2246843040      4.7674785896      2.6509867161 
  H80           0.3440083487      4.4691144155      2.5403700649 
  H81           1.5694176844      2.4031043931      3.2652419037 
  H82          -2.1936164361      0.5972104314      4.3900373727 
  H83          -3.3913340063      2.6830411520      3.6491201089 
  C3           -0.7385796165      1.6103728045     -0.7294009258 
  C4            1.7497668225     -0.0920045020     -0.7798720006 
  C5           -0.9624864215     -1.3072430758     -0.9544654446 
  C6           -1.1717334086      1.6175521502     -2.2067202794 
  C7           -1.8976866651      2.9332898013     -2.5544149781 
  C8           -1.0424435191      4.1668989986     -2.2279782079 
  C9           -0.5761528916      4.1408138244     -0.7645552393 
  C10           0.1581009919      2.8295597354     -0.4300029629 
  C11           2.7450003649      0.6482375559      0.1470533337 
  C12           4.1451357015      0.7216467124     -0.4891283830 
  C13           4.6856401304     -0.6766661916     -0.8286248601 
  C14           3.6843747550     -1.4526249399     -1.6991773376 
  C15           2.2899192597     -1.5150746451     -1.0482845457 
  C16          -0.6770301496     -1.5476033338     -2.3151599235 
  C17          -1.3635845814     -2.5125395879     -3.0528635172 
  C18          -2.3661065527     -3.2667040994     -2.4341266857 
  C19          -2.6703283276     -3.0258547515     -1.0953963018 
  C20          -1.9902802418     -2.0512793036     -0.3401277133 
  C21          -2.4343994822     -1.8610967566      1.0721793848 
  C22          -2.1278248132     -2.8251102741      2.0540415185 
  C23          -2.5849644851     -2.6779731360      3.3725805702 
  C24          -3.3729494874     -1.5731835240      3.6967144363 
  C25          -3.7243012758     -0.6201998229      2.7380240734 
  C26          -3.2505398780     -0.7696451847      1.4250421900 
  O27          -3.5403815933      0.0850379191      0.3919995891 
  C28          -4.2808348928      1.2601415763      0.7051601017 
  O29          -1.3880841045     -3.8870769137      1.6159002319 
  C30          -0.7631290059     -4.6978536648      2.6057243051 
  H31          -1.6452769919      1.7055212798     -0.1056137386 
  H32          -0.2853556578      1.5126148500     -2.8625292755 
  H33          -1.8355400389      0.7676459758     -2.4225944376 
  H34          -2.8396630738      2.9811653888     -1.9757331064 
  H35          -2.1839305565      2.9302808944     -3.6215678441 
  H36          -0.1565757088      4.1780008039     -2.8924100376 
  H37          -1.6060904590      5.0928716949     -2.4409351289 
  H38          -1.4474340586      4.2382114532     -0.0911395561 
  H39           0.0827319392      5.0020031141     -0.5548020227 
  H40           0.4423274922      2.8285337060      0.6323124227 
  H41           1.0807702569      2.7719057542     -1.0376630685 
  H42           1.6958380636      0.4652929876     -1.7383626219 
  H43           2.3874768523      1.6584547249      0.3938242670 
  H44           2.7943668911      0.0954057157      1.1016157804 
  H45           4.8355772504      1.2434533285      0.1966992034 
  H46           4.0976887672      1.3311389330     -1.4131322965 
  H47           5.6660853261     -0.6029434465     -1.3327137229 
  H48           4.8493433164     -1.2356756366      0.1109800764 
  H49           4.0527545616     -2.4765913632     -1.8892083587 
  H50           3.6026899281     -0.9601610449     -2.6886154953 
  H51           2.3491373974     -2.0465353820     -0.0830776886 
  H52           1.6053347547     -2.0964836489     -1.6822357768 
  H53           0.0954498543     -0.9586434346     -2.8132112164 
  H54          -1.1137506834     -2.6713850742     -4.1056644825 
  H55          -2.9122030938     -4.0326325416     -2.9913737583 
  H56          -3.4578319131     -3.6008491998     -0.6022989436 
  H57          -2.3011144025     -3.3912360801      4.1452899260 
  H58          -3.7055719960     -1.4385167710      4.7287227578 
  H59          -4.3155290476      0.2474643105      3.0262501516 
  H60          -4.3786791055      1.8062258994     -0.2429911343 
  H61          -3.7386057948      1.8802900817      1.4372392841 
  H62          -5.2892132756      1.0125153949      1.0851746645 
  H63          -0.1282952639     -4.0854182128      3.2666490710 
  H64          -0.1340491667     -5.4052750487      2.0491116611 
  H65          -1.5040879343     -5.2650440099      3.1996863563 
   
 
  bond lengths (angstroms):
 
 P1      -Pd2     :   2.348330      P1      -C3      :   1.905538
 P1      -C4      :   1.908289      P1      -C5      :   1.864655
 Pd2     -Br3     :   2.767573      Pd2     -C76     :   2.039473
 Br3     -C76     :   2.150705      C73     -C74     :   1.389936
 C73     -C78     :   1.387970      C73     -F79     :   1.353149
 C74     -C75     :   1.392316      C74     -H80     :   1.085053
 C75     -C76     :   1.409297      C75     -H81     :   1.084032
 C76     -C77     :   1.406965      C77     -C78     :   1.395633
 C77     -H82     :   1.084103      C78     -H83     :   1.086052
 C3      -C6      :   1.539528      C3      -C10     :   1.542755
 C3      -H31     :   1.104656      C4      -C11     :   1.548431
 C4      -C15     :   1.545619      C4      -H42     :   1.110042
 C5      -C16     :   1.410939      C5      -C20     :   1.409738
 C6      -C7      :   1.542422      C6      -H32     :   1.107593
 C6      -H33     :   1.099810      C7      -C8      :   1.536162
 C7      -H34     :   1.106564      C7      -H35     :   1.104880
 C8      -C9      :   1.536136      C8      -H36     :   1.107409
 C8      -H37     :   1.104751      C9      -C10     :   1.539624
 C9      -H38     :   1.105489      C9      -H39     :   1.104433
 C10     -H40     :   1.099682      C10     -H41     :   1.106297
 C11     -C12     :   1.539641      C11     -H43     :   1.099663
 C11     -H44     :   1.104196      C12     -C13     :   1.537102
 C12     -H45     :   1.104242      C12     -H46     :   1.107933
 C13     -C14     :   1.537045      C13     -H47     :   1.104904
 C13     -H48     :   1.105508      C14     -C15     :   1.540152
 C14     -H49     :   1.104682      C14     -H50     :   1.108233
 C15     -H51     :   1.103441      C15     -H52     :   1.099357
 C16     -C17     :   1.395230      C16     -H53     :   1.091629
 C17     -C18     :   1.398803      C17     -H54     :   1.093636
 C18     -C19     :   1.393829      C18     -H55     :   1.093340
 C19     -C20     :   1.408081      C19     -H56     :   1.092669
 C20     -C21     :   1.492656      C21     -C22     :   1.409739
 C21     -C26     :   1.407787      C22     -C23     :   1.403272
 C22     -O29     :   1.366366      C23     -C24     :   1.395186
 C23     -H57     :   1.089217      C24     -C25     :   1.396679
 C24     -H58     :   1.092618      C25     -C26     :   1.403818
 C25     -H59     :   1.088791      C26     -O27     :   1.371739
 O27     -C28     :   1.423801      C28     -H60     :   1.098532
 C28     -H61     :   1.102060      C28     -H62     :   1.105693
 O29     -C30     :   1.423966      C30     -H63     :   1.102231
 C30     -H64     :   1.098182      C30     -H65     :   1.106127
 
  bond angles:
 
 C3      -P1      -Pd2     : 112.548974  C4      -P1      -Pd2     : 113.302005
 C4      -P1      -C3      : 104.491349  C5      -P1      -Pd2     : 118.552023
 C5      -P1      -C3      : 102.228945  C5      -P1      -C4      : 104.194552
 Br3     -Pd2     -P1      : 162.898528  C76     -Pd2     -P1      : 134.439869
 C76     -Pd2     -Br3     :  50.415554  C76     -Br3     -Pd2     :  46.955790
 C78     -C73     -C74     : 122.604531  F79     -C73     -C74     : 118.614210
 F79     -C73     -C78     : 118.781251  C75     -C74     -C73     : 119.024252
 H80     -C74     -C73     : 119.762658  H80     -C74     -C75     : 121.186957
 C76     -C75     -C74     : 118.818775  H81     -C75     -C74     : 120.780254
 H81     -C75     -C76     : 120.330477  Br3     -C76     -Pd2     :  82.628656
 C75     -C76     -Pd2     : 105.076478  C75     -C76     -Br3     : 116.498654
 C77     -C76     -Pd2     : 104.624491  C77     -C76     -Br3     : 116.542072
 C77     -C76     -C75     : 121.380050  C78     -C77     -C76     : 118.643052
 H82     -C77     -C76     : 120.320489  H82     -C77     -C78     : 121.029499
 C77     -C78     -C73     : 119.141324  H83     -C78     -C73     : 119.686886
 H83     -C78     -C77     : 121.171687  C6      -C3      -P1      : 117.680956
 C10     -C3      -P1      : 111.920422  C10     -C3      -C6      : 110.247084
 H31     -C3      -P1      : 100.524450  H31     -C3      -C6      : 108.091462
 H31     -C3      -C10     : 107.422004  C11     -C4      -P1      : 109.439637
 C15     -C4      -P1      : 115.617634  C15     -C4      -C11     : 108.632247
 H42     -C4      -P1      : 105.719849  H42     -C4      -C11     : 107.945341
 H42     -C4      -C15     : 109.224581  C16     -C5      -P1      : 119.537008
 C20     -C5      -P1      : 121.906704  C20     -C5      -C16     : 118.545408
 C7      -C6      -C3      : 110.653314  H32     -C6      -C3      : 110.033806
 H32     -C6      -C7      : 108.905129  H33     -C6      -C3      : 110.766734
 H33     -C6      -C7      : 109.322468  H33     -C6      -H32     : 107.072520
 C8      -C7      -C6      : 112.029804  H34     -C7      -C6      : 108.643279
 H34     -C7      -C8      : 109.151046  H35     -C7      -C6      : 109.714620
 H35     -C7      -C8      : 110.589397  H35     -C7      -H34     : 106.539498
 C9      -C8      -C7      : 110.965359  H36     -C8      -C7      : 109.020993
 H36     -C8      -C9      : 109.204184  H37     -C8      -C7      : 110.369856
 H37     -C8      -C9      : 110.655251  H37     -C8      -H36     : 106.503611
 C10     -C9      -C8      : 111.483593  H38     -C9      -C8      : 109.851740
 H38     -C9      -C10     : 108.574475  H39     -C9      -C8      : 110.412682
 H39     -C9      -C10     : 109.774287  H39     -C9      -H38     : 106.606712
 C9      -C10     -C3      : 110.713231  H40     -C10     -C3      : 109.691724
 H40     -C10     -C9      : 109.509793  H41     -C10     -C3      : 109.692183
 H41     -C10     -C9      : 108.830892  H41     -C10     -H40     : 108.360786
 C12     -C11     -C4      : 111.096566  H43     -C11     -C4      : 111.379385
 H43     -C11     -C12     : 110.156512  H44     -C11     -C4      : 107.871839
 H44     -C11     -C12     : 109.902527  H44     -C11     -H43     : 106.288888
 C13     -C12     -C11     : 111.571717  H45     -C12     -C11     : 109.542501
 H45     -C12     -C13     : 110.315584  H46     -C12     -C11     : 109.383541
 H46     -C12     -C13     : 109.347853  H46     -C12     -H45     : 106.546787
 C14     -C13     -C12     : 110.810915  H47     -C13     -C12     : 110.615626
 H47     -C13     -C14     : 110.691131  H48     -C13     -C12     : 108.926163
 H48     -C13     -C14     : 108.818480  H48     -C13     -H47     : 106.864072
 C15     -C14     -C13     : 111.771582  H49     -C14     -C13     : 110.374272
 H49     -C14     -C15     : 109.696642  H50     -C14     -C13     : 109.229267
 H50     -C14     -C15     : 109.183698  H50     -C14     -H49     : 106.433095
 C14     -C15     -C4      : 110.638604  H51     -C15     -C4      : 108.077406
 H51     -C15     -C14     : 109.914168  H52     -C15     -C4      : 111.681751
 H52     -C15     -C14     : 109.971067  H52     -C15     -H51     : 106.446103
 C17     -C16     -C5      : 121.881674  H53     -C16     -C5      : 119.423133
 H53     -C16     -C17     : 118.692646  C18     -C17     -C16     : 119.450197
 H54     -C17     -C16     : 119.803776  H54     -C17     -C18     : 120.746026
 C19     -C18     -C17     : 119.216662  H55     -C18     -C17     : 120.678785
 H55     -C18     -C19     : 120.103303  C20     -C19     -C18     : 121.962452
 H56     -C19     -C18     : 119.987683  H56     -C19     -C20     : 118.049840
 C19     -C20     -C5      : 118.924753  C21     -C20     -C5      : 124.194325
 C21     -C20     -C19     : 116.871791  C22     -C21     -C20     : 120.474921
 C26     -C21     -C20     : 120.559439  C26     -C21     -C22     : 118.794249
 C23     -C22     -C21     : 120.789446  O29     -C22     -C21     : 115.206481
 O29     -C22     -C23     : 123.997796  C24     -C23     -C22     : 119.032990
 H57     -C23     -C22     : 120.865473  H57     -C23     -C24     : 120.060250
 C25     -C24     -C23     : 121.527853  H58     -C24     -C23     : 119.272927
 H58     -C24     -C25     : 119.186316  C26     -C25     -C24     : 118.976910
 H59     -C25     -C24     : 119.910125  H59     -C25     -C26     : 121.043198
 C25     -C26     -C21     : 120.838225  O27     -C26     -C21     : 114.632236
 O27     -C26     -C25     : 124.521996  C28     -O27     -C26     : 117.288988
 H60     -C28     -O27     : 105.471345  H61     -C28     -O27     : 110.772596
 H61     -C28     -H60     : 109.721045  H62     -C28     -O27     : 111.409991
 H62     -C28     -H60     : 109.071073  H62     -C28     -H61     : 110.268989
 C30     -O29     -C22     : 117.209366  H63     -C30     -O29     : 110.684421
 H64     -C30     -O29     : 105.418587  H64     -C30     -H63     : 109.385117
 H65     -C30     -O29     : 111.791384  H65     -C30     -H63     : 110.410409
 H65     -C30     -H64     : 109.000480
 
  torsional angles:
 
 P1      -Pd2     -Br3     -C76     : 113.707056
 P1      -Pd2     -C76     -Br3     :-157.845344
 P1      -Pd2     -C76     -C75     : -42.309022
 P1      -Pd2     -C76     -C77     :  86.565916
 P1      -C3      -C6      -C7      : 173.054116
 P1      -C3      -C6      -H32     : -66.547965
 P1      -C3      -C6      -H33     :  51.647049
 P1      -C3      -C10     -C9      :-169.297666
 P1      -C3      -C10     -H40     : -48.330063
 P1      -C3      -C10     -H41     :  70.579913
 P1      -C4      -C11     -C12     :-174.329076
 P1      -C4      -C11     -H43     : -51.121951
 P1      -C4      -C11     -H44     :  65.155063
 P1      -C4      -C15     -C14     : 177.870709
 P1      -C4      -C15     -H51     : -61.744018
 P1      -C4      -C15     -H52     :  55.016595
 P1      -C5      -C16     -C17     : 179.934310
 P1      -C5      -C16     -H53     :  -0.653988
 P1      -C5      -C20     -C19     :-179.711785
 P1      -C5      -C20     -C21     :   1.423598
 Pd2     -P1      -C3      -C6      :-162.523566
 Pd2     -P1      -C3      -C10     :  68.252566
 Pd2     -P1      -C3      -H31     : -45.514723
 Pd2     -P1      -C4      -C11     : -34.126742
 Pd2     -P1      -C4      -C15     :  88.896133
 Pd2     -P1      -C4      -H42     :-150.152067
 Pd2     -P1      -C5      -C16     :-161.727631
 Pd2     -P1      -C5      -C20     :  19.490056
 Pd2     -Br3     -C76     -C75     :-103.212688
 Pd2     -Br3     -C76     -C77     : 102.706705
 Pd2     -C76     -C75     -C74     : 111.010160
 Pd2     -C76     -C75     -H81     : -65.960631
 Pd2     -C76     -C77     -C78     :-111.197750
 Pd2     -C76     -C77     -H82     :  67.852442
 Br3     -Pd2     -P1      -C3      :-114.163963
 Br3     -Pd2     -P1      -C4      :   4.120382
 Br3     -Pd2     -P1      -C5      : 126.689897
 Br3     -Pd2     -C76     -C75     : 115.536322
 Br3     -Pd2     -C76     -C77     :-115.588740
 Br3     -C76     -C75     -C74     :-159.801782
 Br3     -C76     -C75     -H81     :  23.227426
 Br3     -C76     -C77     -C78     : 159.826689
 Br3     -C76     -C77     -H82     : -21.123119
 C73     -C74     -C75     -C76     :   2.775688
 C73     -C74     -C75     -H81     : 179.732395
 C73     -C78     -C77     -C76     :  -2.869127
 C73     -C78     -C77     -H82     : 178.087679
 C74     -C73     -C78     -C77     :  -1.302845
 C74     -C73     -C78     -H83     : 178.581385
 C74     -C75     -C76     -C77     :  -7.062079
 C75     -C74     -C73     -C78     :   1.350037
 C75     -C74     -C73     -F79     :-178.617622
 C75     -C76     -C77     -C78     :   7.098152
 C75     -C76     -C77     -H82     :-173.851656
 C76     -Pd2     -P1      -C3      : -15.400510
 C76     -Pd2     -P1      -C4      : 102.883835
 C76     -Pd2     -P1      -C5      :-134.546650
 C76     -C75     -C74     -H80     :-175.360167
 C76     -C77     -C78     -H83     : 177.248418
 C77     -C76     -C75     -H81     : 175.967129
 C77     -C78     -C73     -F79     : 178.664762
 C78     -C73     -C74     -H80     : 179.512973
 F79     -C73     -C74     -H80     :  -0.454686
 F79     -C73     -C78     -H83     :  -1.451008
 H80     -C74     -C75     -H81     :   1.596541
 H82     -C77     -C78     -H83     :  -1.794775
 C3      -P1      -C4      -C11     :  88.731989
 C3      -P1      -C4      -C15     :-148.245137
 C3      -P1      -C4      -H42     : -27.293336
 C3      -P1      -C5      -C16     :  73.895344
 C3      -P1      -C5      -C20     :-104.886968
 C3      -C6      -C7      -C8      :  55.675980
 C3      -C6      -C7      -H34     : -64.988544
 C3      -C6      -C7      -H35     : 178.904745
 C3      -C10     -C9      -C8      : -56.734072
 C3      -C10     -C9      -H38     :  64.414305
 C3      -C10     -C9      -H39     :-179.404521
 C4      -P1      -C3      -C6      :  74.129196
 C4      -P1      -C3      -C10     : -55.094671
[...]
    H58      Y    -0.00047  0.00016 -0.00024 -0.00036 -0.00028  0.00733
    H58      Z    -0.00406  0.00140 -0.00215 -0.00273 -0.00239  0.09731
    H59      X    -0.00034  0.00028  0.00255  0.01795  0.01051 -0.56840
    H59      Y     0.00040 -0.00032 -0.00285 -0.02040 -0.01197  0.63658
    H59      Z     0.00019 -0.00014 -0.00067 -0.00570 -0.00335  0.18095
    H60      X    -0.00002 -0.00017 -0.00008  0.00026  0.00021  0.00045
    H60      Y     0.00001  0.00056  0.00061 -0.00076 -0.00064 -0.00742
    H60      Z    -0.00004 -0.00113 -0.00114  0.00175  0.00144  0.01860
    H61      X    -0.00010  0.00017 -0.00022  0.00168  0.00087  0.00582
    H61      Y    -0.00017  0.00036 -0.00024  0.00302  0.00160  0.00730
    H61      Z    -0.00016  0.00040 -0.00027  0.00286  0.00145  0.00874
    H62      X    -0.00011  0.00046 -0.00062  0.00193  0.00097 -0.01730
    H62      Y    -0.00001  0.00019 -0.00014  0.00085  0.00042 -0.00721
    H62      Z     0.00004 -0.00018  0.00028 -0.00060 -0.00030  0.00730
    H63      X    -0.00027  0.00046 -0.00030 -0.00006  0.00003 -0.00296
    H63      Y    -0.00023  0.00051 -0.00035 -0.00005  0.00002 -0.00402
    H63      Z    -0.00040  0.00073 -0.00041 -0.00013  0.00002 -0.00422
    H64      X    -0.00022  0.00017  0.00092 -0.00022 -0.00018  0.00571
    H64      Y     0.00021 -0.00025 -0.00075  0.00021  0.00016 -0.00497
    H64      Z     0.00016 -0.00017 -0.00060  0.00017  0.00014 -0.00513
    H65      X    -0.00003  0.00019 -0.00037 -0.00023 -0.00004  0.00685
    H65      Y     0.00000  0.00009 -0.00027 -0.00018 -0.00003  0.00457
    H65      Z     0.00001 -0.00011  0.00032  0.00011  0.00001 -0.00399
  
  vibration #          223      224      225
                  -------- -------- --------
  frequencies      3236.70  3242.28  3263.51
  intensities         3.30     0.23     5.04
  reduc. mass         0.64     0.77     0.90
  force const         3.98     4.78     5.64
    P1       X    -0.00000  0.00000 -0.00002
    P1       Y    -0.00001 -0.00000  0.00002
    P1       Z    -0.00001  0.00001 -0.00003
    Pd2      X    -0.00001 -0.00001  0.00001
    Pd2      Y    -0.00000  0.00000  0.00000
    Pd2      Z     0.00001 -0.00001  0.00000
    Br3      X     0.00000  0.00001  0.00001
    Br3      Y    -0.00000 -0.00002 -0.00001
    Br3      Z     0.00001  0.00001  0.00000
    C73      X    -0.00001  0.00208 -0.00069
    C73      Y    -0.00003 -0.00050 -0.00111
    C73      Z     0.00000  0.00007  0.00049
    C74      X     0.00000 -0.01283 -0.00049
    C74      Y     0.00002 -0.02249 -0.00084
    C74      Z    -0.00000  0.00880  0.00029
    C75      X    -0.00011 -0.07954 -0.00010
    C75      Y     0.00000  0.00864 -0.00019
    C75      Z     0.00001  0.00056  0.00018
    C76      X    -0.00003  0.00117 -0.00271
    C76      Y     0.00000  0.00264  0.00061
    C76      Z    -0.00005 -0.00081  0.00005
    C77      X     0.00004  0.00019  0.04545
    C77      Y     0.00010 -0.00034  0.06286
    C77      Z    -0.00001  0.00018 -0.02818
    C78      X     0.00075  0.00151  0.01198
    C78      Y    -0.00010 -0.00012 -0.00384
    C78      Z    -0.00003 -0.00013  0.00049
    F79      X    -0.00000 -0.00018  0.00001
    F79      Y     0.00000  0.00014  0.00011
    F79      Z     0.00000 -0.00005 -0.00005
    H80      X    -0.00014  0.15573  0.00605
    H80      Y    -0.00020  0.22591  0.00819
    H80      Z     0.00007 -0.09041 -0.00344
    H81      X     0.00129  0.90290 -0.00183
    H81      Y    -0.00014 -0.08822  0.00042
    H81      Z    -0.00004 -0.01184  0.00040
    H82      X    -0.00023  0.00194 -0.52916
    H82      Y    -0.00071  0.00345 -0.71728
    H82      Z     0.00007 -0.00096  0.31554
    H83      X    -0.00864 -0.01655 -0.11929
    H83      Y     0.00113  0.00161  0.01684
    H83      Z     0.00039  0.00067  0.00397
    C3       X     0.00001 -0.00002 -0.00000
    C3       Y     0.00000 -0.00001  0.00000
    C3       Z     0.00000  0.00003  0.00000
    C4       X    -0.00000 -0.00001  0.00000
    C4       Y     0.00001  0.00001  0.00000
    C4       Z     0.00000 -0.00000  0.00000
    C5       X    -0.00001 -0.00000 -0.00000
    C5       Y    -0.00002  0.00000 -0.00002
    C5       Z    -0.00002 -0.00000  0.00001
    C6       X    -0.00002 -0.00000 -0.00001
    C6       Y    -0.00001  0.00000 -0.00001
    C6       Z    -0.00000 -0.00000 -0.00000
    C7       X     0.00001 -0.00001 -0.00000
    C7       Y    -0.00000  0.00000  0.00000
    C7       Z     0.00000 -0.00000  0.00000
    C8       X     0.00000 -0.00000 -0.00000
    C8       Y    -0.00001  0.00001  0.00000
    C8       Z     0.00000 -0.00001 -0.00000
    C9       X     0.00000 -0.00001 -0.00000
    C9       Y    -0.00001  0.00000 -0.00001
    C9       Z    -0.00001  0.00001 -0.00000
    C10      X    -0.00001 -0.00002 -0.00001
    C10      Y     0.00000  0.00001  0.00000
    C10      Z    -0.00001 -0.00013 -0.00001
    C11      X     0.00001  0.00006  0.00000
    C11      Y    -0.00001 -0.00018  0.00000
    C11      Z    -0.00001 -0.00004 -0.00002
    C12      X    -0.00001  0.00003  0.00000
    C12      Y    -0.00001  0.00003  0.00000
    C12      Z    -0.00000  0.00003  0.00000
    C13      X    -0.00001  0.00000  0.00000
    C13      Y     0.00000 -0.00001  0.00000
    C13      Z    -0.00000  0.00001 -0.00000
    C14      X    -0.00001  0.00000  0.00000
    C14      Y     0.00001 -0.00000 -0.00000
    C14      Z     0.00000  0.00000 -0.00000
    C15      X    -0.00001  0.00000 -0.00001
    C15      Y    -0.00000 -0.00000 -0.00001
    C15      Z    -0.00002  0.00001 -0.00002
    C16      X    -0.00011 -0.00000 -0.00000
    C16      Y    -0.00009 -0.00000  0.00000
    C16      Z     0.00007  0.00000  0.00000
    C17      X    -0.00003  0.00000 -0.00000
    C17      Y     0.00002  0.00000  0.00000
    C17      Z     0.00013 -0.00000  0.00001
    C18      X     0.00011 -0.00000  0.00001
    C18      Y     0.00016 -0.00000  0.00002
    C18      Z     0.00013 -0.00000  0.00002
    C19      X     0.00014  0.00000 -0.00001
    C19      Y     0.00009  0.00000 -0.00002
    C19      Z    -0.00013  0.00000 -0.00001
    C20      X    -0.00002  0.00000 -0.00001
    C20      Y     0.00004  0.00000  0.00001
    C20      Z     0.00005  0.00000  0.00003
    C21      X     0.00005  0.00001 -0.00003
    C21      Y    -0.00019  0.00000 -0.00001
    C21      Z     0.00021 -0.00000 -0.00000
    C22      X    -0.00144  0.00001 -0.00005
    C22      Y     0.00077 -0.00000  0.00005
    C22      Z     0.00282 -0.00000 -0.00005
    C23      X    -0.02215  0.00002  0.00001
    C23      Y     0.04643 -0.00005 -0.00001
    C23      Z    -0.05590  0.00006 -0.00003
    C24      X     0.00866 -0.00003 -0.00045
    C24      Y    -0.00340  0.00000  0.00040
    C24      Z    -0.01907  0.00005  0.00151
    C25      X     0.01950 -0.00005  0.00059
    C25      Y    -0.02214  0.00005 -0.00018
    C25      Z    -0.00530  0.00002  0.00017
    C26      X    -0.00031  0.00000  0.00011
    C26      Y    -0.00012  0.00001 -0.00010
    C26      Z     0.00132 -0.00000 -0.00011
    O27      X     0.00008  0.00000 -0.00001
    O27      Y    -0.00005 -0.00000  0.00003
    O27      Z    -0.00010  0.00000 -0.00002
    C28      X     0.00028 -0.00001 -0.00005
    C28      Y     0.00012 -0.00000 -0.00009
    C28      Z    -0.00066  0.00001 -0.00007
    O29      X     0.00008 -0.00000  0.00004
    O29      Y    -0.00000  0.00000 -0.00003
    O29      Z    -0.00035  0.00000 -0.00000
    C30      X     0.00114 -0.00000 -0.00004
    C30      Y    -0.00037  0.00001  0.00005
    C30      Z    -0.00176  0.00001  0.00002
    H31      X    -0.00007  0.00028  0.00005
    H31      Y    -0.00001 -0.00001 -0.00004
    H31      Z     0.00003 -0.00015 -0.00002
    H32      X    -0.00000  0.00001  0.00003
    H32      Y    -0.00001 -0.00001 -0.00000
    H32      Z     0.00001 -0.00003 -0.00004
    H33      X     0.00015  0.00010  0.00014
    H33      Y     0.00013  0.00010  0.00015
    H33      Z     0.00006  0.00006  0.00006
    H34      X    -0.00005  0.00006  0.00004
    H34      Y     0.00001 -0.00000 -0.00001
    H34      Z     0.00004 -0.00004 -0.00003
    H35      X    -0.00002  0.00003  0.00002
    H35      Y     0.00001  0.00001  0.00000
    H35      Z    -0.00005  0.00008  0.00004
    H36      X    -0.00001 -0.00001  0.00001
    H36      Y    -0.00001  0.00001  0.00000
    H36      Z     0.00001  0.00001 -0.00000
    H37      X    -0.00006  0.00011  0.00001
    H37      Y     0.00011 -0.00014 -0.00001
    H37      Z    -0.00002  0.00005  0.00001
    H38      X    -0.00008  0.00001 -0.00003
    H38      Y     0.00000 -0.00005 -0.00001
    H38      Z     0.00006 -0.00001  0.00000
    H39      X     0.00006  0.00013  0.00008
    H39      Y     0.00010  0.00018  0.00011
    H39      Z     0.00001 -0.00003  0.00001
    H40      X     0.00004  0.00012  0.00008
    H40      Y    -0.00001 -0.00025 -0.00003
    H40      Z     0.00006  0.00105  0.00014
    H41      X     0.00000 -0.00017  0.00000
    H41      Y     0.00000  0.00002  0.00001
    H41      Z     0.00000  0.00015  0.00002
    H42      X     0.00003  0.00002 -0.00005
    H42      Y    -0.00003 -0.00001 -0.00004
    H42      Z    -0.00001  0.00006  0.00014
    H43      X    -0.00005 -0.00064 -0.00003
    H43      Y     0.00014  0.00231  0.00012
    H43      Z     0.00002  0.00003 -0.00001
    H44      X    -0.00001  0.00012  0.00004
    H44      Y    -0.00003 -0.00028 -0.00014
    H44      Z     0.00007  0.00030  0.00026
    H45      X     0.00011 -0.00028  0.00002
    H45      Y     0.00007 -0.00024  0.00001
    H45      Z     0.00008 -0.00022  0.00000
    H46      X     0.00000 -0.00002 -0.00002
    H46      Y    -0.00001  0.00003 -0.00002
    H46      Z     0.00000 -0.00008  0.00005
    H47      X     0.00011 -0.00006 -0.00003
    H47      Y    -0.00000  0.00003  0.00001
    H47      Z    -0.00005  0.00003  0.00002
    H48      X     0.00001 -0.00001  0.00001
    H48      Y    -0.00003  0.00009 -0.00001
    H48      Z     0.00008 -0.00017  0.00002
    H49      X     0.00006 -0.00002 -0.00003
    H49      Y    -0.00015  0.00004  0.00008
    H49      Z    -0.00001  0.00000  0.00000
    H50      X    -0.00000 -0.00000 -0.00000
    H50      Y    -0.00001  0.00001 -0.00001
    H50      Z     0.00005 -0.00004  0.00002
    H51      X    -0.00000  0.00000  0.00000
    H51      Y    -0.00006  0.00003 -0.00005
    H51      Z     0.00016 -0.00006  0.00006
    H52      X     0.00009  0.00002  0.00014
    H52      Y     0.00012  0.00005  0.00016
    H52      Z     0.00011  0.00002  0.00015
    H53      X     0.00136  0.00002  0.00018
    H53      Y     0.00107  0.00001  0.00012
    H53      Z    -0.00096 -0.00002 -0.00016
    H54      X     0.00034 -0.00000  0.00004
    H54      Y    -0.00020  0.00000  0.00000
    H54      Z    -0.00144  0.00002 -0.00010
    H55      X    -0.00123  0.00001 -0.00018
    H55      Y    -0.00191  0.00002 -0.00028
    H55      Z    -0.00138  0.00001 -0.00022
    H56      X    -0.00133 -0.00001  0.00028
    H56      Y    -0.00096 -0.00001  0.00026
    H56      Z     0.00094  0.00001 -0.00011
    H57      X     0.25221 -0.00027 -0.00013
    H57      Y    -0.52626  0.00057 -0.00010
    H57      Z     0.63695 -0.00070  0.00006
    H58      X    -0.08089  0.00025  0.00796
    H58      Y     0.02378 -0.00005 -0.00059
    H58      Z     0.19834 -0.00058 -0.01667
    H59      X    -0.21959  0.00058 -0.00469
    H59      Y     0.24639 -0.00063  0.00448
    H59      Z     0.06843 -0.00017  0.00134
    H60      X     0.00005 -0.00001  0.00000
    H60      Y    -0.00209  0.00003  0.00004
    H60      Z     0.00558 -0.00007  0.00008
    H61      X     0.00168 -0.00001  0.00044
    H61      Y     0.00197 -0.00001  0.00080
    H61      Z     0.00260 -0.00000  0.00076
    H62      X    -0.00518  0.00008  0.00027
    H62      Y    -0.00227  0.00003  0.00014
    H62      Z     0.00240 -0.00003 -0.00003
    H63      X     0.00518 -0.00005 -0.00010
    H63      Y     0.00760 -0.00007 -0.00015
    H63      Z     0.00788 -0.00007 -0.00005
    H64      X    -0.01032  0.00006  0.00042
    H64      Y     0.00894 -0.00005 -0.00037
    H64      Z     0.00970 -0.00005 -0.00028
    H65      X    -0.01316  0.00003  0.00005
    H65      Y    -0.00823  0.00003  0.00004
    H65      Z     0.00773 -0.00002  0.00003
  
  Number of imaginary frequencies:   3
   
  Writing vibrational animation data to ox_add_TS_L1_PL145.vib
  Writing IR vibrational spectrum data to ox_add_TS_L1_PL145_vib.spm
  rotational symmetry number:  1

  rotational temperatures (K):      0.004243      0.003806      0.003553
   
  The Quasi-Harmonic approximation will be applied to compute
  vibrational constributions to thermodynamic properties.
  Frequencies will be adjusted to a minimum value of  100.00 cm^-1.

    3 vibrational frequencies below   0.0 cm-1 not included in zero-point
  energy or thermochemical analysis.  Set freqcut to change the frequency
  cutoff value.

  vibrational temperatures:
       mode:      4        5        6        7        8        9
  temp. (K):   143.88   143.88   143.88   143.88   143.88   143.88
   
       mode:     10       11       12       13       14       15
  temp. (K):   143.88   143.88   143.88   143.88   143.88   143.88
   
       mode:     16       17       18       19       20       21
  temp. (K):   143.88   143.88   148.16   163.61   189.62   218.41
   
       mode:     22       23       24       25       26       27
  temp. (K):   227.72   246.74   261.34   264.33   285.72   288.50
   
       mode:     28       29       30       31       32       33
  temp. (K):   303.23   306.23   323.94   336.03   359.04   384.15
   
       mode:     34       35       36       37       38       39
  temp. (K):   389.46   401.42   416.29   444.01   457.82   477.50
   
       mode:     40       41       42       43       44       45
  temp. (K):   479.46   485.95   487.50   540.87   550.61   569.50
   
       mode:     46       47       48       49       50       51
  temp. (K):   590.51   623.14   624.94   637.97   642.64   661.05
   
       mode:     52       53       54       55       56       57
  temp. (K):   684.19   691.16   698.58   719.25   740.87   761.35
   
       mode:     58       59       60       61       62       63
  temp. (K):   767.97   791.58   794.35   825.48   873.38   891.22
   
       mode:     64       65       66       67       68       69
  temp. (K):   897.54   915.35   983.60   986.92  1039.23  1048.91
   
       mode:     70       71       72       73       74       75
  temp. (K):  1071.80  1092.97  1108.69  1132.01  1134.68  1151.16
   
       mode:     76       77       78       79       80       81
  temp. (K):  1153.20  1163.30  1165.45  1177.72  1183.58  1198.48
   
       mode:     82       83       84       85       86       87
  temp. (K):  1211.61  1227.75  1260.16  1264.63  1297.84  1307.90
   
       mode:     88       89       90       91       92       93
  temp. (K):  1313.78  1325.27  1326.73  1337.56  1357.30  1359.34
   
       mode:     94       95       96       97       98       99
  temp. (K):  1361.26  1365.02  1399.04  1417.31  1431.46  1458.62
   
       mode:    100      101      102      103      104      105
  temp. (K):  1473.19  1474.36  1481.00  1482.96  1524.54  1531.89
   
       mode:    106      107      108      109      110      111
  temp. (K):  1534.49  1542.64  1556.86  1575.04  1592.51  1599.85
   
       mode:    112      113      114      115      116      117
  temp. (K):  1601.41  1602.22  1610.58  1614.14  1634.29  1640.76
   
       mode:    118      119      120      121      122      123
  temp. (K):  1662.25  1675.90  1684.82  1702.02  1704.85  1704.94
   
       mode:    124      125      126      127      128      129
  temp. (K):  1740.11  1742.28  1749.60  1757.05  1760.05  1762.69
   
       mode:    130      131      132      133      134      135
  temp. (K):  1774.78  1802.93  1837.81  1847.19  1867.79  1870.64
   
       mode:    136      137      138      139      140      141
  temp. (K):  1876.99  1882.86  1884.33  1890.13  1893.61  1897.12
   
       mode:    142      143      144      145      146      147
  temp. (K):  1899.61  1930.39  1935.79  1944.18  1947.77  1962.84
   
       mode:    148      149      150      151      152      153
  temp. (K):  1972.22  1977.45  1989.64  1990.82  1998.37  2006.77
   
       mode:    154      155      156      157      158      159
  temp. (K):  2010.67  2018.28  2019.89  2022.33  2025.33  2052.28
   
       mode:    160      161      162      163      164      165
  temp. (K):  2124.57  2135.49  2154.89  2161.27  2166.44  2168.36
   
       mode:    166      167      168      169      170      171
  temp. (K):  2172.20  2173.34  2175.48  2177.52  2181.04  2183.21
   
       mode:    172      173      174      175      176      177
  temp. (K):  2187.87  2190.19  2191.16  2198.05  2199.96  2204.46
   
       mode:    178      179      180      181      182      183
  temp. (K):  2204.94  2208.72  2229.53  2330.98  2344.97  2359.41
   
       mode:    184      185      186      187      188      189
  temp. (K):  2380.79  2385.36  2392.09  4336.13  4344.26  4347.99
   
       mode:    190      191      192      193      194      195
  temp. (K):  4351.60  4353.19  4355.93  4356.64  4357.85  4361.06
   
       mode:    196      197      198      199      200      201
  temp. (K):  4363.49  4365.45  4373.38  4373.69  4396.25  4425.22
   
       mode:    202      203      204      205      206      207
  temp. (K):  4427.69  4429.24  4431.47  4439.36  4443.62  4456.82
   
       mode:    208      209      210      211      212      213
  temp. (K):  4459.00  4490.13  4492.25  4501.61  4516.35  4553.33
   
       mode:    214      215      216      217      218      219
  temp. (K):  4556.79  4576.98  4586.66  4594.05  4608.91  4620.49
   
       mode:    220      221      222      223      224      225
  temp. (K):  4628.97  4631.09  4649.78  4656.88  4664.91  4695.46
   
   
  Thermodynamic properties calculated assuming an ideal gas

  In the table below, the units for temperature
  are kelvins, the units for U, H, and G are
  kcal/mol and the units for Cv and S are cal/(mol K)

  The zero point energy (ZPE):    407.352 kcal/mol
  is not included in U, H, or G in the table below
  
 
  =============================================================================
  Thermodynamic properties for P = 1.00E+00 atm, calculated at   1 temperatures


  T =   298.15 K, P = 1.00E+00 atm
   
                  U         Cv          S          H          G        ln(Q)
              =========  =========  =========  =========  =========  =========
  trans.          0.889      2.981     45.476      1.481    -12.077   20.38435
  rot.            0.889      2.981     37.669      0.889    -10.342   17.45566
  vib.           20.083    133.654    122.410     20.083    -16.414   27.70343
  elec.           0.000      0.000      0.000      0.000      0.000    0.00000
  ----------------------------------------------------------------------------
  total          21.860    139.616    205.555     22.453    -38.834   65.54344
   
   Total internal energy, Utot(SCFE + ZPE + U):   -1973.376849 hartrees
   Total enthalpy, Htot (Utot + nRT), with n=1:   -1973.375905 hartrees
    Total Gibbs free energy, Gtot (Htot - T*S):   -1973.473571 hartrees
   
FATAL MAE_GET_COORDS(): TOO MANY ATOMS IN CT BLOCK
  end of program freq
   
 Time(freq)  user:        0.2  user+sys:        0.2  wallclock:        0.4
  
  start of program post
  
  Writing input files for PBF
FATAL MAE_GET_COORDS(): TOO MANY ATOMS IN CT BLOCK
  end of program post
   
 Time(post)  user:        0.1  user+sys:        0.1  wallclock:        0.1

 Total cpu seconds     user:   45539.388   user+sys:   45539.388
  
 Total elapsed time:    46107 seconds

Job ox_add_TS_L1_PL145 completed on bp1-compute094.data.bp.acrc.priv at Fri Mar 22 23:46:13 2024
