Job PL145 started on bp1-compute031.data.bp.acrc.priv at Thu Mar 14 21:02:21 2024
jobid: bp1-compute031-0-65f365da

  +--------------------------------------------------------------------+
  |  Jaguar version 11.4, release 135                                  |
  |                                                                    |
  |  Copyright Schrodinger, Inc.                                       |
  |  All Rights Reserved.                                              |
  |                                                                    |
  |  The following have contributed to Jaguar (listed alphabetically): |
  |  Mike Beachy, Art Bochevarov, Dale Braden, Yixiang Cao,            |
  |  Alan Chien, Chris Cortis, Rich Friesner, Bill Goddard,            |
  |  Hod Greeley, Tom Hughes, Leif Jacobson, Jean-Marc Langlois,       |
  |  Daniel Levine, Daniel Mainz, Rob Murphy, Dean Philipp,            |
  |  Tom Pollard, Murco Ringnalda, Mark Watson, Haoyu Yu.              |
  |                                                                    |
  |  Use of this program should be acknowledged in publications as:    |
  |                                                                    |
  |  Jaguar, version 11.4, Schrodinger, Inc., New York, NY, 2021.      |
  |                                                                    |
  |  A. D. Bochevarov, E. Harder, T. F. Hughes, J. R. Greenwood,       |
  |  D. A. Braden, D. M. Philipp, D. Rinaldo, M. D. Halls,             |
  |  J. Zhang, R. A. Friesner, "Jaguar: A High-Performance Quantum     |
  |  Chemistry Software Program with Strengths in Life and Materials   |
  |  Sciences", Int. J. Quantum Chem., 2013, 113(18), 2110-2142.       |
  +--------------------------------------------------------------------+
  
  start of program pre
  
  Job name: PL145
  Executables used: /sw/apps/schrodinger2021-4/jaguar-v11.4/bin/Linux-x86_64
  Temporary files : /tmp/ar21627/PL145
  Maestro file (input):  PL145.mae
  Maestro file (output): PL145.01.mae
  
 Contents of input file: &gen section only
 ----------------Contents start----------------
&gen
dftname=b3pw91-d3
basis=6-31G*
numd=5
ip11=2
iaccg=3
isolv=2
igeopt=1
solvent=benzene
ifreq=1
&
 -----------------Contents end-----------------
 
  basis set:             6-31g*                          
  net molecular charge:    0
  multiplicity:            1
  
  number of basis functions....          480
  
 Input geometry:
                                   angstroms
  atom               x                 y                 z
  P1           -1.1056228896      0.9050475425      0.0335194851 
  C2           -2.1371977671      0.7280896844      1.6287404592 
  C3           -2.3740204532      0.5092908799     -1.3254538136 
  C4           -0.0615902744     -0.6516919446      0.0497224308 
  C5           -1.2424093055      1.0491914882      2.8508503477 
  C6           -2.0566798254      1.0735637855      4.1622881799 
  C7           -2.8275487372     -0.2435599803      4.3749320155 
  C8           -3.7252302361     -0.5585561771      3.1629606570 
  C9           -2.9112573627     -0.5885916059      1.8492807324 
  C10          -3.4664110237      1.6060635112     -1.3699355349 
  C11          -4.4628024055      1.3716673884     -2.5263102319 
  C12          -3.7429837312      1.2603953236     -3.8838931455 
  C13          -2.6524216288      0.1730888871     -3.8476993981 
  C14          -1.6568043594      0.4147188760     -2.6944574736 
  C15          -0.5826091828     -1.9222763561     -0.2874557880 
  C16           0.2158684371     -3.0750057253     -0.2887091106 
  C17           1.5711735172     -2.9808701701      0.0561591155 
  C18           2.1090396100     -1.7317088199      0.3880251388 
  C19           1.3201301314     -0.5611390580      0.3836952711 
  C20           2.0010478457      0.7306876369      0.7240780892 
  C21           2.4783540205      0.9721634622      2.0357179432 
  C22           3.1682318729      2.1578010584      2.3584815930 
  C23           3.3901234225      3.1086275316      1.3551898695 
  C24           2.9510154914      2.9003301179      0.0419196110 
  C25           2.2649397030      1.7085438208     -0.2698214866 
  O26           1.8227169780      1.3958938666     -1.5304453800 
  C27           2.0130682880      2.3684052214     -2.5563507481 
  O28           2.2122937718     -0.0215432664      2.9511209509 
  C29           2.6916313346      0.1626520636      4.2818055281 
  H30          -2.8764584485      1.5539323342      1.5377873199 
  H31          -0.4429430817      0.2856136849      2.9283901045 
  H32          -0.7331384894      2.0196104865      2.6982996617 
  H33          -2.7785928204      1.9162849118      4.1290547375 
  H34          -1.3854553233      1.2709222925      5.0208297291 
  H35          -2.1019429034     -1.0714684611      4.5142231941 
  H36          -3.4321729003     -0.1940287936      5.3011530897 
  H37          -4.5174485249      0.2150892073      3.0853645711 
  H38          -4.2445946748     -1.5259874711      3.3071982947 
  H39          -2.1901857582     -1.4288146685      1.8888245372 
  H40          -3.5895375603     -0.7909680774      0.9977825903 
  H41          -2.8797081894     -0.4596418975     -1.1302067008 
  H42          -4.0169737133      1.6473634650     -0.4110043447 
  H43          -2.9801575368      2.5957485582     -1.4967172371 
  H44          -5.2102471485      2.1881731162     -2.5507405947 
  H45          -5.0270769094      0.4353060495     -2.3355042435 
  H46          -4.4717028098      1.0521264047     -4.6907277738 
  H47          -3.2742320078      2.2365849104     -4.1272483082 
  H48          -2.1114016289      0.1364005763     -4.8132382258 
  H49          -3.1297145849     -0.8204532262     -3.7184681934 
  H50          -0.8939997561     -0.3848630589     -2.6712279785 
  H51          -1.1101436771      1.3636519028     -2.8735594714 
  H52          -1.6396007624     -2.0187517475     -0.5577934196 
  H53          -0.2230278557     -4.0435673397     -0.5574363863 
  H54           2.2083449804     -3.8728926827      0.0600261882 
  H55           3.1695623906     -1.6463717330      0.6497157045 
  H56           3.5266922268      2.3437745426      3.3738971910 
  H57           3.9230500473      4.0341600495      1.6018616817 
  H58           3.1458542596      3.6565054076     -0.7226992066 
  H59           1.5717016996      1.9304462034     -3.4644744306 
  H60           3.0880069413      2.5708832346     -2.7332491456 
  H61           1.4962699340      3.3178600305     -2.3166663464 
  H62           2.3873484814     -0.7399741156      4.8335618730 
  H63           2.2410016384      1.0542515434      4.7602827204 
  H64           3.7953302248      0.2553578240      4.3091026820 
   
  principal moments of inertia:
        amu*angstrom^2:     2755.87501     3729.24702     4745.93355
                g*cm^2: 4.57623754E-37 6.19255959E-37 7.88080708E-37
   
  rotational constants:
               cm^(-1):      0.00611698      0.00452038      0.00355202
                   GHz:      0.18338241      0.13551771      0.10648674
   
  Molecular weight:     410.24 amu
   
  Stoichiometry: C26PH35O2
  Molecular Point Group: C1      
  Point Group used: C1
  
 
Number of optimization coordinates:   218
Number of independent coordinates:    218
Number of non-redundant coordinates:  186
Number of frozen coordinates:           0
Number of harmonic constraints:         0
 
Number of geometric degrees of freedom:   186
Maximum geometric degrees of freedom:     186
 " " " " " excluding dummy atoms:         186
 
 
  bond lengths (angstroms):
 
 P1      -C2      :   1.907928      P1      -C3      :   1.900596
 P1      -C4      :   1.874488      C2      -C5      :   1.548323
 C2      -C9      :   1.543197      C2      -H30     :   1.112113
 C3      -C10     :   1.548614      C3      -C14     :   1.548391
 C3      -H41     :   1.110258      C4      -C15     :   1.414049
 C4      -C19     :   1.424391      C5      -C6      :   1.543859
 C5      -H31     :   1.108246      C5      -H32     :   1.106500
 C6      -C7      :   1.540867      C6      -H33     :   1.110154
 C6      -H34     :   1.107514      C7      -C8      :   1.540756
 C7      -H35     :   1.109657      C7      -H36     :   1.107208
 C8      -C9      :   1.545707      C8      -H37     :   1.110026
 C8      -H38     :   1.107460      C9      -H39     :   1.107918
 C9      -H40     :   1.107280      C10     -C11     :   1.544325
 C10     -H42     :   1.106514      C10     -H43     :   1.109952
 C11     -C12     :   1.540634      C11     -H44     :   1.107227
 C11     -H45     :   1.109768      C12     -C13     :   1.540413
 C12     -H46     :   1.106973      C12     -H47     :   1.109908
 C13     -C14     :   1.542597      C13     -H48     :   1.107391
 C13     -H49     :   1.109791      C14     -H50     :   1.105324
 C14     -H51     :   1.109680      C15     -C16     :   1.402267
 C15     -H52     :   1.095272      C16     -C17     :   1.401659
 C16     -H53     :   1.096793      C17     -C18     :   1.399943
 C17     -H54     :   1.096224      C18     -C19     :   1.411606
 C18     -H55     :   1.095661      C19     -C20     :   1.499442
 C20     -C21     :   1.416521      C20     -C25     :   1.419041
 C21     -C22     :   1.409200      C21     -O28     :   1.377027
 C22     -C23     :   1.399965      C22     -H56     :   1.092771
 C23     -C24     :   1.400315      C23     -H57     :   1.096115
 C24     -C25     :   1.410049      C24     -H58     :   1.092888
 C25     -O26     :   1.372036      O26     -C27     :   1.426357
 C27     -H59     :   1.100591      C27     -H60     :   1.108054
 C27     -H61     :   1.107246      O28     -C29     :   1.426329
 C29     -H62     :   1.100798      C29     -H63     :   1.107681
 C29     -H64     :   1.107922
 
  bond angles:
 
 C3      -P1      -C2      : 102.573324  C4      -P1      -C2      : 102.526275
 C4      -P1      -C3      : 101.826802  C5      -C2      -P1      : 109.162437
 C9      -C2      -P1      : 118.022897  C9      -C2      -C5      : 110.733395
 H30     -C2      -P1      : 102.835570  H30     -C2      -C5      : 107.139902
 H30     -C2      -C9      : 108.170716  C10     -C3      -P1      : 110.110156
 C14     -C3      -P1      : 109.619907  C14     -C3      -C10     : 110.157531
 H41     -C3      -P1      : 111.096840  H41     -C3      -C10     : 107.568272
 H41     -C3      -C14     : 108.249424  C15     -C4      -P1      : 122.612050
 C19     -C4      -P1      : 119.308677  C19     -C4      -C15     : 118.063677
 C6      -C5      -C2      : 111.651183  H31     -C5      -C2      : 109.221888
 H31     -C5      -C6      : 109.385223  H32     -C5      -C2      : 109.818729
 H32     -C5      -C6      : 110.243889  H32     -C5      -H31     : 106.373035
 C7      -C6      -C5      : 111.567343  H33     -C6      -C5      : 109.240237
 H33     -C6      -C7      : 109.128211  H34     -C6      -C5      : 109.977692
 H34     -C6      -C7      : 110.398533  H34     -C6      -H33     : 106.382416
 C8      -C7      -C6      : 110.957716  H35     -C7      -C6      : 109.144056
 H35     -C7      -C8      : 109.098012  H36     -C7      -C6      : 110.511748
 H36     -C7      -C8      : 110.427007  H36     -C7      -H35     : 106.585841
 C9      -C8      -C7      : 111.450145  H37     -C8      -C7      : 109.166469
 H37     -C8      -C9      : 109.266613  H38     -C8      -C7      : 110.449153
 H38     -C8      -C9      : 109.918120  H38     -C8      -H37     : 106.453743
 C8      -C9      -C2      : 111.655231  H39     -C9      -C2      : 109.008475
 H39     -C9      -C8      : 109.094874  H40     -C9      -C2      : 110.689407
 H40     -C9      -C8      : 109.544478  H40     -C9      -H39     : 106.709350
 C11     -C10     -C3      : 111.662202  H42     -C10     -C3      : 110.641731
 H42     -C10     -C11     : 109.484823  H43     -C10     -C3      : 109.010767
 H43     -C10     -C11     : 109.417859  H43     -C10     -H42     : 106.480188
 C12     -C11     -C10     : 111.674583  H44     -C11     -C10     : 109.885427
 H44     -C11     -C12     : 110.439696  H45     -C11     -C10     : 109.109713
 H45     -C11     -C12     : 109.155330  H45     -C11     -H44     : 106.424812
 C13     -C12     -C11     : 111.164949  H46     -C12     -C11     : 110.382262
 H46     -C12     -C13     : 110.510462  H47     -C12     -C11     : 109.087177
 H47     -C12     -C13     : 109.084839  H47     -C12     -H46     : 106.480484
 C14     -C13     -C12     : 111.342090  H48     -C13     -C12     : 110.412661
 H48     -C13     -C14     : 109.980639  H49     -C13     -C12     : 109.279349
 H49     -C13     -C14     : 109.314486  H49     -C13     -H48     : 106.378703
 C13     -C14     -C3      : 111.814031  H50     -C14     -C3      : 110.197992
 H50     -C14     -C13     : 110.353685  H51     -C14     -C3      : 108.581741
 H51     -C14     -C13     : 109.343865  H51     -C14     -H50     : 106.380876
 C16     -C15     -C4      : 121.941320  H52     -C15     -C4      : 119.576307
 H52     -C15     -C16     : 118.482353  C17     -C16     -C15     : 119.680258
 H53     -C16     -C15     : 119.887302  H53     -C16     -C17     : 120.432368
 C18     -C17     -C16     : 119.324328  H54     -C17     -C16     : 120.546556
 H54     -C17     -C18     : 120.127630  C19     -C18     -C17     : 121.633447
 H55     -C18     -C17     : 119.867846  H55     -C18     -C19     : 118.495918
 C18     -C19     -C4      : 119.349333  C20     -C19     -C4      : 123.264611
 C20     -C19     -C18     : 117.383193  C21     -C20     -C19     : 120.669342
 C25     -C20     -C19     : 121.274351  C25     -C20     -C21     : 117.931165
 C22     -C21     -C20     : 121.363569  O28     -C21     -C20     : 115.304283
 O28     -C21     -C22     : 123.331233  C23     -C22     -C21     : 119.004668
 H56     -C22     -C21     : 121.104499  H56     -C22     -C23     : 119.890636
 C24     -C23     -C22     : 121.424698  H57     -C23     -C22     : 119.292320
 H57     -C23     -C24     : 119.282401  C25     -C24     -C23     : 119.054593
 H58     -C24     -C23     : 119.822587  H58     -C24     -C25     : 121.122547
 C24     -C25     -C20     : 121.202577  O26     -C25     -C20     : 115.249635
 O26     -C25     -C24     : 123.542641  C27     -O26     -C25     : 117.546197
 H59     -C27     -O26     : 105.583106  H60     -C27     -O26     : 111.646623
 H60     -C27     -H59     : 109.270451  H61     -C27     -O26     : 111.510265
 H61     -C27     -H59     : 109.430305  H61     -C27     -H60     : 109.308826
 C29     -O28     -C21     : 117.520603  H62     -C29     -O28     : 105.595029
 H63     -C29     -O28     : 111.729575  H63     -C29     -H62     : 109.332467
 H64     -C29     -O28     : 111.627744  H64     -C29     -H62     : 109.367662
 H64     -C29     -H63     : 109.103576
 
  torsional angles:
 
 P1      -C2      -C5      -C6      : 173.806925
 P1      -C2      -C5      -H31     : -65.088333
 P1      -C2      -C5      -H32     :  51.206113
 P1      -C2      -C9      -C8      :-178.407258
 P1      -C2      -C9      -H39     :  60.991896
 P1      -C2      -C9      -H40     : -56.083528
 P1      -C3      -C10     -C11     : 176.079544
 P1      -C3      -C10     -H42     : -61.702088
 P1      -C3      -C10     -H43     :  55.068717
 P1      -C3      -C14     -C13     :-176.793584
 P1      -C3      -C14     -H50     :  60.083432
 P1      -C3      -C14     -H51     : -56.065426
 P1      -C4      -C15     -C16     : 179.090347
 P1      -C4      -C15     -H52     :  -0.857843
 P1      -C4      -C19     -C18     :-179.606991
 P1      -C4      -C19     -C20     :  -0.239251
 C2      -P1      -C3      -C10     :  66.426447
 C2      -P1      -C3      -C14     :-172.233351
 C2      -P1      -C3      -H41     : -52.638050
 C2      -P1      -C4      -C15     :  75.917371
 C2      -P1      -C4      -C19     :-105.547914
 C2      -C5      -C6      -C7      :  55.217800
 C2      -C5      -C6      -H33     : -65.523065
 C2      -C5      -C6      -H34     : 178.070209
 C2      -C9      -C8      -C7      : -55.561039
 C2      -C9      -C8      -H37     :  65.170183
 C2      -C9      -C8      -H38     :-178.355705
 C3      -P1      -C2      -C5      :-178.946663
 C3      -P1      -C2      -C9      :  53.499246
 C3      -P1      -C2      -H30     : -65.420596
 C3      -P1      -C4      -C15     : -30.006320
 C3      -P1      -C4      -C19     : 148.528394
 C3      -C10     -C11     -C12     : -55.293099
 C3      -C10     -C11     -H44     :-178.206679
 C3      -C10     -C11     -H45     :  65.463198
 C3      -C14     -C13     -C12     :  55.843584
 C3      -C14     -C13     -H48     : 178.561641
 C3      -C14     -C13     -H49     : -64.991385
 C4      -P1      -C2      -C5      :  75.706361
 C4      -P1      -C2      -C9      : -51.847730
 C4      -P1      -C2      -H30     :-170.767571
 C4      -P1      -C3      -C10     : 172.313384
 C4      -P1      -C3      -C14     : -66.346414
 C4      -P1      -C3      -H41     :  53.248888
 C4      -C15     -C16     -C17     :   0.195320
 C4      -C15     -C16     -H53     :-179.901818
 C4      -C19     -C18     -C17     :   0.777204
 C4      -C19     -C18     -H55     :-179.831455
 C4      -C19     -C20     -C21     : 112.482826
 C4      -C19     -C20     -C25     : -71.668300
 C5      -C2      -C9      -C8      :  54.790446
 C5      -C2      -C9      -H39     : -65.810400
 C5      -C2      -C9      -H40     : 177.114176
 C5      -C6      -C7      -C8      : -55.203052
 C5      -C6      -C7      -H35     :  65.051035
 C5      -C6      -C7      -H36     :-178.045537
 C6      -C5      -C2      -C9      : -54.635889
 C6      -C5      -C2      -H30     :  63.118490
 C6      -C7      -C8      -C9      :  55.289528
 C6      -C7      -C8      -H37     : -65.500341
 C6      -C7      -C8      -H38     : 177.779447
 C7      -C6      -C5      -H31     : -65.791942
 C7      -C6      -C5      -H32     : 177.575101
 C7      -C8      -C9      -H39     :  64.989306
 C7      -C8      -C9      -H40     :-178.539248
 C8      -C7      -C6      -H33     :  65.603266
 C8      -C7      -C6      -H34     :-177.814724
 C8      -C9      -C2      -H30     : -62.332012
 C9      -C2      -C5      -H31     :  66.468852
 C9      -C2      -C5      -H32     :-177.236702
 C9      -C8      -C7      -H35     : -64.991912
 C9      -C8      -C7      -H36     : 178.180970
 C10     -C3      -C14     -C13     : -55.481919
 C10     -C3      -C14     -H50     :-178.604903
 C10     -C3      -C14     -H51     :  65.246238
 C10     -C11     -C12     -C13     :  54.715438
 C10     -C11     -C12     -H46     : 177.717501
 C10     -C11     -C12     -H47     : -65.615215
 C11     -C10     -C3      -C14     :  55.060757
 C11     -C10     -C3      -H41     : -62.722651
 C11     -C12     -C13     -C14     : -54.860827
 C11     -C12     -C13     -H48     :-177.330320
 C11     -C12     -C13     -H49     :  65.994743
 C12     -C11     -C10     -H42     :-178.173459
 C12     -C11     -C10     -H43     :  65.480593
 C12     -C13     -C14     -H50     : 178.878264
 C12     -C13     -C14     -H51     : -64.440113
 C13     -C12     -C11     -H44     : 177.312674
 C13     -C12     -C11     -H45     : -66.014251
 C13     -C14     -C3      -H41     :  61.879940
 C14     -C3      -C10     -H42     : 177.279125
 C14     -C3      -C10     -H43     : -65.950070
 C14     -C13     -C12     -H46     :-177.789194
 C14     -C13     -C12     -H47     :  65.471209
 C15     -C4      -C19     -C18     :  -1.005699
 C15     -C4      -C19     -C20     : 178.362042
 C15     -C16     -C17     -C18     :  -0.452034
 C15     -C16     -C17     -H54     : 179.990850
 C16     -C15     -C4      -C19     :   0.538309
 C16     -C17     -C18     -C19     :  -0.035224
 C16     -C17     -C18     -H55     :-179.418371
 C17     -C16     -C15     -H52     :-179.855945
 C17     -C18     -C19     -C20     :-178.627425
 C18     -C17     -C16     -H53     : 179.645643
 C18     -C19     -C20     -C21     : -68.137824
 C18     -C19     -C20     -C25     : 107.711050
 C19     -C4      -C15     -H52     :-179.409880
 C19     -C18     -C17     -H54     : 179.523784
 C19     -C20     -C21     -C22     : 177.392723
 C19     -C20     -C21     -O28     :  -2.944105
 C19     -C20     -C25     -C24     :-177.534942
 C19     -C20     -C25     -O26     :   1.667865
 C20     -C19     -C18     -H55     :   0.763916
 C20     -C21     -C22     -C23     :  -0.398634
 C20     -C21     -C22     -H56     : 179.439663
 C20     -C21     -O28     -C29     : 178.964688
 C20     -C25     -C24     -C23     :   0.732724
 C20     -C25     -C24     -H58     :-179.457639
 C20     -C25     -O26     -C27     : 177.473262
 C21     -C20     -C25     -C24     :  -1.576007
 C21     -C20     -C25     -O26     : 177.626801
 C21     -C22     -C23     -C24     :  -0.498600
 C21     -C22     -C23     -H57     : 179.780708
 C21     -O28     -C29     -H62     :-179.187367
 C21     -O28     -C29     -H63     :  62.046719
 C21     -O28     -C29     -H64     : -60.433771
 C22     -C21     -C20     -C25     :   1.408215
 C22     -C21     -O28     -C29     :  -1.379548
 C22     -C23     -C24     -C25     :   0.333201
 C22     -C23     -C24     -H58     :-179.478960
 C23     -C22     -C21     -O28     : 179.965826
 C23     -C24     -C25     -O26     :-178.402185
 C24     -C23     -C22     -H56     : 179.661098
 C24     -C25     -O26     -C27     :  -3.344847
 C25     -C20     -C21     -O28     :-178.928613
 C25     -C24     -C23     -H57     :-179.946080
 C25     -O26     -C27     -H59     :-178.679967
 C25     -O26     -C27     -H60     :  62.680353
 C25     -O26     -C27     -H61     : -59.921203
 O26     -C25     -C24     -H58     :   1.407452
 O28     -C21     -C22     -H56     :  -0.195877
 H30     -C2      -C5      -H31     :-175.776768
 H30     -C2      -C5      -H32     : -59.482322
 H30     -C2      -C9      -H39     : 177.067142
 H30     -C2      -C9      -H40     :  59.991717
 H31     -C5      -C6      -H33     : 173.467193
 H31     -C5      -C6      -H34     :  57.060467
 H32     -C5      -C6      -H33     :  56.834235
 H32     -C5      -C6      -H34     : -59.572490
 H33     -C6      -C7      -H35     :-174.142647
 H33     -C6      -C7      -H36     : -57.239218
 H34     -C6      -C7      -H35     : -57.560637
 H34     -C6      -C7      -H36     :  59.342791
 H35     -C7      -C8      -H37     : 174.218219
 H35     -C7      -C8      -H38     :  57.498008
 H36     -C7      -C8      -H37     :  57.391101
 H36     -C7      -C8      -H38     : -59.329111
 H37     -C8      -C9      -H39     :-174.279472
 H37     -C8      -C9      -H40     : -57.808027
 H38     -C8      -C9      -H39     : -57.805360
 H38     -C8      -C9      -H40     :  58.666086
 H41     -C3      -C10     -H42     :  59.495718
 H41     -C3      -C10     -H43     : 176.266522
 H41     -C3      -C14     -H50     : -61.243044
 H41     -C3      -C14     -H51     :-177.391902
 H42     -C10     -C11     -H44     :  58.912961
 H42     -C10     -C11     -H45     : -57.417162
 H43     -C10     -C11     -H44     : -57.432987
 H43     -C10     -C11     -H45     :-173.763110
 H44     -C11     -C12     -H46     : -59.685263
 H44     -C11     -C12     -H47     :  56.982021
 H45     -C11     -C12     -H46     :  56.987812
 H45     -C11     -C12     -H47     : 173.655096
 H46     -C12     -C13     -H48     :  59.741313
 H46     -C12     -C13     -H49     : -56.933624
 H47     -C12     -C13     -H48     : -56.998284
 H47     -C12     -C13     -H49     :-173.673221
 H48     -C13     -C14     -H50     : -58.403679
 H48     -C13     -C14     -H51     :  58.277944
 H49     -C13     -C14     -H50     :  58.043295
 H49     -C13     -C14     -H51     : 174.724918
 H52     -C15     -C16     -H53     :   0.046917
 H53     -C16     -C17     -H54     :   0.088526
 H54     -C17     -C18     -H55     :   0.140637
 H56     -C22     -C23     -H57     :  -0.059594
 H57     -C23     -C24     -H58     :   0.241759
 
  nuclear repulsion energy.......    3142.869622646 hartrees
 
 Non-default options chosen:
   SCF calculation type: DFT(b3pw91-d3)              
   DFT=Becke_3_Parameter/HF+Slater+Becke88+PW91+PW-GGAIIC (B3PW91-D3)
   Geometry will be optimized in redundant internal coordinates
   Solvation energy will be computed using PBF
     -solute cavity energy will not be included
     -surface area terms will not be included
   Vibrational frequencies and related properties will be computed
      from analytic second derivatives
   IR intensities will be computed
   Thermochemical properties will be computed
   Scaling standard convergence criteria by a factor of   5.00
   Solvent: benzene                                                         
   Internal dielectric constant:    1.000
   Continuum dielectric constant:   2.283
   Solvent probe molecule radius:   2.600
  
 Non-default print settings:
     11=  2
  
 Temporary integer options set:
     73=  2
  
  atom       vdw   vdw2    cov     mass  grid  daf  charge   basis
  P1        2.147  2.074  1.060   30.974    Y    Y      Y    6-31g*
  C2        1.949  1.900  0.770   12.000    Y    Y      Y    6-31g*
  C3        1.949  1.900  0.770   12.000    Y    Y      Y    6-31g*
  C4        1.949  1.900  0.770   12.000    Y    Y      Y    6-31g*
  C5        1.949  1.900  0.770   12.000    Y    Y      Y    6-31g*
  C6        1.949  1.900  0.770   12.000    Y    Y      Y    6-31g*
  C7        1.949  1.900  0.770   12.000    Y    Y      Y    6-31g*
  C8        1.949  1.900  0.770   12.000    Y    Y      Y    6-31g*
  C9        1.949  1.900  0.770   12.000    Y    Y      Y    6-31g*
  C10       1.949  1.900  0.770   12.000    Y    Y      Y    6-31g*
  C11       1.949  1.900  0.770   12.000    Y    Y      Y    6-31g*
  C12       1.949  1.900  0.770   12.000    Y    Y      Y    6-31g*
  C13       1.949  1.900  0.770   12.000    Y    Y      Y    6-31g*
  C14       1.949  1.900  0.770   12.000    Y    Y      Y    6-31g*
  C15       1.949  1.900  0.770   12.000    Y    Y      Y    6-31g*
  C16       1.949  1.900  0.770   12.000    Y    Y      Y    6-31g*
  C17       1.949  1.900  0.770   12.000    Y    Y      Y    6-31g*
  C18       1.949  1.900  0.770   12.000    Y    Y      Y    6-31g*
  C19       1.949  1.900  0.770   12.000    Y    Y      Y    6-31g*
  C20       1.949  1.900  0.770   12.000    Y    Y      Y    6-31g*
  C21       1.949  1.900  0.770   12.000    Y    Y      Y    6-31g*
  C22       1.949  1.900  0.770   12.000    Y    Y      Y    6-31g*
  C23       1.949  1.900  0.770   12.000    Y    Y      Y    6-31g*
  C24       1.949  1.900  0.770   12.000    Y    Y      Y    6-31g*
  C25       1.949  1.900  0.770   12.000    Y    Y      Y    6-31g*
  O26       1.702  1.600  0.730   15.995    Y    Y      Y    6-31g*
  C27       1.949  1.900  0.770   12.000    Y    Y      Y    6-31g*
  O28       1.702  1.600  0.730   15.995    Y    Y      Y    6-31g*
  C29       1.949  1.900  0.770   12.000    Y    Y      Y    6-31g*
  H30       1.597  1.150  0.320    1.008    Y    Y      Y    6-31g*
  H31       1.597  1.150  0.320    1.008    Y    Y      Y    6-31g*
  H32       1.597  1.150  0.320    1.008    Y    Y      Y    6-31g*
  H33       1.597  1.150  0.320    1.008    Y    Y      Y    6-31g*
  H34       1.597  1.150  0.320    1.008    Y    Y      Y    6-31g*
  H35       1.597  1.150  0.320    1.008    Y    Y      Y    6-31g*
  H36       1.597  1.150  0.320    1.008    Y    Y      Y    6-31g*
  H37       1.597  1.150  0.320    1.008    Y    Y      Y    6-31g*
  H38       1.597  1.150  0.320    1.008    Y    Y      Y    6-31g*
  H39       1.597  1.150  0.320    1.008    Y    Y      Y    6-31g*
  H40       1.597  1.150  0.320    1.008    Y    Y      Y    6-31g*
  H41       1.597  1.150  0.320    1.008    Y    Y      Y    6-31g*
  H42       1.597  1.150  0.320    1.008    Y    Y      Y    6-31g*
  H43       1.597  1.150  0.320    1.008    Y    Y      Y    6-31g*
  H44       1.597  1.150  0.320    1.008    Y    Y      Y    6-31g*
  H45       1.597  1.150  0.320    1.008    Y    Y      Y    6-31g*
  H46       1.597  1.150  0.320    1.008    Y    Y      Y    6-31g*
  H47       1.597  1.150  0.320    1.008    Y    Y      Y    6-31g*
  H48       1.597  1.150  0.320    1.008    Y    Y      Y    6-31g*
  H49       1.597  1.150  0.320    1.008    Y    Y      Y    6-31g*
  H50       1.597  1.150  0.320    1.008    Y    Y      Y    6-31g*
  H51       1.597  1.150  0.320    1.008    Y    Y      Y    6-31g*
  H52       1.597  1.150  0.320    1.008    Y    Y      Y    6-31g*
  H53       1.597  1.150  0.320    1.008    Y    Y      Y    6-31g*
  H54       1.597  1.150  0.320    1.008    Y    Y      Y    6-31g*
  H55       1.597  1.150  0.320    1.008    Y    Y      Y    6-31g*
  H56       1.597  1.150  0.320    1.008    Y    Y      Y    6-31g*
  H57       1.597  1.150  0.320    1.008    Y    Y      Y    6-31g*
  H58       1.597  1.150  0.320    1.008    Y    Y      Y    6-31g*
  H59       1.597  1.150  0.320    1.008    Y    Y      Y    6-31g*
  H60       1.597  1.150  0.320    1.008    Y    Y      Y    6-31g*
  H61       1.597  1.150  0.320    1.008    Y    Y      Y    6-31g*
  H62       1.597  1.150  0.320    1.008    Y    Y      Y    6-31g*
  H63       1.597  1.150  0.320    1.008    Y    Y      Y    6-31g*
  H64       1.597  1.150  0.320    1.008    Y    Y      Y    6-31g*
  
  end of program pre
   
 Time(pre)  user:        2.4  user+sys:        2.4  wallclock:        2.6
  
  start of program onee
  
  smallest eigenvalue of S:    4.229E-04
  number of canonical orbitals.....          478
  end of program onee
   
 Time(onee)  user:        0.3  user+sys:        0.3  wallclock:        0.3
  
  start of program hfig
  
  initial wavefunction generated automatically from atomic wavefunctions
 
  Irreducible     Total no   No of occupied orbitals 
  representation  orbitals   Shell_1  Shell_2    ...
  No Symm          478        111
  ------------------------
  Orbital occupation/shell    1.000
 
  end of program hfig
   
 Time(hfig)  user:        0.4  user+sys:        0.4  wallclock:        0.4
  
  start of program probe
  
  end of program probe
   
 Time(probe)  user:        0.2  user+sys:        0.2  wallclock:        0.2
  
  start of program grid
  
   grid     grid set  grid #  grid sym
  ------    --------  ------  --------
  coarse        0        0        1
  medium        2        1        1
  fine          0        0        1
  ultrafine     4        2        1
  charge       -1        3        1
  gradient      4        2        1
  density       0        0        1
  DFT-fine    -11        4        1
  DFT-med.    -10        5        1
  DFT-grad    -12        6        1
  DFT-der2     -8        7        1
  DFT-cphf     -9        8        1
  LMP2-enrg     4        2        1
  LMP2-grad     2        1        1
  DFT-cphf2   -15        9        1
  PBF-dens      0        0        1
  plotting      0        0        1
  Rel-grad    -17        0        1
  
  number of gridpoints: 
     atom        P1       C2       C3       C4       C5       C6       C7
  grid # 1      554       91       93      100       86       86       86
  grid # 2      554      323      320      367      299      299      300
  grid # 3       41        6        6       13        6        6        6
  grid # 4     4304     4304     4304     4304     4304     4304     4304
  grid # 5     1192     1192     1192     1192     1192     1192     1192
  grid # 6     8076     5226     5226     5226     5226     5226     5226
  grid # 7    22092    12650    12650    12650    12650    12650    12650
  grid # 8      634      688      688      688      688      688      688
  grid # 9      340      358      358      358      358      358      358
   
  number of gridpoints: 
     atom        C8       C9      C10      C11      C12      C13      C14
  grid # 1       86       86       86       86       86       86       86
  grid # 2      299      296      298      299      296      299      297
  grid # 3        6        6        6        6        6        6        6
  grid # 4     4304     4304     4304     4304     4304     4304     4304
  grid # 5     1192     1192     1192     1192     1192     1192     1192
  grid # 6     5226     5226     5226     5226     5226     5226     5226
  grid # 7    12650    12650    12650    12650    12650    12650    12650
  grid # 8      688      688      688      688      688      688      688
  grid # 9      358      358      358      358      358      358      358
   
  number of gridpoints: 
     atom       C15      C16      C17      C18      C19      C20      C21
  grid # 1       95       96       97       96      100      100       96
  grid # 2      336      342      340      338      359      359      351
  grid # 3       17       37       51       33       16       15       20
  grid # 4     4304     4304     4304     4304     4304     4304     4304
  grid # 5     1192     1192     1192     1192     1192     1192     1192
  grid # 6     5226     5226     5226     5226     5226     5226     5226
  grid # 7    12650    12650    12650    12650    12650    12650    12650
  grid # 8      688      688      688      688      688      688      688
  grid # 9      358      358      358      358      358      358      358
   
  number of gridpoints: 
     atom       C22      C23      C24      C25      O26      C27      O28
  grid # 1       96       97       97       97      114       77      114
  grid # 2      336      345      336      352      436      268      433
  grid # 3       41       46       45       32       68        6       45
  grid # 4     4304     4304     4304     4304     4304     4304     4304
  grid # 5     1192     1192     1192     1192     1192     1192     1192
  grid # 6     5226     5226     5226     5226     5226     5226     5226
  grid # 7    12650    12650    12650    12650    23504    12650    23504
  grid # 8      688      688      688      688      714      688      714
  grid # 9      358      358      358      358      360      358      360
   
  number of gridpoints: 
     atom       C29      H30      H31      H32      H33      H34      H35
  grid # 1       75      103      102      109      108      111      108
  grid # 2      266      418      416      427      438      436      437
  grid # 3        6      131       99      233      265      286      259
  grid # 4     4304     4304     4304     4304     4304     4304     4304
  grid # 5     1192     1192     1192     1192     1192     1192     1192
  grid # 6     5226     5226     5226     5226     5226     5226     5226
  grid # 7    12650    13718    13718    13718    13718    13718    13718
  grid # 8      688      744      744      744      744      744      744
  grid # 9      358      382      382      382      382      382      382
   
  number of gridpoints: 
     atom       H36      H37      H38      H39      H40      H41      H42
  grid # 1      112      108      112      104      105       99      105
  grid # 2      440      437      441      426      419      402      420
  grid # 3      331      260      327      153      161       67      168
  grid # 4     4304     4304     4304     4304     4304     4304     4304
  grid # 5     1192     1192     1192     1192     1192     1192     1192
  grid # 6     5226     5226     5226     5226     5226     5226     5226
  grid # 7    13718    13718    13718    13718    13718    13718    13718
  grid # 8      744      744      744      744      744      744      744
  grid # 9      382      382      382      382      382      382      382
   
  number of gridpoints: 
     atom       H43      H44      H45      H46      H47      H48      H49
  grid # 1      108      111      108      112      108      112      108
  grid # 2      431      440      437      440      438      440      437
  grid # 3      232      327      262      331      267      326      263
  grid # 4     4304     4304     4304     4304     4304     4304     4304
  grid # 5     1192     1192     1192     1192     1192     1192     1192
  grid # 6     5226     5226     5226     5226     5226     5226     5226
  grid # 7    13718    13718    13718    13718    13718    13718    13718
  grid # 8      744      744      744      744      744      744      744
  grid # 9      382      382      382      382      382      382      382
   
  number of gridpoints: 
     atom       H50      H51      H52      H53      H54      H55      H56
  grid # 1      107      103      106      118      118      115      111
  grid # 2      426      420      419      452      452      441      428
  grid # 3      183      119      154      417      426      332      247
  grid # 4     4304     4304     4304     4304     4304     4304     4304
  grid # 5     1192     1192     1192     1192     1192     1192     1192
  grid # 6     5226     5226     5226     5226     5226     5226     5226
  grid # 7    13718    13718    13718    13718    13718    13718    13718
  grid # 8      744      744      744      744      744      744      744
  grid # 9      382      382      382      382      382      382      382
   
  number of gridpoints: 
     atom       H57      H58      H59      H60      H61      H62      H63
  grid # 1      118      111      109      111      111      111      110
  grid # 2      451      428      438      435      432      447      431
  grid # 3      419      251      301      321      287      378      262
  grid # 4     4304     4304     4304     4304     4304     4304     4304
  grid # 5     1192     1192     1192     1192     1192     1192     1192
  grid # 6     5226     5226     5226     5226     5226     5226     5226
  grid # 7    13718    13718    13718    13718    13718    13718    13718
  grid # 8      744      744      744      744      744      744      744
  grid # 9      382      382      382      382      382      382      382
   
  number of gridpoints: 
     atom       H64    total
  grid # 1      111     6968
  grid # 2      436    24899
  grid # 3      321     9770
  grid # 4     4304   275456
  grid # 5     1192    76288
  grid # 6     5226   337314
  grid # 7    13718   878130
  grid # 8      744    45990
  grid # 9      382    23738
   
  end of program grid
   
 Time(grid)  user:       49.9  user+sys:       49.9  wallclock:       50.3
  
  start of program rwr
  
  end of program rwr
   
 Time(rwr)  user:        5.1  user+sys:        5.1  wallclock:        6.0
  
  start of program scf
  
 number of electrons..........        222
 number of alpha electrons....        111
 number of beta electrons.....        111
 number of orbitals, total....        478
 number of doubly-occ'd orbs..        111
 number of open shell orbs....          0
 number of occupied orbitals..        111
 number of virtual orbitals...        367
 number of hamiltonians.......          1
 number of shells.............          1
 SCF type: DFT=Becke_3_Parameter/HF+Slater+Becke88+PW91+PW-GGAIIC (B3PW91-D3)
 Energy computed with NOPS off.
 Convergence Criterion:
    Energy (econv):       1.00E-05
    RMS density (dconv):  5.00E-06
  
       i  u  d  i  g                   
       t  p  i  c  r                                 RMS    maximum
       e  d  i  u  i                       energy  density   DIIS  
       r  t  s  t  d       total energy    change  change    error 
  
etot    1  N  N  5  M   -1499.72773118880           3.4E-03  1.3E-01
etot    2  Y  Y  6  M   -1502.64943495877  2.9E+00  2.6E-03  5.4E-02
etot    3  Y  Y  6  M   -1502.83056942454  1.8E-01  1.3E-03  6.5E-02
etot    4  N  Y  2  U   -1503.10220582685  2.7E-01  6.9E-04  3.7E-02
etot    5  Y  Y  6  M   -1503.14303645245  4.1E-02  3.2E-04  1.9E-02
etot    6  N  Y  2  U   -1503.14564948939  2.6E-03  3.4E-04  8.7E-03
etot    7  Y  Y  6  M   -1503.14637966626  7.3E-04  8.0E-05  2.4E-03
etot    8  Y  Y  6  M   -1503.14713350598  7.5E-04  2.2E-05  7.9E-04
etot    9  N  Y  2  U   -1503.14740410934  2.7E-04  8.1E-06  2.9E-04
etot   10  N  Y  2  U   -1503.14740673541  2.6E-06  2.2E-06  5.2E-05
etot   11  N  N  2  U   -1503.14740715561  4.2E-07  0.0E+00  0.0E+00
 
  Computing the dispersion energy correction and its gradients...
  
  
 Energy components, in hartrees:
   (A)  Nuclear repulsion............    3142.86962264554
   (E)  Total one-electron terms.....   -8303.32305293375
   (F)    Electron-nuclear...........   -9797.07073468648
   (H)    Kinetic....................    1493.74768175273
   (I)  Total two-electron terms.....    3657.30602313260
   (J)    Coulomb....................    3851.51687655043
   (K)    Exchange+Correlation.......    -194.21085341784
   (L)  Electronic energy............   -4646.01702980115  (E+I)
   (M)  -V/T.........................       2.00629271296  (-(A+F+I)/H)
   (N0) D3 correction................      -0.08841087066
   (N)  Total energy.................   -1503.23581802627  (A+L+N0)
   (O)  Gas phase energy.............   -1503.23581802627
  
 SCFE: SCF energy: DFT(b3pw91-d3)     -1503.23581802627 hartrees   iterations:  11
  
 
 HOMO energy:    -0.19917
 LUMO energy:    -0.01182
 
  Orbital energies (hartrees): 
   -77.01979   -19.16284   -19.15985   -10.23081   -10.23038   -10.21957
   -10.21603   -10.18045   -10.17378   -10.17291   -10.17218   -10.16735
   -10.16706   -10.16697   -10.16661   -10.16476   -10.16411   -10.16323
   -10.16250   -10.15945   -10.15839   -10.15689   -10.15656   -10.15504
   -10.15441   -10.15371   -10.15358   -10.15346   -10.14924    -6.52263
    -4.68086    -4.68031    -4.67551    -1.06132    -1.05864    -0.85455
    -0.83625    -0.82303    -0.81666    -0.77372    -0.75217    -0.74787
    -0.73295    -0.72819    -0.72783    -0.72558    -0.72395    -0.70018
    -0.68137    -0.63054    -0.61553    -0.60125    -0.59932    -0.59172
    -0.58793    -0.57935    -0.57367    -0.54675    -0.54170    -0.53449
    -0.52347    -0.49531    -0.49356    -0.48120    -0.46945    -0.46595
    -0.46210    -0.46033    -0.45851    -0.44037    -0.43853    -0.43378
    -0.43239    -0.42760    -0.42494    -0.42219    -0.42068    -0.40989
    -0.40684    -0.39937    -0.38898    -0.38057    -0.37672    -0.37113
    -0.36922    -0.36747    -0.36597    -0.36354    -0.35153    -0.34347
    -0.34139    -0.34000    -0.33658    -0.33526    -0.33366    -0.33264
    -0.32648    -0.32004    -0.31397    -0.30823    -0.30109    -0.29701
    -0.29536    -0.28943    -0.28102    -0.26677    -0.24288    -0.23896
    -0.21915    -0.21330    -0.19917    -0.01182    -0.00408     0.01277
     0.02338     0.06982     0.07610     0.08290     0.09660     0.09775
     0.10610
 
  end of program scf
   
 Time(scf)  user:      118.7  user+sys:      118.7  wallclock:      120.9
  
  start of program der1a
  
  end of program der1a
   
 Time(der1a)  user:        0.6  user+sys:        0.6  wallclock:        0.6
  
  start of program rwr
  
  end of program rwr
   
 Time(rwr)  user:        5.9  user+sys:        5.9  wallclock:        7.7
  
  start of program der1b
  
   
  forces (hartrees/bohr) : total     
   
 atom  label           x              y              z
 ---- --------   -------------  -------------  -------------
    1 P1         -3.307488E-03  -5.424205E-03   1.145769E-03
    2 C2         -1.035216E-03   1.554995E-03  -5.048976E-04
    3 C3         -4.681106E-04  -1.363266E-03   6.413397E-04
    4 C4          3.365924E-03  -2.623950E-03   1.265445E-04
    5 C5          1.909202E-03  -7.882339E-04  -4.545647E-04
    6 C6         -3.437175E-04   9.184450E-04  -1.458210E-04
    7 C7          8.317960E-04  -8.604121E-04   9.894787E-05
    8 C8         -6.786188E-04   6.787452E-04  -4.689639E-04
    9 C9          8.267516E-04  -1.195510E-03  -8.899759E-04
   10 C10         6.121208E-04   9.918692E-04   7.549379E-04
   11 C11        -4.619125E-04  -9.217321E-04   4.674846E-04
   12 C12         3.599567E-04   1.096446E-03  -3.313679E-04
   13 C13        -1.484064E-04  -8.632316E-04   3.366134E-04
   14 C14         1.494967E-03   6.456630E-04   4.655629E-04
   15 C15         2.557491E-03   5.354405E-04   8.976907E-04
   16 C16         5.522329E-04   3.672452E-03   8.263176E-04
   17 C17        -2.235404E-03   4.156011E-03   1.290899E-04
   18 C18        -2.818042E-03   5.461484E-04  -5.433095E-04
   19 C19        -2.723735E-03  -4.469982E-03  -1.661189E-03
   20 C20         2.610614E-03   5.240113E-03   7.940512E-04
   21 C21        -1.799138E-03  -2.007419E-03  -8.169853E-05
   22 C22        -1.375716E-03  -6.268495E-04  -3.102938E-03
   23 C23        -1.892522E-03  -3.232266E-03  -1.097601E-03
   24 C24        -1.282230E-03  -3.336058E-03   2.558110E-03
   25 C25        -1.184297E-03  -2.181614E-03  -4.662049E-04
   26 O26         4.808562E-03   8.643775E-03   4.287304E-03
   27 C27        -1.164869E-03  -2.633156E-03   2.012499E-03
   28 O28         4.944964E-03   9.693625E-03   7.852042E-04
   29 C29        -1.547178E-03  -9.474861E-04  -2.778625E-03
   30 H30         3.958794E-03  -4.636141E-03   5.379389E-04
   31 H31        -3.892937E-03   3.564444E-03  -6.002367E-04
   32 H32        -2.429924E-03  -5.198568E-03   8.674896E-04
   33 H33         3.686278E-03  -4.642673E-03  -2.396511E-04
   34 H34        -3.337864E-03  -1.300426E-03  -4.698238E-03
   35 H35        -3.637373E-03   4.445220E-03  -1.176020E-03
   36 H36         3.093011E-03  -7.063331E-05  -5.056688E-03
   37 H37         4.497713E-03  -3.784391E-03   2.589999E-04
   38 H38         3.011896E-03   5.075150E-03  -7.921396E-04
   39 H39        -3.445703E-03   4.657773E-03  -1.151898E-04
   40 H40         3.691219E-03   1.389379E-03   4.476733E-03
   41 H41         2.910547E-03   5.450183E-03  -9.837945E-04
   42 H42         2.796996E-03  -6.623167E-04  -5.100673E-03
   43 H43        -2.569106E-03  -5.376088E-03   3.007877E-04
   44 H44         4.201191E-03  -4.226246E-03   9.868480E-05
   45 H45         3.376873E-03   4.712875E-03  -8.972440E-04
   46 H46         3.758953E-03   9.295135E-04   4.420454E-03
   47 H47        -2.239546E-03  -5.220987E-03   1.666744E-03
   48 H48        -2.818172E-03   4.265894E-04   5.282831E-03
   49 H49         2.441532E-03   5.328344E-03  -1.600618E-04
   50 H50        -3.938800E-03   4.101172E-03   1.579196E-04
   51 H51        -2.978087E-03  -4.962503E-03   8.886451E-04
   52 H52         5.805856E-03   8.294761E-04   1.704479E-03
   53 H53         2.384465E-03   5.563926E-03   1.534825E-03
   54 H54        -3.522965E-03   5.061984E-03  -5.598453E-06
   55 H55        -5.895306E-03  -1.270750E-04  -1.147577E-03
   56 H56        -2.110329E-03  -7.965359E-04  -6.031937E-03
   57 H57        -2.936563E-03  -5.207231E-03  -1.373146E-03
   58 H58        -1.159622E-03  -4.476695E-03   4.673661E-03
   59 H59         2.121389E-03   2.188751E-03   5.160077E-03
   60 H60        -5.770823E-03  -1.505543E-03   1.044346E-03
   61 H61         2.312768E-03  -5.372727E-03  -1.175629E-03
   62 H62         1.489965E-03   4.856715E-03  -3.163331E-03
   63 H63         1.861870E-03  -4.904128E-03  -2.793214E-03
   64 H64        -5.915915E-03  -7.931060E-04  -4.004289E-04
 -------------   -------------  -------------  -------------
     total       -7.897365E-04   2.158392E-04   9.641286E-04
   
  end of program der1b
   
 Time(der1b)  user:       51.0  user+sys:       51.0  wallclock:       51.5
  
  start of program geopt
  
 ----------------------------------------------------------------------------
  Geometry optimization step   1
  Total energy:     -1503.23581802627 hartrees
 ----------------------------------------------------------------------------
  
  gradient maximum:        1.7831E-02 .  (  2.2500E-03 )
  gradient rms:            4.8833E-03 .  (  1.5000E-03 )
  displacement maximum:    8.8514E-02 .  (  9.0000E-03 )
  displacement rms:        2.0123E-02 .  (  6.0000E-03 )
  
  predicted energy change:  -9.2490E-03
  step size:     0.29712
  trust radius:  0.30000
  
  molecular structure not yet converged...
  
  center of mass moved by:
     x:    -2.5729E-02     y:     6.4916E-03     z:    -4.2343E-03
  
  new geometry: 
                                   angstroms
  atom               x                 y                 z
  P1           -1.0354494717      0.9362741215     -0.0325096281 
  C2           -1.9734807170      0.7737456434      1.5766203693 
  C3           -2.3251999665      0.5339431785     -1.3219945087 
  C4           -0.0687250541     -0.6316285240     -0.0025241510 
  C5           -0.9820762347      0.9949921171      2.7273949027 
  C6           -1.6918556984      0.9996360089      4.0815464621 
  C7           -2.4971241576     -0.2821220901      4.2916318929 
  C8           -3.4855539120     -0.4992182791      3.1465619624 
  C9           -2.7696137850     -0.5118091460      1.7939079484 
  C10          -3.3956300388      1.6307258595     -1.3662204415 
  C11          -4.4083879645      1.3713878234     -2.4834840676 
  C12          -3.7208434512      1.2245318627     -3.8401854895 
  C13          -2.6517541415      0.1339381135     -3.7982320165 
  C14          -1.6378146066      0.3980842270     -2.6861702882 
  C15          -0.6011939281     -1.8732358493     -0.3607206463 
  C16           0.1691958226     -3.0277250976     -0.3274174907 
  C17           1.4977029833     -2.9577768916      0.0784036423 
  C18           2.0384183941     -1.7318586098      0.4362464121 
  C19           1.2719766469     -0.5676024524      0.3908259234 
  C20           1.9098626313      0.7176306213      0.7579771621 
  C21           2.2868056225      0.9800352878      2.0779962855 
  C22           2.9273253830      2.1710328966      2.4213442329 
  C23           3.1887291386      3.1009083365      1.4249521889 
  C24           2.8285171108      2.8710826438      0.1046156744 
  C25           2.1929966628      1.6738358314     -0.2215831955 
  O26           1.8053486379      1.3281529427     -1.4760721925 
  C27           1.9619278321      2.2782193230     -2.5071782056 
  O28           1.9636694540      0.0028703348      2.9706563149 
  C29           2.3019237978      0.2052317697      4.3255313909 
  H30          -2.6739589046      1.6247550513      1.5559317278 
  H31          -0.2302767695      0.1923521964      2.7128855261 
  H32          -0.4353351779      1.9347177269      2.5775130520 
  H33          -2.3698520109      1.8654501210      4.1317892143 
  H34          -0.9577998554      1.1278348187      4.8883823314 
  H35          -1.8060608903     -1.1374180364      4.3361834911 
  H36          -3.0255960054     -0.2510544322      5.2535190077 
  H37          -4.2329919574      0.3088629889      3.1547380969 
  H38          -4.0359677095     -1.4389846344      3.2874977834 
  H39          -2.0810292467     -1.3674859597      1.7586910439 
  H40          -3.5010087436     -0.6558830378      0.9877455358 
  H41          -2.8295572958     -0.4171200963     -1.0939678773 
  H42          -3.9193455385      1.6986961300     -0.4042503074 
  H43          -2.9083267266      2.6035488958     -1.5319283601 
  H44          -5.1474460927      2.1827503433     -2.5136327002 
  H45          -4.9628323086      0.4478486955     -2.2578108685 
  H46          -4.4607148171      1.0077794553     -4.6217473971 
  H47          -3.2478634600      2.1813227127     -4.1089545270 
  H48          -2.1373656985      0.0633231578     -4.7657896846 
  H49          -3.1331325149     -0.8406566099     -3.6256591134 
  H50          -0.8872600487     -0.4006378772     -2.6531914525 
  H51          -1.0932756856      1.3299201772     -2.9012136219 
  H52          -1.6393561763     -1.9444144325     -0.6717562729 
  H53          -0.2699725985     -3.9798495333     -0.6154297595 
  H54           2.1127104750     -3.8534325234      0.1102208610 
  H55           3.0762827506     -1.6611853185      0.7503783371 
  H56           3.2160400030      2.3800660900      3.4441831106 
  H57           3.6878942755      4.0308058184      1.6846099724 
  H58           3.0457552566      3.6157497875     -0.6512837686 
  H59           1.5664467303      1.7992134628     -3.4046436190 
  H60           3.0189182619      2.5323763400     -2.6658282806 
  H61           1.3903578251      3.1924998715     -2.2999882435 
  H62           1.9697607817     -0.6950615017      4.8459348438 
  H63           1.7846447746      1.0789618579      4.7445498382 
  H64           3.3859291928      0.3247590235      4.4581532518 
   
 
  bond lengths (angstroms):
 
 P1      -C2      :   1.869657      P1      -C3      :   1.867645
 P1      -C4      :   1.842220      C2      -C5      :   1.534964
 C2      -C9      :   1.527643      C2      -H30     :   1.102413
 C3      -C10     :   1.533202      C3      -C14     :   1.533601
 C3      -H41     :   1.100406      C4      -C15     :   1.397647
 C4      -C19     :   1.398680      C5      -C6      :   1.528900
 C5      -H31     :   1.099838      C5      -H32     :   1.097486
 C6      -C7      :   1.528233      C6      -H33     :   1.100835
 C6      -H34     :   1.098297      C7      -C8      :   1.528172
 C7      -H35     :   1.100493      C7      -H36     :   1.097941
 C8      -C9      :   1.530491      C8      -H37     :   1.100784
 C8      -H38     :   1.098171      C9      -H39     :   1.098896
 C9      -H40     :   1.097995      C10     -C11     :   1.530102
 C10     -H42     :   1.097399      C10     -H43     :   1.100595
 C11     -C12     :   1.528045      C11     -H44     :   1.097918
 C11     -H45     :   1.100573      C12     -C13     :   1.527778
 C12     -H46     :   1.097830      C12     -H47     :   1.100634
 C13     -C14     :   1.527916      C13     -H48     :   1.098066
 C13     -H49     :   1.100610      C14     -H50     :   1.096529
 C14     -H51     :   1.100493      C15     -C16     :   1.388328
 C15     -H52     :   1.086090      C16     -C17     :   1.390868
 C16     -H53     :   1.087364      C17     -C18     :   1.386831
 C17     -H54     :   1.086943      C18     -C19     :   1.394628
 C18     -H55     :   1.086663      C19     -C20     :   1.481055
 C20     -C21     :   1.397638      C20     -C25     :   1.397867
 C21     -C22     :   1.395216      C21     -O28     :   1.362391
 C22     -C23     :   1.387731      C22     -H56     :   1.083167
 C23     -C24     :   1.387754      C23     -H57     :   1.086875
 C24     -C25     :   1.394164      C24     -H58     :   1.083100
 C25     -O26     :   1.357759      O26     -C27     :   1.410788
 C27     -H59     :   1.091465      C27     -H60     :   1.098633
 C27     -H61     :   1.097966      O28     -C29     :   1.411047
 C29     -H62     :   1.091641      C29     -H63     :   1.098434
 C29     -H64     :   1.098610
 
  bond angles:
 
 C3      -P1      -C2      : 103.239846  C4      -P1      -C2      : 100.095258
 C4      -P1      -C3      : 100.969186  C5      -C2      -P1      : 107.978677
 C9      -C2      -P1      : 117.196217  C9      -C2      -C5      : 110.564501
 H30     -C2      -P1      : 103.623079  H30     -C2      -C5      : 108.252055
 H30     -C2      -C9      : 108.732274  C10     -C3      -P1      : 110.361976
 C14     -C3      -P1      : 108.887679  C14     -C3      -C10     : 110.526643
 H41     -C3      -P1      : 111.077484  H41     -C3      -C10     : 107.713093
 H41     -C3      -C14     : 108.251987  C15     -C4      -P1      : 123.503090
 C19     -C4      -P1      : 117.945148  C19     -C4      -C15     : 118.549877
 C6      -C5      -C2      : 111.383660  H31     -C5      -C2      : 109.051373
 H31     -C5      -C6      : 109.343803  H32     -C5      -C2      : 110.047234
 H32     -C5      -C6      : 110.464840  H32     -C5      -H31     : 106.412118
 C7      -C6      -C5      : 111.335693  H33     -C6      -C5      : 109.192089
 H33     -C6      -C7      : 109.199166  H34     -C6      -C5      : 109.921586
 H34     -C6      -C7      : 110.431510  H34     -C6      -H33     : 106.636763
 C8      -C7      -C6      : 110.913829  H35     -C7      -C6      : 109.057912
 H35     -C7      -C8      : 109.031676  H36     -C7      -C6      : 110.507382
 H36     -C7      -C8      : 110.435212  H36     -C7      -H35     : 106.784926
 C9      -C8      -C7      : 111.152021  H37     -C8      -C7      : 109.228172
 H37     -C8      -C9      : 109.282850  H38     -C8      -C7      : 110.462384
 H38     -C8      -C9      : 109.928233  H38     -C8      -H37     : 106.674249
 C8      -C9      -C2      : 111.258322  H39     -C9      -C2      : 108.914272
 H39     -C9      -C8      : 109.138364  H40     -C9      -C2      : 110.679346
 H40     -C9      -C8      : 109.778201  H40     -C9      -H39     : 106.959560
 C11     -C10     -C3      : 111.218490  H42     -C10     -C3      : 110.622548
 H42     -C10     -C11     : 109.554254  H43     -C10     -C3      : 109.118735
 H43     -C10     -C11     : 109.447050  H43     -C10     -H42     : 106.770332
 C12     -C11     -C10     : 111.517341  H44     -C11     -C10     : 109.897853
 H44     -C11     -C12     : 110.458218  H45     -C11     -C10     : 109.022920
 H45     -C11     -C12     : 109.152586  H45     -C11     -H44     : 106.657087
 C13     -C12     -C11     : 111.043990  H46     -C12     -C11     : 110.354152
 H46     -C12     -C13     : 110.500253  H47     -C12     -C11     : 109.064038
 H47     -C12     -C13     : 109.059005  H47     -C12     -H46     : 106.702531
 C14     -C13     -C12     : 111.158520  H48     -C13     -C12     : 110.457650
 H48     -C13     -C14     : 109.972829  H49     -C13     -C12     : 109.290420
 H49     -C13     -C14     : 109.220826  H49     -C13     -H48     : 106.624848
 C13     -C14     -C3      : 111.425814  H50     -C14     -C3      : 110.155645
 H50     -C14     -C13     : 110.499010  H51     -C14     -C3      : 108.698666
 H51     -C14     -C13     : 109.422147  H51     -C14     -H50     : 106.496826
 C16     -C15     -C4      : 121.411126  H52     -C15     -C4      : 119.721105
 H52     -C15     -C16     : 118.867733  C17     -C16     -C15     : 119.683174
 H53     -C16     -C15     : 119.846105  H53     -C16     -C17     : 120.470464
 C18     -C17     -C16     : 119.482246  H54     -C17     -C16     : 120.500463
 H54     -C17     -C18     : 120.016141  C19     -C18     -C17     : 121.015911
 H55     -C18     -C17     : 120.295893  H55     -C18     -C19     : 118.685971
 C18     -C19     -C4      : 119.849997  C20     -C19     -C4      : 121.485584
 C20     -C19     -C18     : 118.663647  C21     -C20     -C19     : 120.878232
 C25     -C20     -C19     : 120.472434  C25     -C20     -C21     : 118.605818
 C22     -C21     -C20     : 121.098100  O28     -C21     -C20     : 114.847089
 O28     -C21     -C22     : 124.049177  C23     -C22     -C21     : 118.801361
 H56     -C22     -C21     : 121.297815  H56     -C22     -C23     : 119.900160
 C24     -C23     -C22     : 121.550949  H57     -C23     -C22     : 119.226879
 H57     -C23     -C24     : 119.222160  C25     -C24     -C23     : 118.891172
 H58     -C24     -C23     : 119.872790  H58     -C24     -C25     : 121.235750
 C24     -C25     -C20     : 121.050951  O26     -C25     -C20     : 114.548896
 O26     -C25     -C24     : 124.399674  C27     -O26     -C25     : 118.173390
 H59     -C27     -O26     : 105.379172  H60     -C27     -O26     : 111.599343
 H60     -C27     -H59     : 109.353329  H61     -C27     -O26     : 111.412054
 H61     -C27     -H59     : 109.389224  H61     -C27     -H60     : 109.600082
 C29     -O28     -C21     : 117.996254  H62     -C29     -O28     : 105.457510
 H63     -C29     -O28     : 111.559581  H63     -C29     -H62     : 109.321022
 H64     -C29     -O28     : 111.595251  H64     -C29     -H62     : 109.415328
 H64     -C29     -H63     : 109.394565
 
  torsional angles:
 
 P1      -C2      -C5      -C6      : 175.054398
 P1      -C2      -C5      -H31     : -64.177978
 P1      -C2      -C5      -H32     :  52.194779
 P1      -C2      -C9      -C8      :-179.791841
 P1      -C2      -C9      -H39     :  59.865160
 P1      -C2      -C9      -H40     : -57.452127
 P1      -C3      -C10     -C11     : 175.985103
 P1      -C3      -C10     -H42     : -62.027810
 P1      -C3      -C10     -H43     :  55.149158
 P1      -C3      -C14     -C13     :-177.287736
 P1      -C3      -C14     -H50     :  59.703603
 P1      -C3      -C14     -H51     : -56.628410
 P1      -C4      -C15     -C16     : 179.724579
 P1      -C4      -C15     -H52     :  -0.345384
 P1      -C4      -C19     -C18     : 179.582908
 P1      -C4      -C19     -C20     :  -0.740950
 C2      -P1      -C3      -C10     :  67.925885
 C2      -P1      -C3      -C14     :-170.588821
 C2      -P1      -C3      -H41     : -51.470128
 C2      -P1      -C4      -C15     :  79.858957
 C2      -P1      -C4      -C19     :-100.648550
 C2      -C5      -C6      -C7      :  55.536001
 C2      -C5      -C6      -H33     : -65.113653
 C2      -C5      -C6      -H34     : 178.232487
 C2      -C9      -C8      -C7      : -56.408139
 C2      -C9      -C8      -H37     :  64.220670
 C2      -C9      -C8      -H38     :-179.023610
 C3      -P1      -C2      -C5      : 176.350285
 C3      -P1      -C2      -C9      :  50.763003
 C3      -P1      -C2      -H30     : -68.975821
 C3      -P1      -C4      -C15     : -25.892641
 C3      -P1      -C4      -C19     : 153.599852
 C3      -C10     -C11     -C12     : -55.594654
 C3      -C10     -C11     -H44     :-178.432658
 C3      -C10     -C11     -H45     :  65.000361
 C3      -C14     -C13     -C12     :  56.090959
 C3      -C14     -C13     -H48     : 178.735690
 C3      -C14     -C13     -H49     : -64.578825
 C4      -P1      -C2      -C5      :  72.437725
 C4      -P1      -C2      -C9      : -53.149557
 C4      -P1      -C2      -H30     :-172.888381
 C4      -P1      -C3      -C10     : 171.165597
 C4      -P1      -C3      -C14     : -67.349110
 C4      -P1      -C3      -H41     :  51.769583
 C4      -C15     -C16     -C17     :   0.437199
 C4      -C15     -C16     -H53     :-179.746384
 C4      -C19     -C18     -C17     :   0.911499
 C4      -C19     -C18     -H55     :-179.629530
 C4      -C19     -C20     -C21     : 111.200755
 C4      -C19     -C20     -C25     : -71.231954
 C5      -C2      -C9      -C8      :  55.915110
 C5      -C2      -C9      -H39     : -64.427889
 C5      -C2      -C9      -H40     : 178.254824
 C5      -C6      -C7      -C8      : -55.430741
 C5      -C6      -C7      -H35     :  64.658368
 C5      -C6      -C7      -H36     :-178.250273
 C6      -C5      -C2      -C9      : -55.529373
 C6      -C5      -C2      -H30     :  63.476676
 C6      -C7      -C8      -C9      :  55.782879
 C6      -C7      -C8      -H37     : -64.878169
 C6      -C7      -C8      -H38     : 178.089474
 C7      -C6      -C5      -H31     : -65.060013
 C7      -C6      -C5      -H32     : 178.155931
 C7      -C8      -C9      -H39     :  63.802495
 C7      -C8      -C9      -H40     :-179.267117
 C8      -C7      -C6      -H33     :  65.214755
 C8      -C7      -C6      -H34     :-177.833663
 C8      -C9      -C2      -H30     : -62.799524
 C9      -C2      -C5      -H31     :  65.238251
 C9      -C2      -C5      -H32     :-178.388992
 C9      -C8      -C7      -H35     : -64.321855
 C9      -C8      -C7      -H36     : 178.644152
 C10     -C3      -C14     -C13     : -55.902868
 C10     -C3      -C14     -H50     :-178.911529
 C10     -C3      -C14     -H51     :  64.756459
 C10     -C11     -C12     -C13     :  55.327812
 C10     -C11     -C12     -H46     : 178.213391
 C10     -C11     -C12     -H47     : -64.880090
 C11     -C10     -C3      -C14     :  55.477021
 C11     -C10     -C3      -H41     : -62.600057
 C11     -C12     -C13     -C14     : -55.431417
 C11     -C12     -C13     -H48     :-177.795967
 C11     -C12     -C13     -H49     :  65.197340
 C12     -C11     -C10     -H42     :-178.199864
 C12     -C11     -C10     -H43     :  65.048138
 C12     -C13     -C14     -H50     : 178.903075
 C12     -C13     -C14     -H51     : -64.143099
 C13     -C12     -C11     -H44     : 177.844767
 C13     -C12     -C11     -H45     : -65.191204
 C13     -C14     -C3      -H41     :  61.844017
 C14     -C3      -C10     -H42     : 177.464108
 C14     -C3      -C10     -H43     : -65.358923
 C14     -C13     -C12     -H46     :-178.232703
 C14     -C13     -C12     -H47     :  64.779472
 C15     -C4      -C19     -C18     :  -0.898862
 C15     -C4      -C19     -C20     : 178.777281
 C15     -C16     -C17     -C18     :  -0.438581
 C15     -C16     -C17     -H54     : 179.951433
 C16     -C15     -C4      -C19     :   0.234972
 C16     -C17     -C18     -C19     :  -0.232363
 C16     -C17     -C18     -H55     :-179.682666
 C17     -C16     -C15     -H52     :-179.493420
 C17     -C18     -C19     -C20     :-178.773752
 C18     -C17     -C16     -H53     : 179.746168
 C18     -C19     -C20     -C21     : -69.119368
 C18     -C19     -C20     -C25     : 108.447923
 C19     -C4      -C15     -H52     :-179.834991
 C19     -C18     -C17     -H54     : 179.379541
 C19     -C20     -C21     -C22     : 177.892087
 C19     -C20     -C21     -O28     :  -2.937636
 C19     -C20     -C25     -C24     :-178.107218
 C19     -C20     -C25     -O26     :   1.651658
 C20     -C19     -C18     -H55     :   0.685218
 C20     -C21     -C22     -C23     :  -0.039504
 C20     -C21     -C22     -H56     : 179.663610
 C20     -C21     -O28     -C29     :-179.386936
 C20     -C25     -C24     -C23     :   0.443987
 C20     -C25     -C24     -H58     :-179.751434
 C20     -C25     -O26     -C27     : 175.295579
 C21     -C20     -C25     -C24     :  -0.485379
 C21     -C20     -C25     -O26     : 179.273498
 C21     -C22     -C23     -C24     :  -0.004865
 C21     -C22     -C23     -H57     :-179.964911
 C21     -O28     -C29     -H62     :-179.093596
 C21     -O28     -C29     -H63     :  62.328043
 C21     -O28     -C29     -H64     : -60.383184
 C22     -C21     -C20     -C25     :   0.280266
 C22     -C21     -O28     -C29     :  -0.244427
 C22     -C23     -C24     -C25     :  -0.194441
 C22     -C23     -C24     -H58     : 179.998256
 C23     -C22     -C21     -O28     :-179.130787
 C23     -C24     -C25     -O26     :-179.290198
 C24     -C23     -C22     -H56     :-179.712230
 C24     -C25     -O26     -C27     :  -4.954777
 C25     -C20     -C21     -O28     : 179.450542
 C25     -C24     -C23     -H57     : 179.765608
 C25     -O26     -C27     -H59     :-178.554931
 C25     -O26     -C27     -H60     :  62.853981
 C25     -O26     -C27     -H61     : -60.019691
 O26     -C25     -C24     -H58     :   0.514380
 O28     -C21     -C22     -H56     :   0.572326
 H30     -C2      -C5      -H31     :-175.755700
 H30     -C2      -C5      -H32     : -59.382943
 H30     -C2      -C9      -H39     : 176.857477
 H30     -C2      -C9      -H40     :  59.540190
 H31     -C5      -C6      -H33     : 174.290333
 H31     -C5      -C6      -H34     :  57.636473
 H32     -C5      -C6      -H33     :  57.506276
 H32     -C5      -C6      -H34     : -59.147583
 H33     -C6      -C7      -H35     :-174.696136
 H33     -C6      -C7      -H36     : -57.604777
 H34     -C6      -C7      -H35     : -57.744554
 H34     -C6      -C7      -H36     :  59.346805
 H35     -C7      -C8      -H37     : 175.017097
 H35     -C7      -C8      -H38     :  57.984740
 H36     -C7      -C8      -H37     :  57.983104
 H36     -C7      -C8      -H38     : -59.049253
 H37     -C8      -C9      -H39     :-175.568696
 H37     -C8      -C9      -H40     : -58.638308
 H38     -C8      -C9      -H39     : -58.812976
 H38     -C8      -C9      -H40     :  58.117412
 H41     -C3      -C10     -H42     :  59.387030
 H41     -C3      -C10     -H43     : 176.563999
 H41     -C3      -C14     -H50     : -61.164643
 H41     -C3      -C14     -H51     :-177.496656
 H42     -C10     -C11     -H44     :  58.962132
 H42     -C10     -C11     -H45     : -57.604848
 H43     -C10     -C11     -H44     : -57.789865
 H43     -C10     -C11     -H45     :-174.356846
 H44     -C11     -C12     -H46     : -59.269654
 H44     -C11     -C12     -H47     :  57.636865
 H45     -C11     -C12     -H46     :  57.694375
 H45     -C11     -C12     -H47     : 174.600895
 H46     -C12     -C13     -H48     :  59.402747
 H46     -C12     -C13     -H49     : -57.603946
 H47     -C12     -C13     -H48     : -57.585078
 H47     -C12     -C13     -H49     :-174.591771
 H48     -C13     -C14     -H50     : -58.452194
 H48     -C13     -C14     -H51     :  58.501632
 H49     -C13     -C14     -H50     :  58.233291
 H49     -C13     -C14     -H51     : 175.187117
 H52     -C15     -C16     -H53     :   0.322997
 H53     -C16     -C17     -H54     :   0.136182
 H54     -C17     -C18     -H55     :  -0.070762
 H56     -C22     -C23     -H57     :   0.327723
 H57     -C23     -C24     -H58     :  -0.041695
 
  nuclear repulsion energy.......    3216.788950226 hartrees
  -------------------------------------------------
 /  end of geometry optimization iteration   1   /
 -------------------------------------------------
   
  end of program geopt
   
 Time(geopt)  user:        0.3  user+sys:        0.3  wallclock:        0.3
  
  start of program onee
  
  smallest eigenvalue of S:    3.703E-04
  number of canonical orbitals.....          478
  end of program onee
   
 Time(onee)  user:        0.3  user+sys:        0.3  wallclock:        0.3
  
  start of program probe
  
  end of program probe
   
 Time(probe)  user:        0.2  user+sys:        0.2  wallclock:        0.2
  
  start of program grid
  
   grid     grid set  grid #  grid sym
  ------    --------  ------  --------
  coarse        0        0        1
  medium        2        1        1
  fine          0        0        1
  ultrafine     4        2        1
  charge       -1        3        1
  gradient      4        2        1
  density       0        0        1
  DFT-fine    -11        4        1
  DFT-med.    -10        5        1
  DFT-grad    -12        6        1
  DFT-der2     -8        7        1
  DFT-cphf     -9        8        1
  LMP2-enrg     4        2        1
  LMP2-grad     2        1        1
  DFT-cphf2   -15        9        1
  PBF-dens      0        0        1
  plotting      0        0        1
  Rel-grad    -17        0        1
  
  number of gridpoints: 
     atom        P1       C2       C3       C4       C5       C6       C7
  grid # 1      547       90       92      100       86       86       86
  grid # 2      547      315      315      361      290      291      290
  grid # 3       35        6        6       11        6        6        6
  grid # 4     4304     4304     4304     4304     4304     4304     4304
  grid # 5     1192     1192     1192     1192     1192     1192     1192
  grid # 6     8076     5226     5226     5226     5226     5226     5226
  grid # 7    22092    12650    12650    12650    12650    12650    12650
  grid # 8      634      688      688      688      688      688      688
  grid # 9      340      358      358      358      358      358      358
   
  number of gridpoints: 
     atom        C8       C9      C10      C11      C12      C13      C14
  grid # 1       86       86       86       86       86       86       86
  grid # 2      291      293      292      290      290      291      289
  grid # 3        6        6        6        6        6        6        6
  grid # 4     4304     4304     4304     4304     4304     4304     4304
  grid # 5     1192     1192     1192     1192     1192     1192     1192
  grid # 6     5226     5226     5226     5226     5226     5226     5226
  grid # 7    12650    12650    12650    12650    12650    12650    12650
  grid # 8      688      688      688      688      688      688      688
  grid # 9      358      358      358      358      358      358      358
   
  number of gridpoints: 
     atom       C15      C16      C17      C18      C19      C20      C21
  grid # 1       95       96       97       96      100      100       96
  grid # 2      328      332      332      336      356      355      343
  grid # 3       13       34       49       32       16       16       18
  grid # 4     4304     4304     4304     4304     4304     4304     4304
  grid # 5     1192     1192     1192     1192     1192     1192     1192
  grid # 6     5226     5226     5226     5226     5226     5226     5226
  grid # 7    12650    12650    12650    12650    12650    12650    12650
  grid # 8      688      688      688      688      688      688      688
  grid # 9      358      358      358      358      358      358      358
   
  number of gridpoints: 
     atom       C22      C23      C24      C25      O26      C27      O28
  grid # 1       96       96       97       97      114       77      110
  grid # 2      330      337      333      347      433      261      425
  grid # 3       35       43       43       28       65        6       37
  grid # 4     4304     4304     4304     4304     4304     4304     4304
  grid # 5     1192     1192     1192     1192     1192     1192     1192
  grid # 6     5226     5226     5226     5226     5226     5226     5226
  grid # 7    12650    12650    12650    12650    23504    12650    23504
  grid # 8      688      688      688      688      714      688      714
  grid # 9      358      358      358      358      360      358      360
   
  number of gridpoints: 
     atom       C29      H30      H31      H32      H33      H34      H35
  grid # 1       76      103       99      104      108      107      108
  grid # 2      263      414      409      423      438      432      436
  grid # 3        6      141       59      191      262      228      236
  grid # 4     4304     4304     4304     4304     4304     4304     4304
  grid # 5     1192     1192     1192     1192     1192     1192     1192
  grid # 6     5226     5226     5226     5226     5226     5226     5226
  grid # 7    12650    13718    13718    13718    13718    13718    13718
  grid # 8      688      744      744      744      744      744      744
  grid # 9      358      382      382      382      382      382      382
   
  number of gridpoints: 
     atom       H36      H37      H38      H39      H40      H41      H42
  grid # 1      110      108      110      104      104       99      105
  grid # 2      441      436      441      419      419      397      420
  grid # 3      329      257      326      133      153       62      172
  grid # 4     4304     4304     4304     4304     4304     4304     4304
  grid # 5     1192     1192     1192     1192     1192     1192     1192
  grid # 6     5226     5226     5226     5226     5226     5226     5226
  grid # 7    13718    13718    13718    13718    13718    13718    13718
  grid # 8      744      744      744      744      744      744      744
  grid # 9      382      382      382      382      382      382      382
   
  number of gridpoints: 
     atom       H43      H44      H45      H46      H47      H48      H49
  grid # 1      108      110      108      110      108      110      108
  grid # 2      431      440      435      440      438      440      436
  grid # 3      226      324      256      329      260      323      254
  grid # 4     4304     4304     4304     4304     4304     4304     4304
  grid # 5     1192     1192     1192     1192     1192     1192     1192
  grid # 6     5226     5226     5226     5226     5226     5226     5226
  grid # 7    13718    13718    13718    13718    13718    13718    13718
  grid # 8      744      744      744      744      744      744      744
  grid # 9      382      382      382      382      382      382      382
   
  number of gridpoints: 
     atom       H50      H51      H52      H53      H54      H55      H56
  grid # 1      105      103      107      118      118      115      110
  grid # 2      423      419      415      450      451      442      430
  grid # 3      178      115      149      413      423      338      251
  grid # 4     4304     4304     4304     4304     4304     4304     4304
  grid # 5     1192     1192     1192     1192     1192     1192     1192
  grid # 6     5226     5226     5226     5226     5226     5226     5226
  grid # 7    13718    13718    13718    13718    13718    13718    13718
  grid # 8      744      744      744      744      744      744      744
  grid # 9      382      382      382      382      382      382      382
   
  number of gridpoints: 
     atom       H57      H58      H59      H60      H61      H62      H63
  grid # 1      118      112      109      111      111      110      108
  grid # 2      451      430      436      435      431      444      421
  grid # 3      414      259      295      317      274      352      205
  grid # 4     4304     4304     4304     4304     4304     4304     4304
  grid # 5     1192     1192     1192     1192     1192     1192     1192
  grid # 6     5226     5226     5226     5226     5226     5226     5226
  grid # 7    13718    13718    13718    13718    13718    13718    13718
  grid # 8      744      744      744      744      744      744      744
  grid # 9      382      382      382      382      382      382      382
   
  number of gridpoints: 
     atom       H64    total
  grid # 1      111     6929
  grid # 2      435    24654
  grid # 3      316     9379
  grid # 4     4304   275456
  grid # 5     1192    76288
  grid # 6     5226   337314
  grid # 7    13718   878130
  grid # 8      744    45990
  grid # 9      382    23738
   
  end of program grid
   
 Time(grid)  user:       53.4  user+sys:       53.4  wallclock:       54.0
  
  start of program rwr
  
  end of program rwr
   
 Time(rwr)  user:        5.1  user+sys:        5.1  wallclock:        5.8
  
  start of program scf
  
 Energy computed with NOPS off.
 Convergence Criterion:
    Energy (econv):       1.00E-05
    RMS density (dconv):  5.00E-06
  
       i  u  d  i  g                   
       t  p  i  c  r                                 RMS    maximum
       e  d  i  u  i                       energy  density   DIIS  
       r  t  s  t  d       total energy    change  change    error 
  
etot    1  N  N  2  U   -1503.11149439988           4.5E-04  8.7E-03
etot    2  Y  Y  6  M   -1503.14721239581  3.6E-02  1.3E-04  1.1E-03
etot    3  N  Y  2  U   -1503.14683927948 -3.7E-04  7.8E-05  1.7E-03
etot    4  Y  Y  6  M   -1503.14781211248  9.7E-04  2.2E-05  7.8E-04
etot    5  N  Y  2  U   -1503.14772815052 -8.4E-05  7.8E-06  2.5E-04
etot    6  N  Y  2  U   -1503.14773634422  8.2E-06  3.0E-06  5.5E-05
etot    7  N  N  2  U   -1503.14773718817  8.4E-07  0.0E+00  0.0E+00
 
  Computing the dispersion energy correction and its gradients...
  
  
 Energy components, in hartrees:
   (A)  Nuclear repulsion............    3216.78895022573
   (E)  Total one-electron terms.....   -8450.86413343322
   (F)    Electron-nuclear...........   -9946.14347292772
   (H)    Kinetic....................    1495.27933949450
   (I)  Total two-electron terms.....    3730.92744601932
   (J)    Coulomb....................    3925.53215219268
   (K)    Exchange+Correlation.......    -194.60470617336
   (L)  Electronic energy............   -4719.93668741390  (E+I)
   (M)  -V/T.........................       2.00526215904  (-(A+F+I)/H)
   (N0) D3 correction................      -0.09391075235
   (N)  Total energy.................   -1503.24164794052  (A+L+N0)
   (O)  Gas phase energy.............   -1503.24164794052
  
 SCFE: SCF energy: DFT(b3pw91-d3)     -1503.24164794052 hartrees   iterations:   7
  
 
 HOMO energy:    -0.19706
 LUMO energy:    -0.00748
 
  Orbital energies (hartrees): 
   -77.01234   -19.16291   -19.15855   -10.22594   -10.22479   -10.21646
   -10.21161   -10.17210   -10.16927   -10.16376   -10.16373   -10.16224
   -10.16187   -10.16153   -10.15967   -10.15900   -10.15860   -10.15733
   -10.15698   -10.15475   -10.15352   -10.15240   -10.15193   -10.15002
   -10.14957   -10.14863   -10.14803   -10.14748   -10.14065    -6.51684
[...]
    C2       Z    -0.00000 -0.00002 -0.00002  0.00004  0.00000 -0.00001
    C3       X    -0.00001  0.00023  0.00031 -0.00020 -0.00000 -0.00000
    C3       Y    -0.00001  0.00031  0.00028 -0.00020 -0.00001  0.00000
    C3       Z     0.00000 -0.00008 -0.00010  0.00005  0.00000  0.00001
    C4       X     0.00000  0.00030 -0.00073  0.00014  0.00000  0.00002
    C4       Y    -0.00001 -0.00038 -0.00168  0.00136  0.00000 -0.00005
    C4       Z     0.00000 -0.00000 -0.00043  0.00025  0.00000 -0.00001
    C5       X    -0.00003 -0.00002  0.00004  0.00001  0.00004 -0.00002
    C5       Y    -0.00003  0.00001  0.00010 -0.00004  0.00002 -0.00004
    C5       Z     0.00001  0.00000 -0.00001  0.00000 -0.00001  0.00001
    C6       X    -0.00004 -0.00001  0.00004  0.00002  0.00004 -0.00004
    C6       Y     0.00003  0.00002  0.00001 -0.00000 -0.00001 -0.00001
    C6       Z    -0.00002 -0.00001  0.00004  0.00003  0.00004 -0.00006
    C7       X    -0.00002 -0.00000 -0.00001  0.00000  0.00001  0.00001
    C7       Y     0.00001 -0.00000  0.00001 -0.00003 -0.00001 -0.00000
    C7       Z     0.00002  0.00002  0.00003  0.00002 -0.00001 -0.00001
    C8       X    -0.00002 -0.00005 -0.00007  0.00001  0.00001  0.00001
    C8       Y     0.00000  0.00000  0.00007 -0.00010 -0.00000 -0.00000
    C8       Z     0.00000  0.00001  0.00001  0.00001  0.00000 -0.00000
    C9       X    -0.00001 -0.00027 -0.00052  0.00041  0.00001  0.00001
    C9       Y    -0.00000  0.00037  0.00071 -0.00057 -0.00001 -0.00001
    C9       Z    -0.00001 -0.00005 -0.00008  0.00005  0.00000  0.00001
    C10      X    -0.00000  0.00000  0.00002 -0.00003 -0.00002 -0.00000
    C10      Y     0.00000 -0.00000  0.00001  0.00003 -0.00002 -0.00002
    C10      Z     0.00001 -0.00003 -0.00003  0.00008  0.00001 -0.00001
    C11      X    -0.00001 -0.00002 -0.00003 -0.00002 -0.00000  0.00001
    C11      Y     0.00001  0.00003  0.00006 -0.00003 -0.00001 -0.00001
    C11      Z     0.00000 -0.00000 -0.00001 -0.00000  0.00000  0.00000
    C12      X    -0.00001 -0.00001 -0.00001 -0.00002 -0.00001  0.00000
    C12      Y    -0.00000  0.00000  0.00003 -0.00002 -0.00001 -0.00001
    C12      Z    -0.00001 -0.00002 -0.00002 -0.00002  0.00000  0.00001
    C13      X    -0.00001  0.00003  0.00007 -0.00003 -0.00001 -0.00001
    C13      Y    -0.00001  0.00001  0.00008 -0.00007 -0.00001 -0.00000
    C13      Z     0.00000 -0.00005 -0.00008 -0.00001  0.00001  0.00002
    C14      X    -0.00002 -0.00004 -0.00007  0.00008 -0.00002  0.00000
    C14      Y    -0.00001  0.00015  0.00029 -0.00017 -0.00003 -0.00003
    C14      Z     0.00001 -0.00003 -0.00006  0.00004  0.00001  0.00001
    C15      X    -0.00022  0.02535  0.05517 -0.04644  0.00007  0.00028
    C15      Y    -0.00003  0.00322  0.00299 -0.00126  0.00000  0.00002
    C15      Z    -0.00007  0.00783  0.01645 -0.01368  0.00001  0.00008
    C16      X     0.00018 -0.01811  0.00343 -0.01592  0.00002  0.00008
    C16      Y     0.00035 -0.03315  0.01436 -0.03238  0.00004  0.00016
    C16      Z     0.00011 -0.01015  0.00305 -0.00935  0.00001  0.00005
    C17      X    -0.00022  0.02837  0.01493  0.02446 -0.00003 -0.00017
    C17      Y     0.00027 -0.03777 -0.02722 -0.03654  0.00007  0.00028
    C17      Z    -0.00002  0.00311  0.00062  0.00216 -0.00001 -0.00001
    C18      X     0.00059 -0.04676  0.04817  0.03954 -0.00011 -0.00029
    C18      Y     0.00002 -0.00081  0.00384  0.00408 -0.00002 -0.00005
    C18      Z     0.00017 -0.01395  0.01479  0.01226 -0.00003 -0.00009
    C19      X     0.00001  0.00013 -0.00127 -0.00029  0.00003  0.00003
    C19      Y     0.00003 -0.00156  0.00203  0.00177 -0.00003  0.00006
    C19      Z     0.00000 -0.00016 -0.00009  0.00014  0.00008 -0.00000
    C20      X     0.00001  0.00001  0.00010  0.00003 -0.00003  0.00011
    C20      Y    -0.00005  0.00009 -0.00017 -0.00011  0.00021  0.00010
    C20      Z     0.00001  0.00004  0.00001 -0.00001 -0.00066  0.00019
    C21      X    -0.00009  0.00005 -0.00004 -0.00005 -0.00078  0.00116
    C21      Y    -0.00006  0.00018 -0.00016 -0.00017 -0.00183  0.00274
    C21      Z    -0.00030 -0.00008  0.00006  0.00014 -0.00021  0.00018
    C22      X    -0.00455 -0.00006  0.00001 -0.00008  0.01254 -0.01714
    C22      Y    -0.00526 -0.00008  0.00004 -0.00003  0.01046 -0.01290
    C22      Z    -0.01287 -0.00013 -0.00001 -0.00035  0.04428 -0.06352
    C23      X     0.03232  0.00033 -0.00007 -0.00011 -0.00225 -0.01009
    C23      Y     0.07025  0.00071 -0.00015 -0.00024 -0.00338 -0.02219
    C23      Z     0.01926  0.00020 -0.00004 -0.00007 -0.00475 -0.00538
    C24      X    -0.00343 -0.00004 -0.00000 -0.00006 -0.01153 -0.00708
    C24      Y    -0.01193 -0.00012  0.00000 -0.00026 -0.04792 -0.03082
    C24      Z     0.00859  0.00006  0.00004  0.00031  0.04731  0.03234
    C25      X    -0.00006  0.00004 -0.00004 -0.00004  0.00121  0.00083
    C25      Y    -0.00019  0.00008 -0.00009 -0.00006  0.00246  0.00168
    C25      Z     0.00022 -0.00001 -0.00001 -0.00009  0.00114  0.00087
    O26      X     0.00005  0.00001 -0.00001 -0.00000 -0.00013 -0.00008
    O26      Y     0.00003 -0.00000  0.00001  0.00000 -0.00031 -0.00020
    O26      Z     0.00014  0.00002 -0.00002  0.00004 -0.00011 -0.00001
    C27      X    -0.00075 -0.00004  0.00007  0.00002 -0.00123 -0.00068
    C27      Y    -0.00090  0.00001  0.00003 -0.00004 -0.00170 -0.00088
    C27      Z    -0.00102 -0.00003  0.00008 -0.00015 -0.00083 -0.00042
    O28      X     0.00003  0.00002 -0.00003 -0.00001  0.00009 -0.00013
    O28      Y     0.00011 -0.00008  0.00007  0.00009  0.00023 -0.00028
    O28      Z    -0.00011 -0.00000 -0.00001 -0.00006  0.00003 -0.00011
    C29      X    -0.00060 -0.00004  0.00005  0.00000  0.00079 -0.00092
    C29      Y    -0.00118 -0.00002 -0.00008 -0.00012  0.00141 -0.00161
    C29      Z     0.00038  0.00011 -0.00006  0.00007  0.00010 -0.00013
    H30      X     0.00017  0.00043  0.00085 -0.00045 -0.00007 -0.00015
    H30      Y    -0.00019 -0.00088 -0.00171  0.00126  0.00007  0.00013
    H30      Z     0.00003  0.00016  0.00008 -0.00032  0.00001  0.00005
    H31      X    -0.00000  0.00018  0.00037 -0.00027 -0.00015 -0.00010
    H31      Y    -0.00020 -0.00026 -0.00022  0.00024  0.00017  0.00019
    H31      Z    -0.00005 -0.00006  0.00002  0.00015  0.00001 -0.00008
    H32      X     0.00027 -0.00001 -0.00073  0.00031 -0.00022  0.00034
    H32      Y     0.00062  0.00005 -0.00115  0.00046 -0.00035  0.00032
    H32      Z    -0.00010 -0.00005  0.00008  0.00003  0.00012 -0.00017
    H33      X     0.00034  0.00011 -0.00001  0.00003 -0.00011 -0.00010
    H33      Y    -0.00042 -0.00014 -0.00001  0.00004  0.00016  0.00010
    H33      Z    -0.00002 -0.00000  0.00001 -0.00003  0.00000  0.00003
    H34      X     0.00020  0.00005 -0.00051 -0.00025 -0.00038  0.00050
    H34      Y     0.00005 -0.00000 -0.00009 -0.00001 -0.00004  0.00004
    H34      Z     0.00029  0.00010 -0.00060 -0.00038 -0.00053  0.00067
    H35      X     0.00011 -0.00003  0.00006 -0.00028 -0.00004 -0.00001
    H35      Y    -0.00018  0.00002 -0.00007  0.00035  0.00007  0.00003
    H35      Z     0.00002  0.00003  0.00007 -0.00004 -0.00000 -0.00002
    H36      X     0.00015  0.00015  0.00019  0.00018 -0.00003 -0.00011
    H36      Y    -0.00001 -0.00003 -0.00007  0.00002 -0.00000  0.00000
    H36      Z    -0.00024 -0.00031 -0.00048 -0.00023  0.00005  0.00019
    H37      X     0.00010  0.00054  0.00110 -0.00080 -0.00005 -0.00007
    H37      Y    -0.00012 -0.00059 -0.00125  0.00088  0.00006  0.00009
    H37      Z     0.00001 -0.00014 -0.00027  0.00017 -0.00000  0.00002
    H38      X     0.00009  0.00012 -0.00030  0.00069 -0.00004 -0.00005
    H38      Y     0.00013  0.00021 -0.00030  0.00090 -0.00006 -0.00008
    H38      Z    -0.00002  0.00002  0.00013 -0.00026 -0.00001  0.00004
    H39      X     0.00001  0.00322  0.00625 -0.00505 -0.00004 -0.00005
    H39      Y    -0.00003 -0.00449 -0.00849  0.00674  0.00007  0.00011
    H39      Z    -0.00001  0.00028  0.00044 -0.00021  0.00001 -0.00003
    H40      X     0.00016 -0.00000 -0.00019  0.00008 -0.00014 -0.00002
    H40      Y     0.00003  0.00022  0.00039 -0.00031 -0.00003  0.00000
    H40      Z     0.00017  0.00024  0.00017 -0.00015 -0.00014 -0.00003
    H41      X     0.00009 -0.00282 -0.00405  0.00270  0.00005 -0.00003
    H41      Y     0.00015 -0.00669 -0.01025  0.00754  0.00010 -0.00007
    H41      Z    -0.00003  0.00138  0.00197 -0.00139 -0.00004 -0.00005
    H42      X     0.00006 -0.00003  0.00000  0.00014  0.00009 -0.00005
    H42      Y     0.00000  0.00001  0.00002 -0.00002 -0.00001  0.00000
    H42      Z    -0.00011  0.00011  0.00010 -0.00043 -0.00016  0.00010
    H43      X    -0.00001  0.00012  0.00019 -0.00025  0.00009  0.00007
    H43      Y     0.00000 -0.00036 -0.00063  0.00026  0.00021  0.00014
    H43      Z     0.00001  0.00011  0.00022 -0.00015 -0.00003 -0.00002
    H44      X     0.00014  0.00022  0.00041  0.00017 -0.00003 -0.00017
    H44      Y    -0.00014 -0.00027 -0.00048 -0.00009  0.00002  0.00016
    H44      Z     0.00000 -0.00001 -0.00001  0.00008 -0.00001 -0.00002
    H45      X     0.00001 -0.00009 -0.00024  0.00024  0.00005  0.00002
    H45      Y     0.00002 -0.00006 -0.00025  0.00033  0.00009  0.00002
    H45      Z    -0.00000 -0.00001  0.00003 -0.00003 -0.00002 -0.00001
    H46      X     0.00013  0.00026  0.00028  0.00025  0.00003 -0.00011
    H46      Y     0.00003  0.00005  0.00005  0.00009  0.00001 -0.00002
    H46      Z     0.00012  0.00024  0.00024  0.00029  0.00002 -0.00011
    H47      X    -0.00000 -0.00003 -0.00017  0.00005  0.00005  0.00005
    H47      Y     0.00001 -0.00008 -0.00047  0.00021  0.00013  0.00011
    H47      Z    -0.00001  0.00001  0.00011 -0.00006 -0.00004 -0.00002
    H48      X    -0.00000 -0.00022 -0.00028 -0.00014  0.00006  0.00008
    H48      Y    -0.00001 -0.00000  0.00002  0.00000 -0.00001 -0.00001
    H48      Z    -0.00001  0.00046  0.00058  0.00039 -0.00016 -0.00020
    H49      X     0.00007 -0.00015 -0.00063  0.00052  0.00008  0.00003
    H49      Y     0.00012 -0.00023 -0.00101  0.00081  0.00014  0.00006
    H49      Z    -0.00001 -0.00003  0.00008 -0.00010 -0.00002 -0.00000
    H50      X     0.00012  0.00109  0.00188 -0.00140 -0.00004 -0.00014
    H50      Y    -0.00018 -0.00066 -0.00099  0.00073  0.00004  0.00016
    H50      Z     0.00000 -0.00034 -0.00055  0.00029  0.00002  0.00004
    H51      X     0.00009 -0.00037 -0.00070  0.00026  0.00014  0.00011
    H51      Y     0.00026 -0.00083 -0.00170  0.00077  0.00032  0.00023
    H51      Z    -0.00006  0.00020  0.00034 -0.00012 -0.00007 -0.00005
    H52      X     0.00253 -0.30370 -0.63435  0.52524 -0.00079 -0.00331
    H52      Y     0.00015 -0.01988 -0.03617  0.02802 -0.00005 -0.00027
    H52      Z     0.00075 -0.09109 -0.18960  0.15669 -0.00024 -0.00100
    H53      X    -0.00196  0.18589 -0.06361  0.16696 -0.00021 -0.00089
    H53      Y    -0.00406  0.38324 -0.14359  0.34902 -0.00041 -0.00183
    H53      Z    -0.00117  0.11005 -0.03935  0.09945 -0.00010 -0.00054
    H54      X     0.00229 -0.30150 -0.18659 -0.26530  0.00045  0.00197
    H54      Y    -0.00341  0.44709  0.28739  0.39885 -0.00071 -0.00308
    H54      Z     0.00020 -0.02657 -0.01499 -0.02283  0.00003  0.00015
    H55      X    -0.00701  0.54401 -0.54358 -0.44053  0.00104  0.00280
    H55      Y    -0.00037  0.02856 -0.03260 -0.02777  0.00007  0.00027
    H55      Z    -0.00219  0.16586 -0.16627 -0.13491  0.00037  0.00083
    H56      X     0.04900  0.00058 -0.00010  0.00093 -0.14005  0.19562
    H56      Y     0.04009  0.00053 -0.00013  0.00061 -0.10896  0.15031
    H56      Z     0.17455  0.00201 -0.00026  0.00357 -0.51286  0.72004
    H57      X    -0.37192 -0.00376  0.00076  0.00112  0.02154  0.10411
    H57      Y    -0.80762 -0.00822  0.00167  0.00245  0.04482  0.22649
    H57      Z    -0.22154 -0.00224  0.00044  0.00066  0.01705  0.06124
    H58      X     0.03264  0.00030  0.00001  0.00070  0.12813  0.08304
    H58      Y     0.13465  0.00131  0.00002  0.00297  0.54253  0.35320
    H58      Z    -0.13161 -0.00120 -0.00013 -0.00319 -0.54791 -0.35920
    H59      X     0.00577  0.00018 -0.00038  0.00060  0.00657  0.00344
    H59      Y     0.00740  0.00022 -0.00051  0.00068  0.00961  0.00523
    H59      Z     0.01229  0.00039 -0.00096  0.00125  0.01334  0.00695
    H60      X     0.00646  0.00015 -0.00030 -0.00064  0.01743  0.00979
    H60      Y     0.00195  0.00005 -0.00010 -0.00031  0.00620  0.00359
    H60      Z    -0.00102 -0.00004  0.00004  0.00016 -0.00184 -0.00080
    H61      X    -0.00279  0.00014 -0.00008 -0.00023 -0.00685 -0.00345
    H61      Y     0.00276 -0.00024  0.00018  0.00027  0.00800  0.00410
    H61      Z     0.00119 -0.00005  0.00005  0.00012  0.00362  0.00199
    H62      X     0.00421  0.00027  0.00012  0.00050 -0.00400  0.00463
    H62      Y     0.01145  0.00083  0.00006  0.00120 -0.01095  0.01274
    H62      Z    -0.00589 -0.00046 -0.00008 -0.00073  0.00460 -0.00507
    H63      X    -0.00261  0.00046 -0.00066 -0.00029  0.00543 -0.00622
    H63      Y     0.00295 -0.00073  0.00104  0.00039 -0.00727  0.00860
    H63      Z     0.00090 -0.00042  0.00047  0.00017 -0.00200  0.00217
    H64      X     0.00603 -0.00020 -0.00002 -0.00024 -0.01223  0.01474
    H64      Y     0.00099 -0.00004 -0.00003 -0.00011 -0.00281  0.00369
    H64      Z     0.00094 -0.00012  0.00006 -0.00008 -0.00181  0.00200
  
  Number of imaginary frequencies:   0
   
  Writing vibrational animation data to PL145.vib
  Writing IR vibrational spectrum data to PL145_vib.spm
  rotational symmetry number:  1

  rotational temperatures (K):      0.009271      0.006683      0.005379
   
  The Quasi-Harmonic approximation will be applied to compute
  vibrational constributions to thermodynamic properties.
  Frequencies will be adjusted to a minimum value of  100.00 cm^-1.

  vibrational temperatures:
       mode:      1        2        3        4        5        6
  temp. (K):   143.88   143.88   143.88   143.88   143.88   143.88
   
       mode:      7        8        9       10       11       12
  temp. (K):   143.88   143.88   143.88   143.88   174.84   199.53
   
       mode:     13       14       15       16       17       18
  temp. (K):   209.67   237.00   243.78   264.06   302.77   307.17
   
       mode:     19       20       21       22       23       24
  temp. (K):   325.01   359.55   364.66   387.09   396.14   412.94
   
       mode:     25       26       27       28       29       30
  temp. (K):   427.81   441.97   470.44   478.06   489.53   539.95
   
       mode:     31       32       33       34       35       36
  temp. (K):   554.03   563.82   605.86   622.13   640.70   647.28
   
       mode:     37       38       39       40       41       42
  temp. (K):   650.62   671.47   693.56   741.56   750.18   767.24
   
       mode:     43       44       45       46       47       48
  temp. (K):   790.38   824.94   872.63   894.63   924.49   978.08
   
       mode:     49       50       51       52       53       54
  temp. (K):  1036.45  1059.36  1074.66  1092.37  1107.04  1127.17
   
       mode:     55       56       57       58       59       60
  temp. (K):  1129.72  1162.43  1164.62  1167.56  1203.00  1207.77
   
       mode:     61       62       63       64       65       66
  temp. (K):  1232.32  1259.14  1259.40  1290.31  1313.04  1316.59
   
       mode:     67       68       69       70       71       72
  temp. (K):  1316.96  1321.53  1356.68  1358.71  1364.54  1401.53
   
       mode:     73       74       75       76       77       78
  temp. (K):  1404.13  1452.45  1472.57  1475.35  1478.63  1525.17
   
       mode:     79       80       81       82       83       84
  temp. (K):  1526.81  1536.29  1549.65  1559.75  1574.14  1586.70
   
       mode:     85       86       87       88       89       90
  temp. (K):  1592.92  1602.31  1609.37  1616.81  1636.88  1640.31
   
       mode:     91       92       93       94       95       96
  temp. (K):  1650.85  1671.40  1685.65  1699.81  1701.44  1737.73
   
       mode:     97       98       99      100      101      102
  temp. (K):  1741.35  1744.54  1758.93  1760.20  1772.87  1774.87
   
       mode:    103      104      105      106      107      108
  temp. (K):  1783.29  1848.34  1869.32  1873.73  1880.79  1886.07
   
       mode:    109      110      111      112      113      114
  temp. (K):  1890.17  1893.08  1898.49  1904.11  1927.85  1936.15
   
       mode:    115      116      117      118      119      120
  temp. (K):  1940.16  1942.58  1976.17  1979.07  1986.70  2001.24
   
       mode:    121      122      123      124      125      126
  temp. (K):  2005.59  2009.90  2015.13  2017.03  2019.68  2021.63
   
       mode:    127      128      129      130      131      132
  temp. (K):  2028.51  2126.89  2137.12  2154.23  2163.50  2168.36
   
       mode:    133      134      135      136      137      138
  temp. (K):  2171.63  2172.72  2173.61  2176.36  2179.81  2184.99
   
       mode:    139      140      141      142      143      144
  temp. (K):  2186.98  2188.61  2190.10  2197.99  2200.21  2202.67
   
       mode:    145      146      147      148      149      150
  temp. (K):  2205.53  2209.36  2225.51  2341.75  2380.09  2385.69
   
       mode:    151      152      153      154      155      156
  temp. (K):  2390.69  4344.81  4352.16  4353.24  4355.83  4356.94
   
       mode:    157      158      159      160      161      162
  temp. (K):  4359.19  4360.84  4363.26  4364.07  4364.86  4368.60
   
       mode:    163      164      165      166      167      168
  temp. (K):  4375.55  4391.64  4403.27  4431.84  4432.99  4433.90
   
       mode:    169      170      171      172      173      174
  temp. (K):  4435.94  4440.64  4445.60  4448.16  4453.67  4454.74
   
       mode:    175      176      177      178      179      180
  temp. (K):  4459.38  4464.63  4479.15  4547.84  4552.22  4574.17
   
       mode:    181      182      183      184      185      186
  temp. (K):  4590.43  4595.13  4613.22  4621.56  4648.45  4654.16
   
   
  Thermodynamic properties calculated assuming an ideal gas

  In the table below, the units for temperature
  are kelvins, the units for U, H, and G are
  kcal/mol and the units for Cv and S are cal/(mol K)

  The zero point energy (ZPE):    354.784 kcal/mol
  is not included in U, H, or G in the table below
  
 
  =============================================================================
  Thermodynamic properties for P = 1.00E+00 atm, calculated at   1 temperatures


  T =   298.15 K, P = 1.00E+00 atm
   
                  U         Cv          S          H          G        ln(Q)
              =========  =========  =========  =========  =========  =========
  trans.          0.889      2.981     43.926      1.481    -11.615   19.60423
  rot.            0.889      2.981     35.920      0.889     -9.821   16.57585
  vib.           15.131    103.503     90.922     15.131    -11.978   20.21650
  elec.           0.000      0.000      0.000      0.000      0.000    0.00000
  ----------------------------------------------------------------------------
  total          16.908    109.465    170.769     17.500    -33.414   56.39658
   
   Total internal energy, Utot(SCFE + ZPE + U):   -1502.656603 hartrees
   Total enthalpy, Htot (Utot + nRT), with n=1:   -1502.655659 hartrees
    Total Gibbs free energy, Gtot (Htot - T*S):   -1502.736796 hartrees
   
  end of program freq
   
 Time(freq)  user:        2.2  user+sys:        2.2  wallclock:        2.5
  
  start of program post
  
  Writing input files for PBF
  end of program post
   
 Time(post)  user:        2.1  user+sys:        2.1  wallclock:        2.3

 Total cpu seconds     user:   12095.672   user+sys:   12095.672
  
 Total elapsed time:    12366 seconds

Job PL145 completed on bp1-compute031.data.bp.acrc.priv at Fri Mar 15 00:28:27 2024
