Job red_elim_TS_L1_PL145_3 started on bp1-compute136 at Mon Dec  1 17:05:54 2025
jobid: bp1-compute136-0-692dcae4

  +--------------------------------------------------------------------+
  |  Jaguar version 12.5, release 138                                  |
  |                                                                    |
  |  Copyright Schrodinger, Inc.                                       |
  |  All Rights Reserved.                                              |
  |                                                                    |
  |  The following have contributed to Jaguar (listed alphabetically): |
  |  Ty Balduf, Mike Beachy, Chandler Bennett, Art Bochevarov,         |
  |  Dale Braden, Yixiang Cao, Alan Chien, Chris Cortis,               |
  |  Rich Friesner, Jim Furness, Bill Goddard, Hod Greeley,            |
  |  Tom Hughes, Leif Jacobson, Jean-Marc Langlois, Daniel Levine,     |
  |  Rob Murphy, Dean Philipp, Tom Pollard, Murco Ringnalda,           |
  |  Daniel Mainz, Pablo Videla, Mark Watson, Haoyu Yu.                |
  |                                                                    |
  |  Use of this program should be acknowledged in publications as:    |
  |                                                                    |
  |  Jaguar, version 12.5, Schrodinger, Inc., New York, NY, 2024.      |
  |                                                                    |
  |  A. D. Bochevarov, E. Harder, T. F. Hughes, J. R. Greenwood,       |
  |  D. A. Braden, D. M. Philipp, D. Rinaldo, M. D. Halls,             |
  |  J. Zhang, R. A. Friesner, "Jaguar: A High-Performance Quantum     |
  |  Chemistry Software Program with Strengths in Life and Materials   |
  |  Sciences", Int. J. Quantum Chem., 2013, 113(18), 2110-2142.       |
  +--------------------------------------------------------------------+
  
  start of program pre
  
  Job name: red_elim_TS_L1_PL145_3
  Executables used: /software/local/apps/schrodinger2024-3/jaguar-v12.5/bin/Linux-x86_64
  Temporary files : /tmp/ar21627/red_elim_TS_L1_PL145_3#bp1-compute136-0-692dcae4
  Basis file : using default basis file from /software/local/apps/schrodinger2024-3
  Maestro file (input):  red_elim_TS_L1_PL145_3.mae
  Maestro file (output): red_elim_TS_L1_PL145_3.01.mae
  
 Contents of input file: &gen and (if present) &atomic sections only
 ----------------Contents start----------------
&gen
dftname=b3pw91-d3
basis=6-31G*
numd=5
ip11=2
iaccg=3
isolv=2
igeopt=2
solvent=benzene
ifreq=1
&
&atomic
atom basis
Pd2 lacv3p*
&
 -----------------Contents end-----------------
 
  PS calculation requested. Using PS version of 6-31g*
  basis set:               non_standard                    
  net molecular charge:    0
  multiplicity:            1
  
  Using up to  18 threads per process
  
  This run will use ECP on 1 atom
  number of basis functions....          727
  
 Input geometry:
                                   angstroms
  atom               x                 y                 z
  P1           -1.4431000000     -0.6135000000     -0.1867000000 
  Pd2           0.5637000000      0.4377000000     -0.4677000000 
  N3            2.4581000000      1.1806000000     -0.5054000000 
  C4            3.2390000000     -2.2598000000      2.3151000000 
  C5            2.6836000000     -1.0892000000      2.8168000000 
  C6            2.1488000000     -0.1582000000      1.9292000000 
  C7            2.1416000000     -0.4066000000      0.5428000000 
  C8            2.7496000000     -1.5793000000      0.0627000000 
  C9            3.2879000000     -2.5100000000      0.9497000000 
  F10           3.7452000000     -3.1747000000      3.1743000000 
  H11           2.6614000000     -0.9189000000      3.8893000000 
  H12           1.6853000000      0.7423000000      2.3159000000 
  H13           2.7962000000     -1.7709000000     -1.0043000000 
  H14           3.7379000000     -3.4304000000      0.5892000000 
  H15           2.7041000000      1.8237000000      0.2404000000 
  C16           5.5398000000      0.6328000000     -3.3189000000 
  C17           4.2685000000      0.1002000000     -3.5445000000 
  C18           3.2444000000      0.2916000000     -2.6226000000 
  C19           3.4741000000      1.0090000000     -1.4327000000 
  C20           4.7635000000      1.5279000000     -1.2051000000 
  C21           5.7744000000      1.3523000000     -2.1448000000 
  H22           6.3343000000      0.4911000000     -4.0464000000 
  H23           4.0671000000     -0.4596000000     -4.4551000000 
  H24           2.2449000000     -0.0987000000     -2.8067000000 
  H25           4.9629000000      2.0719000000     -0.2837000000 
  H26           6.7594000000      1.7709000000     -1.9510000000 
  C27          -2.5536000000     -0.5665000000     -1.7015000000 
  C28          -1.3260000000     -2.3995000000      0.3242000000 
  C29          -2.5392000000      0.1329000000      1.0990000000 
  C30          -3.6634000000     -1.6233000000     -1.7527000000 
  C31          -4.5556000000     -1.4226000000     -2.9831000000 
  C32          -3.7345000000     -1.4370000000     -4.2735000000 
  C33          -2.6318000000     -0.3779000000     -4.2275000000 
  C34          -1.7325000000     -0.5583000000     -3.0014000000 
  C35          -0.5142000000     -3.1993000000     -0.7057000000 
  C36          -0.3722000000     -4.6636000000     -0.2781000000 
  C37           0.2491000000     -4.7818000000      1.1147000000 
  C38          -0.5524000000     -3.9801000000      2.1413000000 
  C39          -0.6881000000     -2.5159000000      1.7166000000 
  C40          -3.6025000000     -0.6129000000      1.6335000000 
  C41          -4.4714000000     -0.0774000000      2.5792000000 
  C42          -4.2879000000      1.2329000000      3.0161000000 
  C43          -3.2323000000      1.9814000000      2.5078000000 
  C44          -2.3475000000      1.4549000000      1.5555000000 
  C45          -1.2367000000      2.3476000000      1.1161000000 
  C46          -0.2142000000      2.6870000000      2.0219000000 
  C47           0.7978000000      3.5855000000      1.6643000000 
  C48           0.7720000000      4.1626000000      0.3976000000 
  C49          -0.2361000000      3.8685000000     -0.5146000000 
  C50          -1.2381000000      2.9609000000     -0.1500000000 
  O51          -2.2747000000      2.6168000000     -0.9602000000 
  C52          -2.2586000000      3.0794000000     -2.2994000000 
  O53          -0.2740000000      2.0623000000      3.2293000000 
  C54           0.6132000000      2.4830000000      4.2512000000 
  H55          -3.0279000000      0.4191000000     -1.6036000000 
  H56          -3.2219000000     -2.6285000000     -1.7966000000 
  H57          -4.2752000000     -1.5802000000     -0.8447000000 
  H58          -5.0775000000     -0.4579000000     -2.8951000000 
  H59          -5.3306000000     -2.1994000000     -3.0109000000 
  H60          -3.2770000000     -2.4298000000     -4.3991000000 
  H61          -4.3843000000     -1.2761000000     -5.1432000000 
  H62          -3.0943000000      0.6197000000     -4.1915000000 
  H63          -2.0261000000     -0.4104000000     -5.1423000000 
  H64          -0.9786000000      0.2387000000     -2.9584000000 
  H65          -1.1749000000     -1.5001000000     -3.0976000000 
  H66          -2.3390000000     -2.8246000000      0.3631000000 
  H67          -0.9837000000     -3.1479000000     -1.6950000000 
  H68           0.4805000000     -2.7439000000     -0.7988000000 
  H69           0.2331000000     -5.2060000000     -1.0160000000 
  H70          -1.3660000000     -5.1370000000     -0.2758000000 
  H71           0.3147000000     -5.8354000000      1.4157000000 
  H72           1.2754000000     -4.3912000000      1.0848000000 
  H73          -0.0719000000     -4.0340000000      3.1266000000 
  H74          -1.5541000000     -4.4235000000      2.2511000000 
  H75           0.3053000000     -2.0530000000      1.6921000000 
  H76          -1.2790000000     -1.9606000000      2.4550000000 
  H77          -3.7505000000     -1.6416000000      1.3207000000 
  H78          -5.2831000000     -0.6831000000      2.9734000000 
  H79          -4.9573000000      1.6676000000      3.7538000000 
  H80          -3.0715000000      2.9984000000      2.8552000000 
  H81           1.5944000000      3.8349000000      2.3555000000 
  H82           1.5571000000      4.8585000000      0.1145000000 
  H83          -0.2285000000      4.3313000000     -1.4938000000 
  H84          -3.1375000000      2.6419000000     -2.7752000000 
  H85          -1.3554000000      2.7427000000     -2.8242000000 
  H86          -2.3295000000      4.1733000000     -2.3502000000 
  H87           1.6590000000      2.2579000000      4.0033000000 
  H88           0.3301000000      1.9176000000      5.1403000000 
  H89           0.5119000000      3.5574000000      4.4516000000 
   
  principal moments of inertia:
        amu*angstrom^2:              6190.31981              7843.07776              8049.57971
                g*cm^2:          1.02792666E-36          1.30237354E-36          1.33666399E-36
   
  rotational constants:
               cm^(-1):      0.00272322      0.00214936      0.00209422
                   GHz:      0.08164021      0.06443631      0.06278328
   
  Molecular weight:     703.22 amu
   
  Stoichiometry: PdC38PNH45O2F
  Molecular Point Group: C1      
  Point Group used: C1
  
 
Number of optimization coordinates:   316
Number of independent coordinates:    316
Number of non-redundant coordinates:  261
Number of frozen coordinates:           0
Number of harmonic constraints:         0
 
Number of geometric degrees of freedom:   261
Maximum geometric degrees of freedom:     261
 " " " " " excluding dummy atoms:         261
 
 
  bond lengths (angstroms):
 
 P1      -Pd2     :   2.282812      P1      -C27     :   1.878840
 P1      -C28     :   1.861324      P1      -C29     :   1.847044
 Pd2     -N3      :   2.035208      Pd2     -C7      :   2.055169
 N3      -H15     :   1.015042      N3      -C19     :   1.386213
 C4      -C5      :   1.389416      C4      -C9      :   1.388995
 C4      -F10     :   1.353331      C5      -C6      :   1.393056
 C5      -H11     :   1.086164      C6      -C7      :   1.408495
 C6      -H12     :   1.084098      C7      -C8      :   1.405484
 C8      -C9      :   1.393822      C8      -H13     :   1.085067
 C9      -H14     :   1.086092      C16     -C17     :   1.396697
 C16     -C21     :   1.396864      C16     -H22     :   1.086538
 C17     -C18     :   1.391156      C17     -H23     :   1.087718
 C18     -C19     :   1.408292      C18     -H24     :   1.088681
 C19     -C20     :   1.408407      C20     -C21     :   1.391327
 C20     -H25     :   1.088427      C21     -H26     :   1.087662
 C27     -C30     :   1.533331      C27     -C34     :   1.537535
 C27     -H55     :   1.098159      C28     -C35     :   1.536032
 C28     -C39     :   1.535983      C28     -H66     :   1.099269
 C29     -C40     :   1.404462      C29     -C44     :   1.411675
 C30     -C31     :   1.533031      C30     -H56     :   1.098761
 C30     -H57     :   1.095728      C31     -C32     :   1.529557
 C31     -H58     :   1.100350      C31     -H59     :   1.097641
 C32     -C33     :   1.529626      C32     -H60     :   1.100333
 C32     -H61     :   1.097500      C33     -C34     :   1.531211
 C33     -H62     :   1.100185      C33     -H63     :   1.097628
 C34     -H64     :   1.097918      C34     -H65     :   1.098708
 C35     -C36     :   1.532051      C35     -H67     :   1.096260
 C35     -H68     :   1.097946      C36     -C37     :   1.529666
 C36     -H69     :   1.097762      C36     -H70     :   1.100796
 C37     -C38     :   1.529390      C37     -H71     :   1.097715
 C37     -H72     :   1.098524      C38     -C39     :   1.530577
 C38     -H73     :   1.097543      C38     -H74     :   1.100937
 C39     -H75     :   1.096230      C39     -H76     :   1.096702
 C40     -C41     :   1.391437      C40     -H77     :   1.085344
 C41     -C42     :   1.393356      C41     -H78     :   1.086795
 C42     -C43     :   1.390292      C42     -H79     :   1.086859
 C43     -C44     :   1.402479      C43     -H80     :   1.086661
 C44     -C45     :   1.491262      C45     -C46     :   1.407541
 C45     -C50     :   1.406822      C46     -C47     :   1.399759
 C46     -O53     :   1.360750      C47     -C48     :   1.392207
 C47     -H81     :   1.083757      C48     -C49     :   1.390996
 C48     -H82     :   1.086648      C49     -C50     :   1.400241
 C49     -H83     :   1.083086      C50     -O51     :   1.359915
 O51     -C52     :   1.416938      C52     -H84     :   1.090989
 C52     -H85     :   1.097521      C52     -H86     :   1.097372
 O53     -C54     :   1.417177      C54     -H87     :   1.098099
 C54     -H88     :   1.091019      C54     -H89     :   1.097614
 
  bond angles:
 
 C27     -P1      -Pd2     : 114.131348  C28     -P1      -Pd2     : 114.855509
 C28     -P1      -C27     : 106.408681  C29     -P1      -Pd2     : 114.915601
 C29     -P1      -C27     : 101.557493  C29     -P1      -C28     : 103.534051
 N3      -Pd2     -P1      : 171.354983  C7      -Pd2     -P1      : 115.165993
 C7      -Pd2     -N3      :  56.248929  H15     -N3      -Pd2     : 116.311079
 C19     -N3      -Pd2     : 130.498491  C19     -N3      -H15     : 113.098063
 C9      -C4      -C5      : 121.385110  F10     -C4      -C5      : 119.330037
 F10     -C4      -C9      : 119.284751  C6      -C5      -C4      : 119.107748
 H11     -C5      -C4      : 119.789352  H11     -C5      -C6      : 121.098643
 C7      -C6      -C5      : 120.748090  H12     -C6      -C5      : 119.471554
 H12     -C6      -C7      : 119.696908  C6      -C7      -Pd2     : 114.547489
 C8      -C7      -Pd2     : 120.460971  C8      -C7      -C6      : 118.761812
 C9      -C8      -C7      : 120.452661  H13     -C8      -C7      : 120.120086
 H13     -C8      -C9      : 119.425402  C8      -C9      -C4      : 119.451999
 H14     -C9      -C4      : 119.572325  H14     -C9      -C8      : 120.974106
 C21     -C16     -C17     : 119.015732  H22     -C16     -C17     : 120.510177
 H22     -C16     -C21     : 120.474020  C18     -C17     -C16     : 120.700739
 H23     -C17     -C16     : 120.000635  H23     -C17     -C18     : 119.293395
 C19     -C18     -C17     : 120.659579  H24     -C18     -C17     : 120.961368
 H24     -C18     -C19     : 118.375733  C18     -C19     -N3      : 120.578777
 C20     -C19     -N3      : 121.150674  C20     -C19     -C18     : 118.264752
 C21     -C20     -C19     : 120.632796  H25     -C20     -C19     : 119.252872
 H25     -C20     -C21     : 120.114239  C20     -C21     -C16     : 120.708633
 H26     -C21     -C16     : 120.006368  H26     -C21     -C20     : 119.279903
 C30     -C27     -P1      : 115.943038  C34     -C27     -P1      : 111.476567
 C34     -C27     -C30     : 111.221375  H55     -C27     -P1      : 101.879590
 H55     -C27     -C30     : 107.995746  H55     -C27     -C34     : 107.531929
 C35     -C28     -P1      : 110.415883  C39     -C28     -P1      : 110.344663
 C39     -C28     -C35     : 110.418046  H66     -C28     -P1      : 108.832360
 H66     -C28     -C35     : 108.022931  H66     -C28     -C39     : 108.743177
 C40     -C29     -P1      : 119.973798  C44     -C29     -P1      : 121.530013
 C44     -C29     -C40     : 118.491682  C31     -C30     -C27     : 110.965139
 H56     -C30     -C27     : 109.940038  H56     -C30     -C31     : 108.756870
 H57     -C30     -C27     : 110.447200  H57     -C30     -C31     : 109.571694
 H57     -C30     -H56     : 107.064498  C32     -C31     -C30     : 111.312057
 H58     -C31     -C30     : 109.064236  H58     -C31     -C32     : 109.289448
 H59     -C31     -C30     : 109.791164  H59     -C31     -C32     : 110.548415
 H59     -C31     -H58     : 106.713963  C33     -C32     -C31     : 110.799774
 H60     -C32     -C31     : 109.147155  H60     -C32     -C33     : 109.173033
 H61     -C32     -C31     : 110.445488  H61     -C32     -C33     : 110.434992
 H61     -C32     -H60     : 106.738120  C34     -C33     -C32     : 111.462810
 H62     -C33     -C32     : 109.011730  H62     -C33     -C34     : 109.118621
 H63     -C33     -C32     : 110.624628  H63     -C33     -C34     : 109.863436
 H63     -C33     -H62     : 106.624524  C33     -C34     -C27     : 111.343707
 H64     -C34     -C27     : 109.722393  H64     -C34     -C33     : 110.433684
 H65     -C34     -C27     : 109.906105  H65     -C34     -C33     : 109.204675
 H65     -C34     -H64     : 106.092801  C36     -C35     -C28     : 111.070373
 H67     -C35     -C28     : 110.751561  H67     -C35     -C36     : 109.656459
 H68     -C35     -C28     : 108.644236  H68     -C35     -C36     : 109.641163
 H68     -C35     -H67     : 106.979674  C37     -C36     -C35     : 111.446434
 H69     -C36     -C35     : 109.617759  H69     -C36     -C37     : 110.481461
 H70     -C36     -C35     : 109.143819  H70     -C36     -C37     : 109.363183
 H70     -C36     -H69     : 106.661501  C38     -C37     -C36     : 110.966687
 H71     -C37     -C36     : 110.371812  H71     -C37     -C38     : 110.511044
 H72     -C37     -C36     : 109.099213  H72     -C37     -C38     : 108.753233
 H72     -C37     -H71     : 107.032292  C39     -C38     -C37     : 111.202816
 H73     -C38     -C37     : 110.329857  H73     -C38     -C39     : 109.566134
 H74     -C38     -C37     : 109.429919  H74     -C38     -C39     : 109.407686
 H74     -C38     -H73     : 106.799353  C38     -C39     -C28     : 111.152706
 H75     -C39     -C28     : 108.910267  H75     -C39     -C38     : 109.257332
 H76     -C39     -C28     : 110.378268  H76     -C39     -C38     : 110.201594
 H76     -C39     -H75     : 106.827759  C41     -C40     -C29     : 121.807393
 H77     -C40     -C29     : 119.792702  H77     -C40     -C41     : 118.391587
 C42     -C41     -C40     : 119.523931  H78     -C41     -C40     : 119.896175
 H78     -C41     -C42     : 120.579451  C43     -C42     -C41     : 119.448257
 H79     -C42     -C41     : 120.519646  H79     -C42     -C43     : 120.030348
 C44     -C43     -C42     : 121.678228  H80     -C43     -C42     : 119.955925
 H80     -C43     -C44     : 118.363376  C43     -C44     -C29     : 119.042828
 C45     -C44     -C29     : 124.503913  C45     -C44     -C43     : 116.440725
 C46     -C45     -C44     : 119.724918  C50     -C45     -C44     : 121.695316
 C50     -C45     -C46     : 118.344058  C47     -C46     -C45     : 121.036295
 O53     -C46     -C45     : 115.365223  O53     -C46     -C47     : 123.582664
 C48     -C47     -C46     : 119.020591  H81     -C47     -C46     : 121.077588
 H81     -C47     -C48     : 119.901817  C49     -C48     -C47     : 121.497268
 H82     -C48     -C47     : 119.282384  H82     -C48     -C49     : 119.220347
 C50     -C49     -C48     : 119.005897  H83     -C49     -C48     : 119.832017
 H83     -C49     -C50     : 121.157564  C49     -C50     -C45     : 121.077400
 O51     -C50     -C45     : 115.253824  O51     -C50     -C49     : 123.665284
 C52     -O51     -C50     : 118.152251  H84     -C52     -O51     : 105.790187
 H85     -C52     -O51     : 111.169448  H85     -C52     -H84     : 109.353953
 H86     -C52     -O51     : 111.620932  H86     -C52     -H84     : 109.117454
 H86     -C52     -H85     : 109.684819  C54     -O53     -C46     : 118.426041
 H87     -C54     -O53     : 111.874646  H88     -C54     -O53     : 105.744184
 H88     -C54     -H87     : 108.957339  H89     -C54     -O53     : 111.374067
 H89     -C54     -H87     : 109.254706  H89     -C54     -H88     : 109.544291
 
  torsional angles:
 
 P1      -Pd2     -N3      -H15     : -79.804165
 P1      -Pd2     -N3      -C19     : 103.975156
 P1      -Pd2     -C7      -C6      : -75.068804
 P1      -Pd2     -C7      -C8      :  76.852065
 P1      -C27     -C30     -C31     : 176.161556
 P1      -C27     -C30     -H56     : -63.486053
 P1      -C27     -C30     -H57     :  54.445187
 P1      -C27     -C34     -C33     :-174.273562
 P1      -C27     -C34     -H64     : -51.707261
 P1      -C27     -C34     -H65     :  64.587902
 P1      -C28     -C35     -C36     : 178.276281
 P1      -C28     -C35     -H67     : -59.618932
 P1      -C28     -C35     -H68     :  57.602280
 P1      -C28     -C39     -C38     :-178.655625
 P1      -C28     -C39     -H75     : -58.233533
 P1      -C28     -C39     -H76     :  58.747647
 P1      -C29     -C40     -C41     :-178.392892
 P1      -C29     -C40     -H77     :   2.673437
 P1      -C29     -C44     -C43     : 178.329551
 P1      -C29     -C44     -C45     :  -3.006491
 Pd2     -P1      -C27     -C30     : 159.903730
 Pd2     -P1      -C27     -C34     :  31.296420
 Pd2     -P1      -C27     -H55     : -83.132400
 Pd2     -P1      -C28     -C35     : -57.732511
 Pd2     -P1      -C28     -C39     :  64.613573
 Pd2     -P1      -C28     -H66     :-176.140940
 Pd2     -P1      -C29     -C40     :-161.828017
 Pd2     -P1      -C29     -C44     :  18.956059
 Pd2     -N3      -C19     -C18     :   4.672714
 Pd2     -N3      -C19     -C20     :-174.436106
 Pd2     -C7      -C6      -C5      : 149.014024
 Pd2     -C7      -C6      -H12     : -27.646820
 Pd2     -C7      -C8      -C9      :-147.514766
 Pd2     -C7      -C8      -H13     :  31.987440
 N3      -Pd2     -P1      -C27     :-152.713701
 N3      -Pd2     -P1      -C28     : -29.438690
 N3      -Pd2     -P1      -C29     :  90.532453
 N3      -Pd2     -C7      -C6      : 103.761900
 N3      -Pd2     -C7      -C8      :-104.317231
 N3      -C19     -C18     -C17     :-178.973329
 N3      -C19     -C18     -H24     :   1.683195
 N3      -C19     -C20     -C21     :-179.833059
 N3      -C19     -C20     -H25     :   0.056264
 C4      -C5      -C6      -C7      :   1.368393
 C4      -C5      -C6      -H12     : 178.036694
 C4      -C9      -C8      -C7      :  -1.054301
 C4      -C9      -C8      -H13     : 179.440052
 C5      -C4      -C9      -C8      :  -1.070943
 C5      -C4      -C9      -H14     : 179.380512
 C5      -C6      -C7      -C8      :  -3.416559
 C6      -C5      -C4      -C9      :   0.912923
 C6      -C5      -C4      -F10     :-179.203855
 C6      -C7      -C8      -C9      :   3.249512
 C6      -C7      -C8      -H13     :-177.248282
 C7      -Pd2     -P1      -C27     :-146.232316
 C7      -Pd2     -P1      -C28     : -22.957305
 C7      -Pd2     -P1      -C29     :  97.013838
 C7      -Pd2     -N3      -H15     : -86.862235
 C7      -Pd2     -N3      -C19     :  96.917086
 C7      -C6      -C5      -H11     :-177.879393
 C7      -C8      -C9      -H14     : 178.487750
 C8      -C7      -C6      -H12     : 179.922596
 C8      -C9      -C4      -F10     : 179.045783
 C9      -C4      -C5      -H11     :-179.829255
 F10     -C4      -C5      -H11     :   0.053967
 F10     -C4      -C9      -H14     :  -0.502762
 H11     -C5      -C6      -H12     :  -1.211092
 H13     -C8      -C9      -H14     :  -1.017897
 H15     -N3      -C19     -C18     :-171.644383
 H15     -N3      -C19     -C20     :   9.246797
 C16     -C17     -C18     -C19     :  -0.987094
 C16     -C17     -C18     -H24     : 178.339281
 C16     -C21     -C20     -C19     :  -1.431511
 C16     -C21     -C20     -H25     : 178.680119
 C17     -C16     -C21     -C20     :   0.596982
 C17     -C16     -C21     -H26     : 179.769892
 C17     -C18     -C19     -C20     :   0.160747
 C18     -C17     -C16     -C21     :   0.607894
 C18     -C17     -C16     -H22     :-179.295973
 C18     -C19     -C20     -C21     :   1.038047
 C18     -C19     -C20     -H25     :-179.072630
 C19     -C18     -C17     -H23     : 179.844872
 C19     -C20     -C21     -H26     : 179.389633
 C20     -C19     -C18     -H24     :-179.182729
 C20     -C21     -C16     -H22     :-179.499116
 C21     -C16     -C17     -H23     : 179.770061
 H22     -C16     -C17     -H23     :  -0.133805
 H22     -C16     -C21     -H26     :  -0.326206
 H23     -C17     -C18     -H24     :  -0.828753
 H25     -C20     -C21     -H26     :  -0.498738
 C27     -P1      -C28     -C35     :  69.576324
 C27     -P1      -C28     -C39     :-168.077591
 C27     -P1      -C28     -H66     : -48.832105
 C27     -P1      -C29     -C40     :  74.453959
 C27     -P1      -C29     -C44     :-104.761965
 C27     -C30     -C31     -C32     :  56.201467
 C27     -C30     -C31     -H58     : -64.461472
 C27     -C30     -C31     -H59     : 178.939667
 C27     -C34     -C33     -C32     : -55.061746
 C27     -C34     -C33     -H62     :  65.386255
 C27     -C34     -C33     -H63     :-178.050301
 C28     -P1      -C27     -C30     :  32.165299
 C28     -P1      -C27     -C34     : -96.442011
 C28     -P1      -C27     -H55     : 149.129169
 C28     -P1      -C29     -C40     : -35.776218
 C28     -P1      -C29     -C44     : 145.007858
 C28     -C35     -C36     -C37     : -55.890079
 C28     -C35     -C36     -H69     :-178.513728
 C28     -C35     -C36     -H70     :  65.003083
 C28     -C39     -C38     -C37     :  56.362671
 C28     -C39     -C38     -H73     : 178.595798
 C28     -C39     -C38     -H74     : -64.633031
 C29     -P1      -C27     -C30     : -75.847460
 C29     -P1      -C27     -C34     : 155.545230
 C29     -P1      -C27     -H55     :  41.116409
 C29     -P1      -C28     -C35     : 176.177423
 C29     -P1      -C28     -C39     : -61.476493
 C29     -P1      -C28     -H66     :  57.768994
 C29     -C40     -C41     -C42     :  -0.136221
 C29     -C40     -C41     -H78     :-179.895609
 C29     -C44     -C43     -C42     :   0.268799
 C29     -C44     -C43     -H80     : 179.696346
 C29     -C44     -C45     -C46     :-110.590993
 C29     -C44     -C45     -C50     :  75.080231
 C30     -C27     -C34     -C33     :  54.648064
 C30     -C27     -C34     -H64     : 177.214365
 C30     -C27     -C34     -H65     : -66.490472
 C30     -C31     -C32     -C33     : -56.387904
 C30     -C31     -C32     -H60     :  63.862522
 C30     -C31     -C32     -H61     :-179.085640
 C31     -C30     -C27     -C34     : -55.106494
 C31     -C30     -C27     -H55     :  62.662502
 C31     -C32     -C33     -C34     :  55.794922
 C31     -C32     -C33     -H62     : -64.715846
 C31     -C32     -C33     -H63     : 178.347374
 C32     -C31     -C30     -H56     : -64.850599
 C32     -C31     -C30     -H57     : 178.428623
 C32     -C33     -C34     -H64     :-177.217756
 C32     -C33     -C34     -H65     :  66.485884
 C33     -C32     -C31     -H58     :  64.142577
 C33     -C32     -C31     -H59     :-178.689811
 C33     -C34     -C27     -H55     : -63.401467
 C34     -C27     -C30     -H56     :  65.245897
 C34     -C27     -C30     -H57     :-176.822863
 C34     -C33     -C32     -H60     : -64.440081
 C34     -C33     -C32     -H61     : 178.498751
 C35     -C28     -C39     -C38     : -56.310811
 C35     -C28     -C39     -H75     :  64.111281
 C35     -C28     -C39     -H76     :-178.907540
 C35     -C36     -C37     -C38     :  55.436719
 C35     -C36     -C37     -H71     : 178.295015
 C35     -C36     -C37     -H72     : -64.367157
 C36     -C35     -C28     -C39     :  55.973282
 C36     -C35     -C28     -H66     : -62.821761
 C36     -C37     -C38     -C39     : -55.588127
 C36     -C37     -C38     -H73     :-177.377853
 C36     -C37     -C38     -H74     :  65.394526
 C37     -C36     -C35     -H67     :-178.629376
 C37     -C36     -C35     -H68     :  64.193586
 C37     -C38     -C39     -H75     : -63.854101
 C37     -C38     -C39     -H76     : 179.061348
 C38     -C37     -C36     -H69     : 177.563192
 C38     -C37     -C36     -H70     : -65.328059
 C38     -C39     -C28     -H66     :  62.044764
 C39     -C28     -C35     -H67     : 178.078069
 C39     -C28     -C35     -H68     : -64.700719
 C39     -C38     -C37     -H71     :-178.365954
 C39     -C38     -C37     -H72     :  64.421999
 C40     -C29     -C44     -C43     :  -0.897644
 C40     -C29     -C44     -C45     : 177.766315
 C40     -C41     -C42     -C43     :  -0.515706
 C40     -C41     -C42     -H79     : 179.965281
 C41     -C40     -C29     -C44     :   0.846692
 C41     -C42     -C43     -C44     :   0.449816
 C41     -C42     -C43     -H80     :-178.968783
 C42     -C41     -C40     -H77     : 178.811863
 C42     -C43     -C44     -C45     :-178.501577
 C43     -C42     -C41     -H78     : 179.242003
 C43     -C44     -C45     -C46     :  68.104512
 C43     -C44     -C45     -C50     :-106.224264
 C44     -C29     -C40     -H77     :-178.086978
 C44     -C43     -C42     -H79     : 179.971221
 C44     -C45     -C46     -C47     :-176.147388
 C44     -C45     -C46     -O53     :   5.249097
 C44     -C45     -C50     -C49     : 175.561579
 C44     -C45     -C50     -O51     :  -3.782764
 C45     -C44     -C43     -H80     :   0.925970
 C45     -C46     -C47     -C48     :   0.989530
 C45     -C46     -C47     -H81     :-178.991231
 C45     -C46     -O53     -C54     :-171.774816
 C45     -C50     -C49     -C48     :  -0.055422
 C45     -C50     -C49     -H83     : 179.169581
 C45     -C50     -O51     -C52     :-173.080176
 C46     -C45     -C50     -C49     :   1.157191
 C46     -C45     -C50     -O51     :-178.187151
 C46     -C47     -C48     -C49     :   0.161364
 C46     -C47     -C48     -H82     :-179.825137
 C46     -O53     -C54     -H87     : -66.500887
 C46     -O53     -C54     -H88     : 175.015971
 C46     -O53     -C54     -H89     :  56.096293
 C47     -C46     -C45     -C50     :  -1.629490
 C47     -C46     -O53     -C54     :   9.661492
 C47     -C48     -C49     -C50     :  -0.622311
 C47     -C48     -C49     -H83     :-179.857802
 C48     -C47     -C46     -O53     : 179.474830
 C48     -C49     -C50     -O51     : 179.232090
 C49     -C48     -C47     -H81     :-179.857644
 C49     -C50     -O51     -C52     :   7.594531
 C50     -C45     -C46     -O53     : 179.766994
 C50     -C49     -C48     -H82     : 179.364199
 C50     -O51     -C52     -H84     : 176.652354
 C50     -O51     -C52     -H85     :  58.043053
 C50     -O51     -C52     -H86     : -64.780379
 O51     -C50     -C49     -H83     :  -1.542907
 O53     -C46     -C47     -H81     :  -0.505930
 H55     -C27     -C30     -H56     :-176.985106
 H55     -C27     -C30     -H57     : -59.053867
 H55     -C27     -C34     -H64     :  59.164835
 H55     -C27     -C34     -H65     : 175.459998
 H56     -C30     -C31     -H58     : 174.486463
 H56     -C30     -C31     -H59     :  57.887601
 H57     -C30     -C31     -H58     :  57.765685
 H57     -C30     -C31     -H59     : -58.833177
 H58     -C31     -C32     -H60     :-175.606998
 H58     -C31     -C32     -H61     : -58.555159
 H59     -C31     -C32     -H60     : -58.439386
 H59     -C31     -C32     -H61     :  58.612453
 H60     -C32     -C33     -H62     : 175.049151
 H60     -C32     -C33     -H63     :  58.112371
 H61     -C32     -C33     -H62     :  57.987983
 H61     -C32     -C33     -H63     : -58.948797
 H62     -C33     -C34     -H64     : -56.769754
 H62     -C33     -C34     -H65     :-173.066114
 H63     -C33     -C34     -H64     :  59.793689
 H63     -C33     -C34     -H65     : -56.502671
 H66     -C28     -C35     -H67     :  59.283027
 H66     -C28     -C35     -H68     : 176.504238
 H66     -C28     -C39     -H75     :-177.533143
 H66     -C28     -C39     -H76     : -60.551964
 H67     -C35     -C36     -H69     :  58.746975
 H67     -C35     -C36     -H70     : -57.736215
 H68     -C35     -C36     -H69     : -58.430062
 H68     -C35     -C36     -H70     :-174.913252
 H69     -C36     -C37     -H71     : -59.578512
 H69     -C36     -C37     -H72     :  57.759316
 H70     -C36     -C37     -H71     :  57.530237
 H70     -C36     -C37     -H72     : 174.868065
 H71     -C37     -C38     -H73     :  59.844320
 H71     -C37     -C38     -H74     : -57.383301
 H72     -C37     -C38     -H73     : -57.367727
 H72     -C37     -C38     -H74     :-174.595348
 H73     -C38     -C39     -H75     :  58.379026
 H73     -C38     -C39     -H76     : -58.705525
 H74     -C38     -C39     -H75     : 175.150196
 H74     -C38     -C39     -H76     :  58.065646
 H77     -C40     -C41     -H78     :  -0.947525
 H78     -C41     -C42     -H79     :  -0.277010
 H79     -C42     -C43     -H80     :   0.552622
 H81     -C47     -C48     -H82     :   0.155854
 H82     -C48     -C49     -H83     :   0.128707
 
  nuclear repulsion energy.......          6498.033556341 hartrees
  
  Detected an organometallic with only one TM atom. 
  
  Oxidation state on metal       2 is     2
  Formal multiplet on metal      2 is     1
  Formal charge on ligand        3 is    -1
  Formal multiplet on ligand     3 is     1
  Formal charge on ligand        4 is    -1
  Formal multiplet on ligand     4 is     1
  
 
  Will use High-Quality Initial guess for organometallics
       including d-d repulsion (iguess=30)
 
 Non-default options chosen:
   SCF calculation type: DFT(b3pw91-d3)              
   DFT=Becke_3_Parameter/HF+Slater+Becke88+PW91+PW-GGAIIC (B3PW91-D3)
   Transition state optimization
   Geometry will be optimized in redundant internal coordinates
   Culot/Fletcher trust radius adjustment
      initial trust radius:  0.100
   P-RFO level-shifting used
   Solvation energy will be computed using PBF
     -solute cavity energy will not be included
     -surface area terms will not be included
   Vibrational frequencies and related properties will be computed
      from analytic second derivatives
   IR intensities will be computed
   Thermochemical properties will be computed
   Maximum number of geometry steps: 100
   Scaling standard convergence criteria by a factor of   5.00
   Mixed Murtagh-Sargent/Powell Hessian-updating used
   Solvent: benzene                                                         
   Internal dielectric constant:    1.000
   Continuum dielectric constant:   2.283
   Solvent probe molecule radius:   2.600
  
 Non-default print settings:
     11=  2
  
 Temporary integer options set:
     21= -1  73=  2
  
  atom       vdw   vdw2    cov     mass  grid  daf  charge   basis
  P1        2.147  2.074  1.060   30.974    Y    Y      Y    ps_6-31g*
  Pd2       1.450  1.450  1.280  105.903    Y    Y      Y    lacv3p*
  N3        1.831  1.600  0.750   14.003    Y    Y      Y    ps_6-31g*
  C4        1.949  1.900  0.770   12.000    Y    Y      Y    ps_6-31g*
  C5        1.949  1.900  0.770   12.000    Y    Y      Y    ps_6-31g*
  C6        1.949  1.900  0.770   12.000    Y    Y      Y    ps_6-31g*
  C7        1.949  1.900  0.770   12.000    Y    Y      Y    ps_6-31g*
  C8        1.949  1.900  0.770   12.000    Y    Y      Y    ps_6-31g*
  C9        1.949  1.900  0.770   12.000    Y    Y      Y    ps_6-31g*
  F10       1.736  1.682  0.720   18.998    Y    Y      Y    ps_6-31g*
  H11       1.597  1.150  0.320    1.008    Y    Y      Y    ps_6-31g*
  H12       1.597  1.150  0.320    1.008    Y    Y      Y    ps_6-31g*
  H13       1.597  1.150  0.320    1.008    Y    Y      Y    ps_6-31g*
  H14       1.597  1.150  0.320    1.008    Y    Y      Y    ps_6-31g*
  H15       1.597  1.150  0.320    1.008    Y    Y      Y    ps_6-31g*
  C16       1.949  1.900  0.770   12.000    Y    Y      Y    ps_6-31g*
  C17       1.949  1.900  0.770   12.000    Y    Y      Y    ps_6-31g*
  C18       1.949  1.900  0.770   12.000    Y    Y      Y    ps_6-31g*
  C19       1.949  1.900  0.770   12.000    Y    Y      Y    ps_6-31g*
  C20       1.949  1.900  0.770   12.000    Y    Y      Y    ps_6-31g*
  C21       1.949  1.900  0.770   12.000    Y    Y      Y    ps_6-31g*
  H22       1.597  1.150  0.320    1.008    Y    Y      Y    ps_6-31g*
  H23       1.597  1.150  0.320    1.008    Y    Y      Y    ps_6-31g*
  H24       1.597  1.150  0.320    1.008    Y    Y      Y    ps_6-31g*
  H25       1.597  1.150  0.320    1.008    Y    Y      Y    ps_6-31g*
  H26       1.597  1.150  0.320    1.008    Y    Y      Y    ps_6-31g*
  C27       1.949  1.900  0.770   12.000    Y    Y      Y    ps_6-31g*
  C28       1.949  1.900  0.770   12.000    Y    Y      Y    ps_6-31g*
  C29       1.949  1.900  0.770   12.000    Y    Y      Y    ps_6-31g*
  C30       1.949  1.900  0.770   12.000    Y    Y      Y    ps_6-31g*
  C31       1.949  1.900  0.770   12.000    Y    Y      Y    ps_6-31g*
  C32       1.949  1.900  0.770   12.000    Y    Y      Y    ps_6-31g*
  C33       1.949  1.900  0.770   12.000    Y    Y      Y    ps_6-31g*
  C34       1.949  1.900  0.770   12.000    Y    Y      Y    ps_6-31g*
  C35       1.949  1.900  0.770   12.000    Y    Y      Y    ps_6-31g*
  C36       1.949  1.900  0.770   12.000    Y    Y      Y    ps_6-31g*
  C37       1.949  1.900  0.770   12.000    Y    Y      Y    ps_6-31g*
  C38       1.949  1.900  0.770   12.000    Y    Y      Y    ps_6-31g*
  C39       1.949  1.900  0.770   12.000    Y    Y      Y    ps_6-31g*
  C40       1.949  1.900  0.770   12.000    Y    Y      Y    ps_6-31g*
  C41       1.949  1.900  0.770   12.000    Y    Y      Y    ps_6-31g*
  C42       1.949  1.900  0.770   12.000    Y    Y      Y    ps_6-31g*
  C43       1.949  1.900  0.770   12.000    Y    Y      Y    ps_6-31g*
  C44       1.949  1.900  0.770   12.000    Y    Y      Y    ps_6-31g*
  C45       1.949  1.900  0.770   12.000    Y    Y      Y    ps_6-31g*
  C46       1.949  1.900  0.770   12.000    Y    Y      Y    ps_6-31g*
  C47       1.949  1.900  0.770   12.000    Y    Y      Y    ps_6-31g*
  C48       1.949  1.900  0.770   12.000    Y    Y      Y    ps_6-31g*
  C49       1.949  1.900  0.770   12.000    Y    Y      Y    ps_6-31g*
  C50       1.949  1.900  0.770   12.000    Y    Y      Y    ps_6-31g*
  O51       1.702  1.600  0.730   15.995    Y    Y      Y    ps_6-31g*
  C52       1.949  1.900  0.770   12.000    Y    Y      Y    ps_6-31g*
  O53       1.702  1.600  0.730   15.995    Y    Y      Y    ps_6-31g*
  C54       1.949  1.900  0.770   12.000    Y    Y      Y    ps_6-31g*
  H55       1.597  1.150  0.320    1.008    Y    Y      Y    ps_6-31g*
  H56       1.597  1.150  0.320    1.008    Y    Y      Y    ps_6-31g*
  H57       1.597  1.150  0.320    1.008    Y    Y      Y    ps_6-31g*
  H58       1.597  1.150  0.320    1.008    Y    Y      Y    ps_6-31g*
  H59       1.597  1.150  0.320    1.008    Y    Y      Y    ps_6-31g*
  H60       1.597  1.150  0.320    1.008    Y    Y      Y    ps_6-31g*
  H61       1.597  1.150  0.320    1.008    Y    Y      Y    ps_6-31g*
  H62       1.597  1.150  0.320    1.008    Y    Y      Y    ps_6-31g*
  H63       1.597  1.150  0.320    1.008    Y    Y      Y    ps_6-31g*
  H64       1.597  1.150  0.320    1.008    Y    Y      Y    ps_6-31g*
  H65       1.597  1.150  0.320    1.008    Y    Y      Y    ps_6-31g*
  H66       1.597  1.150  0.320    1.008    Y    Y      Y    ps_6-31g*
  H67       1.597  1.150  0.320    1.008    Y    Y      Y    ps_6-31g*
  H68       1.597  1.150  0.320    1.008    Y    Y      Y    ps_6-31g*
  H69       1.597  1.150  0.320    1.008    Y    Y      Y    ps_6-31g*
  H70       1.597  1.150  0.320    1.008    Y    Y      Y    ps_6-31g*
  H71       1.597  1.150  0.320    1.008    Y    Y      Y    ps_6-31g*
  H72       1.597  1.150  0.320    1.008    Y    Y      Y    ps_6-31g*
  H73       1.597  1.150  0.320    1.008    Y    Y      Y    ps_6-31g*
  H74       1.597  1.150  0.320    1.008    Y    Y      Y    ps_6-31g*
  H75       1.597  1.150  0.320    1.008    Y    Y      Y    ps_6-31g*
  H76       1.597  1.150  0.320    1.008    Y    Y      Y    ps_6-31g*
  H77       1.597  1.150  0.320    1.008    Y    Y      Y    ps_6-31g*
  H78       1.597  1.150  0.320    1.008    Y    Y      Y    ps_6-31g*
  H79       1.597  1.150  0.320    1.008    Y    Y      Y    ps_6-31g*
  H80       1.597  1.150  0.320    1.008    Y    Y      Y    ps_6-31g*
  H81       1.597  1.150  0.320    1.008    Y    Y      Y    ps_6-31g*
  H82       1.597  1.150  0.320    1.008    Y    Y      Y    ps_6-31g*
  H83       1.597  1.150  0.320    1.008    Y    Y      Y    ps_6-31g*
  H84       1.597  1.150  0.320    1.008    Y    Y      Y    ps_6-31g*
  H85       1.597  1.150  0.320    1.008    Y    Y      Y    ps_6-31g*
  H86       1.597  1.150  0.320    1.008    Y    Y      Y    ps_6-31g*
  H87       1.597  1.150  0.320    1.008    Y    Y      Y    ps_6-31g*
  H88       1.597  1.150  0.320    1.008    Y    Y      Y    ps_6-31g*
  H89       1.597  1.150  0.320    1.008    Y    Y      Y    ps_6-31g*
 
  atom      formal  2spin      esp    mulk    frag
  P1           0       0        Y    0.000       0
  Pd2          2       0        Y    0.000       0
  N3          -1       0        Y    0.000       0
  C4          -1       0        Y    0.000       0
  
  end of program pre
   
 Time(pre)  user:       4.672  user+sys:       4.672  wallclock:       3.085
  
  start of program onee
  
  smallest eigenvalue of S:    3.755E-04
  number of canonical orbitals.....          724
  end of program onee
   
 Time(onee)  user:       7.575  user+sys:       7.575  wallclock:       1.395
  
  start of program hfig
  
  initial wavefunction generated automatically from atomic wavefunctions
  Only one state below 0.010000
  Skip d-d repulsion considerations 
 
  Irreducible     Total no   No of occupied orbitals 
  representation  orbitals   Shell_1  Shell_2    ...
  No Symm          724        169
  ------------------------
  Orbital occupation/shell    1.000
 
  end of program hfig
   
 Time(hfig)  user:       2.572  user+sys:       2.572  wallclock:       1.220
  
  start of program probe
  
  end of program probe
   
 Time(probe)  user:       1.273  user+sys:       1.273  wallclock:       0.492
  
  start of program grid
  
   grid     grid set  grid #  grid sym
  ------    --------  ------  --------
  coarse        0        0        1
  medium        2        1        1
  fine          0        0        1
  ultrafine     4        2        1
  charge       -1        3        1
  gradient      4        2        1
  density       0        0        1
  DFT-fine    -11        4        1
  DFT-med.    -10        5        1
  DFT-grad    -12        6        1
  DFT-der2     -8        7        1
  DFT-cphf     -9        8        1
  LMP2-enrg     4        2        1
  LMP2-grad     2        1        1
  DFT-cphf2   -15        9        1
  PBF-dens      0        0        1
  plotting      0        0        1
  Rel-grad    -17        0        1
  
  number of gridpoints: 
     atom           P1         Pd2          N3          C4          C5          C6          C7
  grid # 1         606         359         104          79          93          94          99
  grid # 2         426         328         370         331         320         324         369
  grid # 3           6         245          19          34          25          19          11
  grid # 4        8714        8714        8714        8714        8714        8714        8714
  grid # 5        1192        1192        1192        1192        1192        1192        1192
  grid # 6        9132        9132        5922        5922        5922        5922        5922
  grid # 7       23034       32968       13958       13950       13950       13950       13950
  grid # 8         722        1150         756         748         748         748         748
  grid # 9         366        2198         406         394         394         394         394
   
  number of gridpoints: 
     atom           C8          C9         F10         H11         H12         H13         H14
  grid # 1          94          93         583         115         104         110         114
  grid # 2         322         320         565         459         425         440         455
  grid # 3          17          25         326         351          78         158         334
  grid # 4        8714        8714        8714        8714        8714        8714        8714
  grid # 5        1192        1192        1192        1192        1192        1192        1192
  grid # 6        5922        5922        5922        5922        5922        5922        5922
  grid # 7       13950       13950       23190       15206       15206       15206       15206
  grid # 8         748         748         770         786         786         786         786
  grid # 9         394         394         420         420         420         420         420
   
  number of gridpoints: 
     atom          H15         C16         C17         C18         C19         C20         C21
  grid # 1         108          97          96          96          96          96          97
  grid # 2         424         325         326         323         354         327         326
  grid # 3         110          50          43          30          32          42          51
  grid # 4        8714        8714        8714        8714        8714        8714        8714
  grid # 5        1192        1192        1192        1192        1192        1192        1192
  grid # 6        5922        5922        5922        5922        5922        5922        5922
  grid # 7       15206       13950       13950       13950       13950       13950       13950
  grid # 8         786         748         748         748         748         748         748
  grid # 9         420         394         394         394         394         394         394
   
  number of gridpoints: 
     atom          H22         H23         H24         H25         H26         C27         C28
  grid # 1         118         118         112         116         118          81          79
  grid # 2         467         466         446         456         467         328         327
  grid # 3         424         410         176         336         419           6           6
  grid # 4        8714        8714        8714        8714        8714        8714        8714
  grid # 5        1192        1192        1192        1192        1192        1192        1192
  grid # 6        5922        5922        5922        5922        5922        5922        5922
  grid # 7       15206       15206       15206       15206       15206       13950       13950
  grid # 8         786         786         786         786         786         748         748
  grid # 9         420         420         420         420         420         394         394
   
  number of gridpoints: 
     atom          C29         C30         C31         C32         C33         C34         C35
  grid # 1          95          92          92          92          92          90          90
  grid # 2         385         277         277         278         278         280         280
  grid # 3          14           6           6           6           6           6           6
  grid # 4        8714        8714        8714        8714        8714        8714        8714
  grid # 5        1192        1192        1192        1192        1192        1192        1192
  grid # 6        5922        5922        5922        5922        5922        5922        5922
  grid # 7       13950       13950       13950       13950       13950       13950       13950
  grid # 8         748         748         748         748         748         748         748
  grid # 9         394         394         394         394         394         394         394
   
  number of gridpoints: 
     atom          C36         C37         C38         C39         C40         C41         C42
  grid # 1          92          92          92          90          93          96          97
  grid # 2         277         278         279         280         325         324         325
  grid # 3           6           6           6           6          22          41          48
  grid # 4        8714        8714        8714        8714        8714        8714        8714
  grid # 5        1192        1192        1192        1192        1192        1192        1192
  grid # 6        5922        5922        5922        5922        5922        5922        5922
  grid # 7       13950       13950       13950       13950       13950       13950       13950
  grid # 8         748         748         748         748         748         748         748
  grid # 9         394         394         394         394         394         394         394
   
  number of gridpoints: 
     atom          C43         C44         C45         C46         C47         C48         C49
  grid # 1          96          98          99          91          95          95          95
  grid # 2         326         359         361         343         321         326         323
  grid # 3          33          18          11          16          26          30          30
  grid # 4        8714        8714        8714        8714        8714        8714        8714
  grid # 5        1192        1192        1192        1192        1192        1192        1192
  grid # 6        5922        5922        5922        5922        5922        5922        5922
  grid # 7       13950       13950       13950       13950       13950       13950       13950
  grid # 8         748         748         748         748         748         748         748
  grid # 9         394         394         394         394         394         394         394
   
  number of gridpoints: 
     atom          C50         O51         C52         O53         C54         H55         H56
  grid # 1          91         118          74         118          75         101         106
  grid # 2         345         449         227         448         230         419         431
  grid # 3          27          59           6          55           6          66         117
  grid # 4        8714        8714        8714        8714        8714        8714        8714
  grid # 5        1192        1192        1192        1192        1192        1192        1192
  grid # 6        5922        5922        5922        5922        5922        5922        5922
  grid # 7       13950       23382       13950       23382       13950       15206       15206
  grid # 8         748         774         748         774         748         786         786
  grid # 9         394         416         394         416         394         420         420
   
  number of gridpoints: 
     atom          H57         H58         H59         H60         H61         H62         H63
  grid # 1         105         110         112         110         112         106         112
  grid # 2         434         450         457         452         457         438         457
  grid # 3         156         254         324         258         329         151         322
  grid # 4        8714        8714        8714        8714        8714        8714        8714
  grid # 5        1192        1192        1192        1192        1192        1192        1192
  grid # 6        5922        5922        5922        5922        5922        5922        5922
  grid # 7       15206       15206       15206       15206       15206       15206       15206
  grid # 8         786         786         786         786         786         786         786
  grid # 9         420         420         420         420         420         420         420
   
  number of gridpoints: 
     atom          H64         H65         H66         H67         H68         H69         H70
  grid # 1         102         103          99         102         103         112         110
  grid # 2         431         435         419         423         428         455         450
  grid # 3          95         128          69         109          75         322         255
  grid # 4        8714        8714        8714        8714        8714        8714        8714
  grid # 5        1192        1192        1192        1192        1192        1192        1192
  grid # 6        5922        5922        5922        5922        5922        5922        5922
  grid # 7       15206       15206       15206       15206       15206       15206       15206
  grid # 8         786         786         786         786         786         786         786
  grid # 9         420         420         420         420         420         420         420
   
  number of gridpoints: 
     atom          H71         H72         H73         H74         H75         H76         H77
  grid # 1         112         106         111         110         100         105         103
  grid # 2         456         434         455         451         418         442         431
  grid # 3         331         117         294         260          46         180         140
  grid # 4        8714        8714        8714        8714        8714        8714        8714
  grid # 5        1192        1192        1192        1192        1192        1192        1192
  grid # 6        5922        5922        5922        5922        5922        5922        5922
  grid # 7       15206       15206       15206       15206       15206       15206       15206
  grid # 8         786         786         786         786         786         786         786
  grid # 9         420         420         420         420         420         420         420
   
  number of gridpoints: 
     atom          H78         H79         H80         H81         H82         H83         H84
  grid # 1         118         118         116         110         117         111         106
  grid # 2         467         467         456         440         465         441         442
  grid # 3         419         422         329         224         374         249         223
  grid # 4        8714        8714        8714        8714        8714        8714        8714
  grid # 5        1192        1192        1192        1192        1192        1192        1192
  grid # 6        5922        5922        5922        5922        5922        5922        5922
  grid # 7       15206       15206       15206       15206       15206       15206       15206
  grid # 8         786         786         786         786         786         786         786
  grid # 9         420         420         420         420         420         420         420
   
  number of gridpoints: 
     atom          H85         H86         H87         H88         H89       total
  grid # 1         108         111         107         111         111       10311
  grid # 2         436         451         434         463         451       34553
  grid # 3         177         316         195         372         320       12303
  grid # 4        8714        8714        8714        8714        8714      775546
  grid # 5        1192        1192        1192        1192        1192      106088
  grid # 6        5922        5922        5922        5922        5922      533478
  grid # 7       15206       15206       15206       15206       15206     1354284
  grid # 8         786         786         786         786         786       68740
  grid # 9         420         420         420         420         420       38094
   
  end of program grid
   
 Time(grid)  user:     489.980  user+sys:     489.980  wallclock:      33.480
  
  start of program rwr
  
  end of program rwr
   
 Time(rwr)  user:      41.857  user+sys:      41.857  wallclock:      12.353
  
  start of program scf
  
 number of electrons..........        338
 number of alpha electrons....        169
 number of beta electrons.....        169
 number of orbitals, total....        724
 number of doubly-occ'd orbs..        169
 number of open shell orbs....          0
 number of occupied orbitals..        169
 number of virtual orbitals...        555
 number of hamiltonians.......          1
 number of shells.............          1
 SCF type: DFT=Becke_3_Parameter/HF+Slater+Becke88+PW91+PW-GGAIIC (B3PW91-D3)
 Energy computed using pseudospectral method.
 Convergence Criterion:
    Energy (econv):       1.00E-05
    RMS density (dconv):  5.00E-06
  
       i  u  d  i  g                   
       t  p  i  c  r                                 RMS    maximum
       e  d  i  u  i                       energy  density   DIIS  
       r  t  s  t  d       total energy    change  change    error 
  
etot    1  N  N  5  M   -2241.79586993858           2.0E-03  1.8E-01
etot    2  Y  Y  6  M   -2245.81648982938  4.0E+00  3.2E-03  1.0E-01
etot    3  Y  Y  6  M   -2247.16816680066  1.4E+00  1.2E-03  6.6E-02
etot    4  N  Y  2  U   -2247.41597449585  2.5E-01  1.1E-03  4.8E-02
etot    5  Y  Y  6  M   -2247.53941032584  1.2E-01  6.0E-04  3.0E-02
etot    6  N  Y  2  U   -2247.56136507695  2.2E-02  9.0E-04  1.9E-02
etot    7  Y  Y  6  M   -2247.57090011068  9.5E-03  1.3E-04  5.9E-03
etot    8  N  Y  2  U   -2247.58081094139  9.9E-03  4.5E-05  1.3E-03
etot    9  N  Y  2  U   -2247.58108400424  2.7E-04  9.5E-06  2.9E-04
etot   10  N  Y  2  U   -2247.58109991407  1.6E-05  4.6E-06  1.4E-04
etot   11  N  N  2  U   -2247.58110555654  5.6E-06  0.0E+00  0.0E+00
 
  Computing the dispersion energy correction and its gradients...
  
  
 Energy components, in hartrees:
   (A)  Nuclear repulsion............    6498.03355634146
   (E)  Total one-electron terms.....  -16064.22559441039
   (F)    Electron-nuclear...........  -18219.07913658897
   (H)    Kinetic....................    2154.85354217858
   (I)  Total two-electron terms.....    7318.61093251240
   (J)    Coulomb....................    7611.93304669957
   (K)    Exchange+Correlation.......    -293.32211418717
   (L)  Electronic energy............   -8745.61466189799  (E+I)
   (N0) D3 correction................      -0.16119940960
   (N)  Total energy.................   -2247.74230496614  (A+L+N0)
   (O)  Gas phase energy.............   -2247.74230496614
  
 SCFE: SCF energy: DFT(b3pw91-d3)     -2247.74230496614 hartrees   iterations:  11
  
 
 HOMO energy:    -0.15446
 LUMO energy:    -0.02822
 
  Orbital energies (hartrees): 
   -77.05505   -24.66707   -19.17373   -19.17154   -14.32284   -10.24032
   -10.23894   -10.22976   -10.22441   -10.22376   -10.20249   -10.19106
   -10.19058   -10.18352   -10.18171   -10.17999   -10.17690   -10.17530
   -10.17464   -10.17379   -10.17261   -10.17085   -10.17052   -10.16874
   -10.16463   -10.16249   -10.16236   -10.16217   -10.16163   -10.16144
   -10.16100   -10.15972   -10.15700   -10.15690   -10.15646   -10.15509
   -10.15274   -10.15260   -10.14967   -10.14886   -10.14856   -10.14651
   -10.14597    -6.55658    -4.71468    -4.71413    -4.71106    -3.29492
    -2.03147    -2.01940    -2.00062    -1.19843    -1.08042    -1.07769
    -0.89628    -0.87241    -0.85337    -0.84531    -0.83967    -0.82790
    -0.81874    -0.78911    -0.77015    -0.76424    -0.74667    -0.74499
    -0.74204    -0.74018    -0.73550    -0.73366    -0.73160    -0.72894
    -0.71346    -0.70180    -0.69551    -0.65086    -0.63021    -0.61418
    -0.60974    -0.60684    -0.60275    -0.59963    -0.59420    -0.59292
    -0.59069    -0.58683    -0.57455    -0.56155    -0.55364    -0.54581
    -0.53947    -0.52545    -0.51258    -0.50935    -0.50905    -0.49482
    -0.48478    -0.48196    -0.47960    -0.47676    -0.47397    -0.46843
    -0.46649    -0.46203    -0.45599    -0.45290    -0.44650    -0.44267
    -0.44245    -0.44081    -0.43981    -0.43569    -0.43398    -0.42541
    -0.42354    -0.42316    -0.42172    -0.41578    -0.41351    -0.41176
    -0.40353    -0.40115    -0.39550    -0.39059    -0.38859    -0.38487
    -0.38043    -0.37965    -0.37694    -0.37379    -0.37153    -0.37035
    -0.36441    -0.35865    -0.35374    -0.35223    -0.35103    -0.34764
    -0.34427    -0.34378    -0.34300    -0.33939    -0.33202    -0.33112
    -0.32757    -0.32589    -0.32484    -0.32007    -0.31875    -0.31071
    -0.30324    -0.30320    -0.29802    -0.28813    -0.28196    -0.27785
    -0.26635    -0.25668    -0.25059    -0.24609    -0.23854    -0.23767
    -0.23520    -0.22687    -0.22539    -0.21603    -0.20751    -0.19002
    -0.15446    -0.02822    -0.02253    -0.01299    -0.00097     0.00450
     0.01337     0.01499     0.01832     0.03591     0.04238
 
  end of program scf
   
 Time(scf)  user:     632.400  user+sys:     632.400  wallclock:      60.005
  
  start of program der1a
  
  end of program der1a
   
 Time(der1a)  user:      19.416  user+sys:      19.416  wallclock:       1.781
  
  start of program rwr
  
  end of program rwr
   
 Time(rwr)  user:      36.404  user+sys:      36.404  wallclock:      15.800
  
  start of program der1b
  
   
  forces (hartrees/bohr) : total     
   
 atom  label           x              y              z
 ---- --------   -------------  -------------  -------------
    1 P1          2.852998E-04   4.918822E-04   2.190640E-04
    2 Pd2        -2.674813E-03   9.791040E-04  -1.510742E-03
    3 N3          1.175655E-03  -6.510234E-04   8.794934E-04
    4 C4          9.324184E-04  -8.195611E-04   9.349110E-04
    5 C5          1.657769E-05  -4.193752E-05  -1.378614E-03
    6 C6         -2.408731E-04   4.510978E-04   2.447281E-04
    7 C7          3.577527E-03   7.158302E-04   3.519383E-04
    8 C8         -3.267235E-04  -4.016483E-04  -4.378029E-04
    9 C9         -7.770224E-04   1.098634E-03   2.466382E-04
   10 F10        -7.002568E-04   1.464600E-03  -1.150048E-03
   11 H11         5.328316E-05  -3.086516E-04   6.985899E-05
   12 H12        -3.719842E-04   9.098073E-05  -1.107529E-04
   13 H13         3.758942E-04   4.930038E-04  -2.970910E-04
   14 H14         2.145003E-04  -4.925526E-05   1.523603E-04
   15 H15         1.691859E-04  -3.191771E-04  -1.434330E-04
   16 C16        -1.253262E-03   2.624708E-04   1.193923E-03
   17 C17         2.730915E-04   9.572196E-04   1.459244E-03
   18 C18         9.992194E-04   2.544008E-04   5.113725E-04
   19 C19         7.761697E-04  -3.572285E-04  -6.165541E-04
   20 C20        -7.856156E-04  -7.019044E-04  -1.720227E-03
   21 C21        -1.401509E-03  -6.292698E-04  -2.762694E-04
   22 H22         1.972342E-04  -1.666622E-05  -1.080125E-04
   23 H23        -2.365316E-05  -1.118455E-04  -1.717459E-04
   24 H24        -2.382197E-04   1.619987E-04   1.758265E-04
   25 H25         9.161788E-05   1.477503E-05   4.398348E-04
   26 H26         2.058745E-04   6.528751E-05   1.801091E-06
   27 C27        -4.960010E-04   4.567554E-05  -3.795186E-04
   28 C28         9.028619E-05  -7.000512E-04   1.108270E-04
   29 C29        -4.747105E-04  -2.516948E-05  -2.319301E-04
   30 C30        -1.213571E-04   7.037177E-05  -1.681329E-04
   31 C31        -2.177303E-04  -1.834094E-04   1.038436E-04
   32 C32        -1.998703E-04   2.078709E-05  -1.854030E-04
   33 C33         3.210885E-04  -8.896229E-05  -9.892888E-05
   34 C34         1.561688E-04  -1.474024E-04  -5.364134E-05
   35 C35         3.757901E-04   1.493168E-04  -8.031784E-05
   36 C36        -6.576616E-06  -9.900689E-05  -8.770720E-05
   37 C37         3.998160E-04  -1.416262E-04   8.751045E-05
   38 C38        -5.613306E-06  -4.887359E-06   1.582480E-04
   39 C39         2.063565E-04   5.351848E-04   4.778413E-04
   40 C40        -1.301296E-04   1.198979E-03   6.616308E-04
   41 C41         1.311703E-03   9.225181E-04  -6.506140E-04
   42 C42         1.003289E-03  -5.335785E-04  -1.101360E-03
   43 C43         1.243096E-06  -1.360354E-03  -4.065002E-04
   44 C44        -7.077980E-04  -8.079400E-04   1.614442E-04
   45 C45        -4.956148E-04   8.772649E-04   2.702054E-04
   46 C46         1.636569E-04   2.879653E-04  -6.925857E-04
   47 C47        -8.026273E-04   1.058504E-04  -7.934576E-04
   48 C48        -1.145878E-03  -8.654646E-04  -7.940254E-05
   49 C49         1.345527E-04  -1.819759E-04   1.361349E-03
   50 C50         1.170008E-03   5.797664E-04   3.994219E-04
   51 O51        -5.897622E-05   3.206582E-04  -1.493652E-03
   52 C52         4.701108E-04  -7.689305E-04   2.249524E-03
   53 O53         9.358858E-04   6.396650E-04   1.289842E-03
   54 C54        -1.800409E-03  -7.172370E-04  -2.187650E-03
   55 H55        -1.560399E-04   6.260095E-05   2.685956E-04
   56 H56         2.201897E-04  -2.299047E-04  -8.370636E-06
   57 H57        -4.466056E-05   9.982209E-05   2.991663E-04
   58 H58        -1.763105E-04   1.036267E-04   5.102645E-05
   59 H59        -3.146449E-04  -1.855305E-05  -9.752070E-05
   60 H60         7.856257E-05  -2.017679E-04  -1.356895E-04
   61 H61        -8.366858E-05  -1.458612E-04  -2.049420E-04
   62 H62        -1.936474E-04   3.457595E-04  -1.017651E-04
   63 H63         1.557418E-05   1.274146E-04  -2.137709E-04
   64 H64         4.076394E-04  -1.316773E-04   2.922432E-04
   65 H65         1.337073E-04   7.269571E-05   3.365671E-05
   66 H66        -4.561715E-04  -2.743443E-04   8.159009E-05
   67 H67        -9.213760E-05   5.278524E-05  -3.919025E-04
   68 H68        -4.855199E-05   2.577585E-04   7.707909E-06
   69 H69         8.223983E-06  -2.102555E-04  -1.607808E-04
   70 H70        -2.624096E-04  -3.033561E-04  -9.084723E-05
   71 H71         9.117833E-05  -1.634903E-04   2.247878E-05
   72 H72         4.713214E-05   1.291189E-05   1.117571E-04
   73 H73         1.492155E-06   1.618587E-05   6.743001E-06
   74 H74        -2.936599E-04  -2.693258E-04   1.705933E-04
   75 H75        -1.017777E-04   1.411402E-04   6.821236E-05
   76 H76         1.464912E-04   2.636234E-04  -4.175191E-05
   77 H77         1.192780E-04  -3.660290E-04  -1.958438E-04
   78 H78        -3.004144E-04  -2.255231E-04   1.732550E-04
   79 H79        -1.709436E-04   9.654445E-05   1.963760E-04
   80 H80         9.068882E-05   2.249051E-04  -7.105309E-05
   81 H81         1.826086E-04   1.682760E-04   3.002907E-04
   82 H82         9.422620E-05   1.225078E-04  -1.579826E-04
   83 H83         2.267839E-04  -8.856449E-05  -2.007726E-04
   84 H84        -2.108916E-04  -2.344938E-04  -1.821608E-05
   85 H85         2.489751E-04  -1.583414E-05  -1.621612E-04
   86 H86         2.999539E-05   3.882064E-04  -5.009360E-05
   87 H87         4.678759E-04   7.074519E-05  -6.911330E-05
   88 H88        -1.953280E-04  -2.568340E-04   1.053731E-04
   89 H89         1.398792E-04   5.643598E-04   1.726552E-04
 -------------   -------------  -------------  -------------
     total        2.755247E-04   2.277180E-03  -2.410268E-03
   
  end of program der1b
   
 Time(der1b)  user:     213.141  user+sys:     213.141  wallclock:      18.961
  
  start of program geopt
  
 ----------------------------------------------------------------------------
  Geometry optimization step  1
  Total energy:     -2247.74230496614 hartrees
 ----------------------------------------------------------------------------
  
  Hessian eigenvalues: 
    0.00000E+00    0.00000E+00    0.00000E+00    0.00000E+00    0.00000E+00
    0.00000E+00    0.00000E+00    0.00000E+00    0.00000E+00    0.00000E+00
    0.00000E+00    0.00000E+00    0.00000E+00    0.00000E+00    0.00000E+00
    0.00000E+00    0.00000E+00    0.00000E+00    0.00000E+00    0.00000E+00
    0.00000E+00    0.00000E+00    0.00000E+00    0.00000E+00    0.00000E+00
    0.00000E+00    0.00000E+00    0.00000E+00    0.00000E+00    0.00000E+00
    0.00000E+00    0.00000E+00    0.00000E+00    0.00000E+00    0.00000E+00
    0.00000E+00    0.00000E+00    0.00000E+00    0.00000E+00    0.00000E+00
    0.00000E+00    0.00000E+00    0.00000E+00    0.00000E+00    0.00000E+00
    0.00000E+00    0.00000E+00    0.00000E+00    0.00000E+00    0.00000E+00
    0.00000E+00    0.00000E+00    0.00000E+00    0.00000E+00    0.00000E+00
    3.74442E-03    5.49559E-03    6.64476E-03    7.08297E-03    9.69479E-03
    1.34067E-02    1.56992E-02    1.65969E-02    1.80275E-02    2.33076E-02
    2.47125E-02    2.47966E-02    2.64660E-02    2.96626E-02    3.01696E-02
    3.03846E-02    3.11932E-02    3.15968E-02    3.28622E-02    3.35758E-02
    3.39657E-02    3.48241E-02    3.57287E-02    3.57439E-02    3.63438E-02
    3.72799E-02    3.81337E-02    4.01135E-02    4.80340E-02    4.83726E-02
    4.84915E-02    5.45972E-02    5.74641E-02    6.37811E-02    6.76513E-02
    7.07550E-02    7.34217E-02    7.71462E-02    7.95814E-02    8.34855E-02
    8.50313E-02    8.95633E-02    9.47320E-02    9.77373E-02    1.03485E-01
    1.06897E-01    1.10339E-01    1.16888E-01    1.22304E-01    1.25431E-01
    1.28495E-01    1.30157E-01    1.37883E-01    1.38820E-01    1.45351E-01
    1.46311E-01    1.49516E-01    1.50349E-01    1.51209E-01    1.52608E-01
    1.54777E-01    1.56107E-01    1.57499E-01    1.60058E-01    1.62345E-01
    1.62555E-01    1.62701E-01    1.62871E-01    1.64620E-01    1.65014E-01
    1.65869E-01    1.67686E-01    1.67938E-01    1.68519E-01    1.69922E-01
    1.75003E-01    1.79077E-01    1.81020E-01    1.90275E-01    1.90652E-01
    1.92591E-01    1.98623E-01    1.99217E-01    1.99413E-01    2.00673E-01
    2.00862E-01    2.01901E-01    2.06374E-01    2.07521E-01    2.11626E-01
    2.18578E-01    2.19549E-01    2.21619E-01    2.26259E-01    2.27533E-01
    2.29140E-01    2.30928E-01    2.32333E-01    2.33550E-01    2.35984E-01
    2.37167E-01    2.38536E-01    2.39644E-01    2.41063E-01    2.41776E-01
    2.41946E-01    2.42394E-01    2.42714E-01    2.44142E-01    2.44466E-01
    2.47652E-01    2.49714E-01    2.52288E-01    2.52950E-01    2.53318E-01
    2.57427E-01    2.61164E-01    2.61713E-01    2.62599E-01    2.63990E-01
    2.71000E-01    2.74949E-01    2.80349E-01    2.83736E-01    2.84435E-01
    2.85034E-01    2.85266E-01    2.88919E-01    2.93461E-01    2.97391E-01
    3.00080E-01    3.00672E-01    3.01501E-01    3.02202E-01    3.02485E-01
    3.04870E-01    3.06003E-01    3.09195E-01    3.13128E-01    3.18854E-01
    3.21105E-01    3.24387E-01    3.24596E-01    3.25165E-01    3.26065E-01
    3.28961E-01    3.29113E-01    3.29592E-01    3.29609E-01    3.29769E-01
    3.30761E-01    3.31307E-01    3.31363E-01    3.31610E-01    3.32022E-01
    3.32211E-01    3.32268E-01    3.32315E-01    3.32371E-01    3.32423E-01
    3.32503E-01    3.32517E-01    3.32555E-01    3.32609E-01    3.32656E-01
    3.32657E-01    3.32814E-01    3.33541E-01    3.33813E-01    3.34015E-01
    3.34342E-01    3.34617E-01    3.38835E-01    3.39784E-01    3.39840E-01
    3.41763E-01    3.42460E-01    3.42742E-01    3.43527E-01    3.43590E-01
    3.44505E-01    3.44577E-01    3.44745E-01    3.44750E-01    3.44870E-01
    3.45332E-01    3.45412E-01    3.45637E-01    3.45940E-01    3.46244E-01
    3.46583E-01    3.46648E-01    3.48022E-01    3.48081E-01    3.48858E-01
    3.49794E-01    3.54867E-01    3.55521E-01    3.58545E-01    3.59688E-01
    3.60699E-01    3.63182E-01    3.65697E-01    3.66134E-01    3.68722E-01
    3.69218E-01    3.70930E-01    3.71050E-01    3.72986E-01    3.74114E-01
    3.75736E-01    3.77187E-01    3.77894E-01    3.78243E-01    3.79445E-01
    3.83353E-01    3.85088E-01    3.88054E-01    3.91023E-01    3.97576E-01
    3.98278E-01    4.03028E-01    4.11607E-01    4.12185E-01    4.12930E-01
    4.17679E-01    4.19048E-01    4.21221E-01    4.22190E-01    4.29707E-01
    4.36788E-01    4.37769E-01    4.40241E-01    4.41701E-01    4.50548E-01
    4.58081E-01    4.72572E-01    4.82864E-01    4.92101E-01    5.01554E-01
    5.13768E-01    5.32115E-01    5.32427E-01    5.33523E-01    5.34347E-01
    5.34748E-01    5.42068E-01    5.44713E-01    5.52624E-01    5.56395E-01
    5.75358E-01    5.81835E-01    5.96161E-01    6.40128E-01    6.78205E-01
    6.78307E-01    7.09469E-01    7.28174E-01    7.50022E-01    8.13887E-01
    1.06294E+00
  
 WARNING: Hessian has wrong number of negative eigenvalues:           0
  
  TS search will follow eigenvector  56 on this iteration
  
  Selected vector:  eigenvalue     3.74442E-03

 56)  C7-Pd2-N3-C19( 76)  0.35404
       P1-Pd2-C7-C6(  3)  0.35361
       N3-Pd2-C7-C6( 41)  0.35112
       P1-Pd2-C7-C8(  4)  0.34745
      C19-N3-P1-C29(115)  0.34007
      C19-N3-P1-C27(113)  0.33892
  
  
  Level shifts adjusted to satisfy step-size constraints
   Step size:    0.1002635
   Cos(theta):   0.6701980
   Final level shift:  -3.9523712E-02
  
  gradient maximum:        9.2668E-03 .  (  2.2500E-03 )
  gradient rms:            9.9557E-04 *  (  1.5000E-03 )
  displacement maximum:    3.9017E-02 .  (  9.0000E-03 )
  displacement rms:        5.6386E-03 *  (  6.0000E-03 )
  
  predicted energy change:  -7.9170E-04
  step size:     0.10023
  trust radius:  0.10000
  
  molecular structure not yet converged...
  
  center of mass moved by:
     x:     4.4768E-04     y:     1.8417E-02     z:    -2.1749E-02
  
  new geometry: 
                                   angstroms
  atom               x                 y                 z
  P1           -1.4540915126     -0.6208915957     -0.1976764947 
  Pd2           0.5384681727      0.4546818666     -0.5023122812 
  N3            2.4301510945      1.2025247712     -0.5560680722 
  C4            3.3304240369     -2.1399179818      2.2636515601 
  C5            2.7392925723     -0.9882113713      2.7658609351 
  C6            2.1636019614     -0.0800013419      1.8815856475 
  C7            2.1531683690     -0.3371903293      0.4974939122 
  C8            2.7948508610     -1.4897813836      0.0139969079 
  C9            3.3734075885     -2.3956853491      0.8998110484 
  F10           3.8769243180     -3.0299270570      3.1208713450 
  H11           2.7222229707     -0.8168909187      3.8383398595 
  H12           1.6703676396      0.8049289838      2.2681171354 
  H13           2.8399522663     -1.6806680505     -1.0534677457 
  H14           3.8528251883     -3.3017983329      0.5405693115 
  H15           2.6787359201      1.8609519501      0.1750254142 
  C16           5.4905159894      0.5731799868     -3.3648968945 
  C17           4.2187725718      0.0368491832     -3.5676796557 
  C18           3.2014497206      0.2572089465     -2.6477115541 
  C19           3.4399853488      1.0075608031     -1.4831527164 
  C20           4.7279231754      1.5326374018     -1.2783573909 
  C21           5.7322904167      1.3273197720     -2.2163819503 
  H22           6.2815409114      0.4073392938     -4.0915138857 
  H23           4.0117701822     -0.5503468870     -4.4599336463 
  H24           2.1993696634     -0.1355210638     -2.8128164231 
  H25           4.9328030808      2.1023782793     -0.3732189244 
  H26           6.7194464434      1.7495249595     -2.0406805677 
  C27          -2.5752277761     -0.5964031260     -1.7072288753 
  C28          -1.3346224723     -2.4032115001      0.3374612621 
  C29          -2.5561979990      0.1273174894      1.0782762296 
  C30          -3.6841712146     -1.6556547306     -1.7393138872 
  C31          -4.5868238199     -1.4677192566     -2.9652041975 
  C32          -3.7748237745     -1.4935571674     -4.2623627364 
  C33          -2.6705847050     -0.4335766582     -4.2343730377 
  C34          -1.7618928894     -0.6026238891     -3.0122571984 
  C35          -0.5216330977     -3.2208184349     -0.6781513093 
  C36          -0.3858850309     -4.6798881793     -0.2258896524 
  C37           0.2306194723     -4.7777895561      1.1718915113 
  C38          -0.5719411455     -3.9566486041      2.1835555999 
  C39          -0.7010751446     -2.4979441802      1.7346065322 
  C40          -3.6387977000     -0.6096006807      1.5825300067 
  C41          -4.5188901876     -0.0742117301      2.5154484180 
  C42          -4.3279722937      1.2271519973      2.9700922229 
  C43          -3.2520699042      1.9651677961      2.4948863179 
  C44          -2.3537717832      1.4385799761      1.5580972511 
  C45          -1.2149959306      2.3208085962      1.1721233042 
  C46          -0.2296081682      2.6355253524      2.1248057807 
  C47           0.8095069695      3.5223632948      1.8243950676 
  C48           0.8487843395      4.1126453852      0.5655773380 
  C49          -0.1176097515      3.8402869179     -0.3942245050 
  C50          -1.1463711689      2.9432613985     -0.0859184701 
  O51          -2.1430120690      2.6144788379     -0.9495271163 
  C52          -2.0452039255      3.0806956996     -2.2807204603 
  O53          -0.3534015885      1.9975513058      3.3197546072 
  C54           0.4929186433      2.3892773617      4.3826491221 
  H55          -3.0525481901      0.3886805382     -1.6153026953 
  H56          -3.2410310293     -2.6608756182     -1.7758062318 
  H57          -4.2884933980     -1.6032249298     -0.8262956496 
  H58          -5.1087902453     -0.5023022229     -2.8819616661 
  H59          -5.3628640001     -2.2443084261     -2.9800799630 
  H60          -3.3178399473     -2.4876055419     -4.3824599671 
  H61          -4.4311680484     -1.3416874297     -5.1290927720 
  H62          -3.1333139435      0.5647427030     -4.2041990500 
  H63          -2.0721054501     -0.4736852582     -5.1538774049 
  H64          -1.0053471424      0.1927589808     -2.9804075202 
  H65          -1.2061543563     -1.5461462828     -3.1021644944 
  H66          -2.3481001489     -2.8286987824      0.3817721517 
  H67          -0.9884245559     -3.1839525655     -1.6699897812 
  H68           0.4739189471     -2.7679736421     -0.7751671768 
  H69           0.2195374983     -5.2371715176     -0.9529367378 
  H70          -1.3814792149     -5.1508516583     -0.2194886917 
  H71           0.2916887189     -5.8269570436      1.4898938899 
  H72           1.2584298692     -4.3912689063      1.1402395624 
  H73          -0.0942186729     -3.9960409902      3.1709038405 
  H74          -1.5754800795     -4.3960618214      2.2987274085 
  H75           0.2932548497     -2.0373940032      1.7061401684 
  H76          -1.2922312323     -1.9276041274      2.4613257971 
  H77          -3.7935109142     -1.6327970777      1.2535217327 
  H78          -5.3466467859     -0.6738232036      2.8864975292 
  H79          -5.0076453473      1.6629647008      3.6982753033 
  H80          -3.0841407314      2.9757557047      2.8581564554 
  H81           1.5770292093      3.7531622687      2.5547067455 
  H82           1.6549036447      4.8011351307      0.3258031635 
  H83          -0.0561140061      4.3103514034     -1.3681989530 
  H84          -2.9019715960      2.6559130433     -2.8065469075 
  H85          -1.1178653441      2.7338929615     -2.7553005122 
  H86          -2.0984915518      4.1761746918     -2.3307340633 
  H87           1.5456986399      2.1504858278      4.1779044450 
  H88           0.1613855955      1.8150193294      5.2496048667 
  H89           0.4010292139      3.4628994424      4.5955083578 
   
 
  bond lengths (angstroms):
 
 P1      -Pd2     :   2.284722      P1      -C27     :   1.880504
 P1      -C28     :   1.864755      P1      -C29     :   1.844590
 Pd2     -N3      :   2.034852      Pd2     -C7      :   2.057652
 N3      -H15     :   1.014800      N3      -C19     :   1.384652
 C4      -C5      :   1.388553      C4      -C9      :   1.388281
 C4      -F10     :   1.351149      C5      -C6      :   1.392195
 C5      -H11     :   1.086210      C6      -C7      :   1.407823
 C6      -H12     :   1.084338      C7      -C8      :   1.404988
 C8      -C9      :   1.392859      C8      -H13     :   1.085335
 C9      -H14     :   1.086249      C16     -C17     :   1.395028
 C16     -C21     :   1.395087      C16     -H22     :   1.086828
 C17     -C18     :   1.389189      C17     -H23     :   1.088010
 C18     -C19     :   1.405747      C18     -H24     :   1.088881
 C19     -C20     :   1.405856      C20     -C21     :   1.389532
 C20     -H25     :   1.088970      C21     -H26     :   1.087936
 C27     -C30     :   1.533884      C27     -C34     :   1.537742
 C27     -H55     :   1.098488      C28     -C35     :   1.536523
 C28     -C39     :   1.537001      C28     -H66     :   1.100064
 C29     -C40     :   1.403333      C29     -C44     :   1.410891
 C30     -C31     :   1.533919      C30     -H56     :   1.099170
 C30     -H57     :   1.096155      C31     -C32     :   1.530566
 C31     -H58     :   1.100640      C31     -H59     :   1.097976
[...]
    C8       X     0.00012   0.00001  -0.00014
    C8       Y    -0.00011  -0.00000  -0.00005
    C8       Z     0.00118  -0.00002   0.00032
    C9       X     0.00056   0.00000  -0.00001
    C9       Y    -0.00107   0.00000   0.00001
    C9       Z    -0.00048  -0.00000   0.00001
    F10      X    -0.00010  -0.00000   0.00002
    F10      Y     0.00019   0.00000  -0.00002
    F10      Z    -0.00005  -0.00000   0.00003
    H11      X     0.00247  -0.00000   0.00001
    H11      Y    -0.03354  -0.00003   0.00002
    H11      Z    -0.22156  -0.00025   0.00045
    H12      X     0.40677   0.00039  -0.00182
    H12      Y    -0.76242  -0.00080   0.00379
    H12      Z    -0.33567  -0.00040   0.00149
    H13      X    -0.00019  -0.00003   0.00022
    H13      Y    -0.00183   0.00004  -0.00023
    H13      Z    -0.01357   0.00028  -0.00177
    H14      X    -0.00587  -0.00001   0.00044
    H14      Y     0.01171   0.00001  -0.00022
    H14      Z     0.00515   0.00001  -0.00003
    H15      X    -0.00262  -0.00028  -0.23683
    H15      Y    -0.00484  -0.00021  -0.59446
    H15      Z    -0.00105  -0.00014  -0.71795
    C16      X    -0.00000   0.00001   0.00007
    C16      Y    -0.00001  -0.00000  -0.00006
    C16      Z    -0.00001  -0.00001  -0.00013
    C17      X    -0.00001   0.00000   0.00007
    C17      Y    -0.00001   0.00001   0.00005
    C17      Z    -0.00001   0.00001   0.00011
    C18      X     0.00006   0.00004  -0.00020
    C18      Y     0.00001   0.00001  -0.00041
    C18      Z    -0.00001  -0.00000  -0.00058
    C19      X    -0.00007   0.00000   0.00227
    C19      Y    -0.00008  -0.00001   0.00044
    C19      Z     0.00002   0.00001   0.00007
    C20      X     0.00007  -0.00000   0.00019
    C20      Y     0.00010  -0.00002  -0.00021
    C20      Z     0.00015  -0.00004  -0.00058
    C21      X     0.00005  -0.00001  -0.00016
    C21      Y     0.00003  -0.00000   0.00002
    C21      Z     0.00002  -0.00000   0.00013
    H22      X    -0.00004  -0.00004  -0.00043
    H22      Y    -0.00000   0.00001   0.00016
    H22      Z     0.00003   0.00004   0.00023
    H23      X     0.00002  -0.00003  -0.00044
    H23      Y     0.00001  -0.00010  -0.00004
    H23      Z    -0.00001  -0.00015  -0.00003
    H24      X    -0.00058  -0.00038   0.00127
    H24      Y    -0.00023  -0.00017   0.00050
    H24      Z    -0.00007  -0.00003  -0.00025
    H25      X    -0.00040   0.00011  -0.00193
    H25      Y    -0.00101   0.00022   0.00065
    H25      Z    -0.00158   0.00043   0.00175
    H26      X    -0.00061   0.00014   0.00041
    H26      Y    -0.00024   0.00005   0.00021
    H26      Z    -0.00010   0.00002   0.00007
    C27      X    -0.00000   0.00002   0.00001
    C27      Y    -0.00001  -0.00003   0.00001
    C27      Z     0.00001  -0.00001  -0.00001
    C28      X     0.00001  -0.00000   0.00001
    C28      Y     0.00000   0.00000   0.00000
    C28      Z    -0.00000  -0.00001   0.00000
    C29      X    -0.00000  -0.00001   0.00001
    C29      Y     0.00000   0.00000   0.00002
    C29      Z     0.00000   0.00002   0.00001
    C30      X    -0.00000  -0.00000   0.00001
    C30      Y     0.00001   0.00000  -0.00001
    C30      Z    -0.00001   0.00000   0.00001
    C31      X     0.00000   0.00001   0.00000
    C31      Y    -0.00000  -0.00001  -0.00000
    C31      Z     0.00000   0.00000  -0.00000
    C32      X     0.00000   0.00000   0.00000
    C32      Y    -0.00000  -0.00000  -0.00000
    C32      Z     0.00000   0.00000  -0.00000
    C33      X    -0.00000   0.00001  -0.00000
    C33      Y    -0.00000  -0.00002  -0.00001
    C33      Z     0.00000   0.00000   0.00001
    C34      X    -0.00000  -0.00003   0.00002
    C34      Y    -0.00001  -0.00004   0.00002
    C34      Z    -0.00000  -0.00000  -0.00001
    C35      X    -0.00001   0.00000   0.00000
    C35      Y    -0.00000  -0.00000   0.00000
    C35      Z    -0.00001   0.00002  -0.00001
    C36      X    -0.00001  -0.00000   0.00000
    C36      Y    -0.00000   0.00001   0.00000
    C36      Z     0.00001   0.00000   0.00000
    C37      X    -0.00001  -0.00000   0.00001
    C37      Y    -0.00001   0.00001   0.00001
    C37      Z     0.00000  -0.00000   0.00000
    C38      X     0.00002  -0.00000   0.00000
    C38      Y     0.00000   0.00000   0.00000
    C38      Z     0.00001  -0.00000   0.00000
    C39      X     0.00033  -0.00001   0.00002
    C39      Y     0.00018   0.00001  -0.00000
    C39      Z     0.00002   0.00001  -0.00000
    C40      X     0.00000   0.00001   0.00000
    C40      Y    -0.00002   0.00015  -0.00001
    C40      Z    -0.00001   0.00004  -0.00001
    C41      X    -0.00001   0.00008  -0.00000
    C41      Y    -0.00000   0.00006   0.00001
    C41      Z     0.00001  -0.00004   0.00000
    C42      X    -0.00001   0.00011  -0.00001
    C42      Y     0.00000  -0.00006  -0.00000
    C42      Z     0.00001  -0.00012   0.00000
    C43      X    -0.00000  -0.00005   0.00001
    C43      Y    -0.00007  -0.00017   0.00000
    C43      Z    -0.00003  -0.00004  -0.00001
    C44      X    -0.00002   0.00005  -0.00002
    C44      Y    -0.00001   0.00003  -0.00001
    C44      Z     0.00001   0.00003   0.00001
    C45      X     0.00005  -0.00004   0.00002
    C45      Y    -0.00005   0.00017  -0.00002
    C45      Z     0.00001  -0.00039   0.00005
    C46      X    -0.00031   0.00034  -0.00006
    C46      Y     0.00039   0.00037  -0.00006
    C46      Z    -0.00023  -0.00028   0.00002
    C47      X     0.00039  -0.00782   0.00003
    C47      Y     0.00023  -0.00186  -0.00011
    C47      Z     0.00044  -0.00846   0.00002
    C48      X     0.00023  -0.01544  -0.00003
    C48      Y     0.00020  -0.01239   0.00003
    C48      Z    -0.00008   0.00268  -0.00015
    C49      X    -0.00003  -0.00251   0.00006
    C49      Y    -0.00004  -0.03457   0.00005
    C49      Z     0.00006   0.07324   0.00000
    C50      X    -0.00001   0.00270  -0.00006
    C50      Y     0.00005   0.00212  -0.00005
    C50      Z    -0.00001  -0.00036  -0.00007
    O51      X     0.00001  -0.00027   0.00005
    O51      Y    -0.00001  -0.00024   0.00003
    O51      Z     0.00001   0.00014   0.00006
    C52      X     0.00000  -0.00162   0.00002
    C52      Y    -0.00002  -0.00177   0.00000
    C52      Z    -0.00002   0.00002  -0.00005
    O53      X    -0.00011  -0.00005   0.00001
    O53      Y     0.00003  -0.00001   0.00002
    O53      Z     0.00015  -0.00004  -0.00002
    C54      X    -0.00052  -0.00010  -0.00002
    C54      Y     0.00026  -0.00008  -0.00001
    C54      Z     0.00066   0.00008   0.00002
    H55      X    -0.00006  -0.00015  -0.00004
    H55      Y     0.00008   0.00039   0.00003
    H55      Z    -0.00001   0.00012  -0.00002
    H56      X     0.00001  -0.00000  -0.00002
    H56      Y    -0.00002  -0.00000   0.00008
    H56      Z     0.00000  -0.00000   0.00001
    H57      X    -0.00000   0.00009  -0.00005
    H57      Y     0.00000   0.00001  -0.00002
    H57      Z     0.00001  -0.00008   0.00003
    H58      X    -0.00001  -0.00006  -0.00002
    H58      Y     0.00002   0.00009   0.00003
    H58      Z     0.00000   0.00001  -0.00000
    H59      X    -0.00002   0.00000   0.00000
    H59      Y    -0.00001   0.00002  -0.00001
    H59      Z    -0.00001  -0.00002   0.00002
    H60      X     0.00000  -0.00002  -0.00001
    H60      Y     0.00000   0.00008   0.00002
    H60      Z     0.00000   0.00001   0.00001
    H61      X    -0.00001  -0.00004  -0.00003
    H61      Y     0.00000   0.00001  -0.00001
    H61      Z    -0.00002  -0.00007  -0.00001
    H62      X    -0.00002  -0.00010  -0.00005
    H62      Y     0.00004   0.00013   0.00008
    H62      Z    -0.00000  -0.00003  -0.00001
    H63      X     0.00002   0.00004   0.00000
    H63      Y    -0.00000   0.00000  -0.00000
    H63      Z    -0.00003  -0.00011   0.00003
    H64      X     0.00000   0.00033  -0.00018
    H64      Y    -0.00003   0.00026  -0.00029
    H64      Z    -0.00001   0.00003   0.00008
    H65      X    -0.00003  -0.00008  -0.00003
    H65      Y     0.00011   0.00023   0.00008
    H65      Z     0.00002   0.00001   0.00002
    H66      X    -0.00013  -0.00000  -0.00008
    H66      Y    -0.00011  -0.00000  -0.00000
    H66      Z    -0.00002   0.00003  -0.00001
    H67      X     0.00009  -0.00006  -0.00001
    H67      Y     0.00001   0.00000  -0.00001
    H67      Z     0.00008  -0.00013   0.00001
    H68      X    -0.00008   0.00000   0.00006
    H68      Y     0.00000   0.00002   0.00003
    H68      Z    -0.00004  -0.00000   0.00003
    H69      X     0.00005   0.00006  -0.00001
    H69      Y    -0.00006  -0.00006   0.00003
    H69      Z    -0.00008  -0.00007   0.00002
    H70      X     0.00010  -0.00001  -0.00007
    H70      Y     0.00005  -0.00000  -0.00004
    H70      Z    -0.00001   0.00001  -0.00000
    H71      X     0.00001   0.00001  -0.00002
    H71      Y    -0.00002  -0.00008  -0.00003
    H71      Z    -0.00001   0.00002   0.00001
    H72      X     0.00014   0.00003  -0.00008
    H72      Y     0.00005   0.00001  -0.00000
    H72      Z    -0.00001  -0.00000   0.00001
    H73      X    -0.00012   0.00003  -0.00000
    H73      Y     0.00004  -0.00000   0.00002
    H73      Z    -0.00019   0.00006  -0.00004
    H74      X    -0.00016   0.00001  -0.00010
    H74      Y    -0.00010   0.00001  -0.00005
    H74      Z     0.00002  -0.00000   0.00001
    H75      X    -0.00490   0.00001  -0.00006
    H75      Y    -0.00200  -0.00000  -0.00004
    H75      Z     0.00027  -0.00000  -0.00001
    H76      X     0.00060   0.00008  -0.00007
    H76      Y    -0.00021  -0.00007   0.00004
    H76      Z    -0.00042  -0.00013   0.00010
    H77      X     0.00005  -0.00028   0.00005
    H77      Y     0.00030  -0.00177   0.00015
    H77      Z     0.00009  -0.00052   0.00005
    H78      X     0.00014  -0.00082   0.00005
    H78      Y     0.00010  -0.00063   0.00003
    H78      Z    -0.00005   0.00039  -0.00002
    H79      X     0.00008  -0.00126   0.00003
    H79      Y    -0.00005   0.00076  -0.00001
    H79      Z    -0.00008   0.00133  -0.00003
    H80      X     0.00012   0.00029  -0.00003
    H80      Y     0.00089   0.00147   0.00006
    H80      Z     0.00032   0.00047   0.00004
    H81      X    -0.00508   0.09004   0.00044
    H81      Y    -0.00153   0.02704   0.00079
    H81      Z    -0.00481   0.08502   0.00118
    H82      X    -0.00252   0.15005  -0.00012
    H82      Y    -0.00228   0.12947   0.00009
    H82      Z     0.00091  -0.04612  -0.00006
    H83      X     0.00005   0.02844   0.00007
    H83      Y     0.00029   0.39127  -0.00025
    H83      Z    -0.00063  -0.83376   0.00041
    H84      X     0.00018   0.01548   0.00010
    H84      Y     0.00007   0.00847   0.00004
    H84      Z     0.00009   0.00638   0.00009
    H85      X    -0.00020   0.01079  -0.00027
    H85      Y     0.00008  -0.00394   0.00000
    H85      Z     0.00007  -0.00457   0.00022
    H86      X    -0.00001   0.00008  -0.00007
    H86      Y     0.00010   0.02048  -0.00002
    H86      Z     0.00001   0.00083   0.00004
    H87      X     0.00314   0.00131   0.00013
    H87      Y     0.00001  -0.00011  -0.00013
    H87      Z     0.00105  -0.00058   0.00000
    H88      X     0.00179   0.00059   0.00014
    H88      Y     0.00239   0.00092   0.00010
    H88      Z    -0.00440  -0.00101  -0.00019
    H89      X     0.00021  -0.00009  -0.00004
    H89      Y    -0.00267   0.00072   0.00006
    H89      Z    -0.00082  -0.00004   0.00001
  
  Number of imaginary frequencies:   2
   
  Writing vibrational animation data to red_elim_TS_L1_PL145_3.vib
  Writing IR vibrational spectrum data to red_elim_TS_L1_PL145_3_vib.spm
  rotational symmetry number:  1

  rotational temperatures (K):      0.003931      0.003075      0.003015
   
  The Quasi-Harmonic approximation will be applied to compute
  vibrational constributions to thermodynamic properties.
  Frequencies will be adjusted to a minimum value of  100.00 cm^-1.

    2 vibrational frequencies below    0.0 cm-1 not included in zero-point
  energy or thermochemical analysis.  Set freqcut to change the frequency
  cutoff value.

  vibrational temperatures:
       mode:      3        4        5        6        7        8
  temp. (K):   143.88   143.88   143.88   143.88   143.88   143.88
   
       mode:      9       10       11       12       13       14
  temp. (K):   143.88   143.88   143.88   143.88   143.88   143.88
   
       mode:     15       16       17       18       19       20
  temp. (K):   143.88   143.88   143.88   143.88   164.20   174.87
   
       mode:     21       22       23       24       25       26
  temp. (K):   180.14   193.15   203.48   216.56   243.57   244.76
   
       mode:     27       28       29       30       31       32
  temp. (K):   266.08   279.59   297.13   300.46   308.44   318.85
   
       mode:     33       34       35       36       37       38
  temp. (K):   328.05   340.69   356.26   364.19   388.89   393.31
   
       mode:     39       40       41       42       43       44
  temp. (K):   403.15   405.77   450.25   470.60   474.26   482.94
   
       mode:     45       46       47       48       49       50
  temp. (K):   487.94   496.27   541.27   558.62   576.84   590.55
   
       mode:     51       52       53       54       55       56
  temp. (K):   610.66   617.38   621.04   627.70   639.12   646.11
   
       mode:     57       58       59       60       61       62
  temp. (K):   680.00   687.39   690.15   711.95   728.21   750.17
   
       mode:     63       64       65       66       67       68
  temp. (K):   760.90   766.02   789.78   804.68   806.39   821.89
   
       mode:     69       70       71       72       73       74
  temp. (K):   854.18   866.86   895.68   905.99   909.35   918.05
   
       mode:     75       76       77       78       79       80
  temp. (K):   982.10   987.19  1030.36  1045.18  1051.43  1066.91
   
       mode:     81       82       83       84       85       86
  temp. (K):  1094.91  1113.59  1116.50  1125.19  1131.23  1132.18
   
       mode:     87       88       89       90       91       92
  temp. (K):  1147.17  1161.98  1166.70  1170.46  1179.77  1188.95
   
       mode:     93       94       95       96       97       98
  temp. (K):  1204.37  1210.01  1220.52  1230.24  1255.99  1261.39
   
       mode:     99      100      101      102      103      104
  temp. (K):  1264.03  1292.76  1308.59  1312.77  1318.48  1319.74
   
       mode:    105      106      107      108      109      110
  temp. (K):  1322.89  1332.89  1355.82  1357.13  1359.40  1365.42
   
       mode:    111      112      113      114      115      116
  temp. (K):  1399.14  1410.66  1416.59  1439.13  1449.70  1456.57
   
       mode:    117      118      119      120      121      122
  temp. (K):  1457.05  1471.11  1476.26  1481.81  1482.58  1524.30
   
       mode:    123      124      125      126      127      128
  temp. (K):  1526.54  1529.07  1544.41  1554.74  1557.74  1573.50
   
       mode:    129      130      131      132      133      134
  temp. (K):  1596.22  1599.30  1605.51  1605.55  1610.41  1613.97
   
       mode:    135      136      137      138      139      140
  temp. (K):  1630.44  1642.42  1647.57  1657.04  1676.03  1686.54
   
       mode:    141      142      143      144      145      146
  temp. (K):  1702.61  1704.46  1717.06  1725.06  1741.81  1742.08
   
       mode:    147      148      149      150      151      152
  temp. (K):  1746.73  1749.16  1754.48  1761.39  1776.74  1782.55
   
       mode:    153      154      155      156      157      158
  temp. (K):  1795.38  1830.24  1844.02  1844.79  1867.49  1874.84
   
       mode:    159      160      161      162      163      164
  temp. (K):  1878.99  1884.38  1891.19  1892.70  1895.25  1897.50
   
       mode:    165      166      167      168      169      170
  temp. (K):  1908.16  1913.49  1927.90  1935.98  1940.06  1942.95
   
       mode:    171      172      173      174      175      176
  temp. (K):  1943.26  1977.65  1978.16  1985.50  1987.70  2002.49
   
       mode:    177      178      179      180      181      182
  temp. (K):  2005.44  2010.17  2013.52  2017.61  2018.23  2022.09
   
       mode:    183      184      185      186      187      188
  temp. (K):  2023.53  2028.69  2076.54  2125.23  2137.20  2154.97
   
       mode:    189      190      191      192      193      194
  temp. (K):  2160.82  2164.26  2169.93  2172.11  2174.37  2175.56
   
       mode:    195      196      197      198      199      200
  temp. (K):  2176.54  2177.76  2181.46  2184.43  2185.64  2188.99
   
       mode:    201      202      203      204      205      206
  temp. (K):  2189.43  2199.39  2202.26  2202.43  2205.68  2206.40
   
       mode:    207      208      209      210      211      212
  temp. (K):  2222.73  2225.08  2341.75  2344.51  2366.27  2376.29
   
       mode:    213      214      215      216      217      218
  temp. (K):  2380.12  2383.45  2391.55  2404.34  4345.52  4348.81
   
       mode:    219      220      221      222      223      224
  temp. (K):  4352.28  4357.23  4358.85  4362.67  4364.22  4367.24
   
       mode:    225      226      227      228      229      230
  temp. (K):  4377.53  4381.20  4383.51  4398.22  4408.69  4418.12
   
       mode:    231      232      233      234      235      236
  temp. (K):  4431.00  4434.29  4436.34  4437.54  4440.70  4450.19
   
       mode:    237      238      239      240      241      242
  temp. (K):  4450.53  4452.97  4468.08  4469.83  4475.72  4500.74
   
       mode:    243      244      245      246      247      248
  temp. (K):  4556.74  4559.64  4561.53  4566.61  4582.89  4586.22
   
       mode:    249      250      251      252      253      254
  temp. (K):  4594.28  4600.31  4600.40  4610.52  4613.61  4617.50
   
       mode:    255      256      257      258      259      260
  temp. (K):  4618.99  4628.78  4643.59  4647.11  4660.17  4665.14
   
       mode:    261
  temp. (K):  5129.24
   
   
  Thermodynamic properties calculated assuming an ideal gas

  In the table below, the units for temperature
  are kelvins, the units for U, H, and G are
  kcal/mol and the units for Cv and S are cal/(mol K)

  The zero point energy (ZPE):    475.206 kcal/mol
  is not included in U, H, or G in the table below
  
 
  =============================================================================
  Thermodynamic properties for P = 1.00E+00 atm, calculated at   1 temperatures


  T =   298.15 K, P = 1.00E+00 atm
   
                  U         Cv          S          H          G        ln(Q)
              =========  =========  =========  =========  =========  =========
  trans.          0.889      2.981     45.532      1.481    -12.094   20.41263
  rot.            0.889      2.981     38.120      0.889    -10.477   17.68251
  vib.           23.124    155.359    140.585     23.124    -18.792   31.71700
  elec.           0.000      0.000      0.000      0.000      0.000    0.00000
  ----------------------------------------------------------------------------
  total          24.901    161.321    224.237     25.494    -41.363   69.81214
   
   Total internal energy, Utot(SCFE + ZPE + U):   -2246.953709 hartrees
   Total enthalpy, Htot (Utot + nRT), with n=1:   -2246.952765 hartrees
    Total Gibbs free energy, Gtot (Htot - T*S):   -2247.059307 hartrees
   
  end of program freq
   
 Time(freq)  user:       0.842  user+sys:       0.842  wallclock:       0.442
  
  start of program post
  
  Writing input files for PBF
  end of program post
   
 Time(post)  user:       0.274  user+sys:       0.274  wallclock:       0.088

 Total cpu seconds     user:  103755.641   user+sys:  103755.641
  
 Total elapsed time:    12784 seconds

Job red_elim_TS_L1_PL145_3 completed on bp1-compute136 at Mon Dec  1 20:38:58 2025
