Job red_elim_L_trans_L1_PL145_2 started on bp1-compute217 at Mon Dec  1 17:06:10 2025
jobid: bp1-compute217-0-692dcafb

  +--------------------------------------------------------------------+
  |  Jaguar version 12.5, release 138                                  |
  |                                                                    |
  |  Copyright Schrodinger, Inc.                                       |
  |  All Rights Reserved.                                              |
  |                                                                    |
  |  The following have contributed to Jaguar (listed alphabetically): |
  |  Ty Balduf, Mike Beachy, Chandler Bennett, Art Bochevarov,         |
  |  Dale Braden, Yixiang Cao, Alan Chien, Chris Cortis,               |
  |  Rich Friesner, Jim Furness, Bill Goddard, Hod Greeley,            |
  |  Tom Hughes, Leif Jacobson, Jean-Marc Langlois, Daniel Levine,     |
  |  Rob Murphy, Dean Philipp, Tom Pollard, Murco Ringnalda,           |
  |  Daniel Mainz, Pablo Videla, Mark Watson, Haoyu Yu.                |
  |                                                                    |
  |  Use of this program should be acknowledged in publications as:    |
  |                                                                    |
  |  Jaguar, version 12.5, Schrodinger, Inc., New York, NY, 2024.      |
  |                                                                    |
  |  A. D. Bochevarov, E. Harder, T. F. Hughes, J. R. Greenwood,       |
  |  D. A. Braden, D. M. Philipp, D. Rinaldo, M. D. Halls,             |
  |  J. Zhang, R. A. Friesner, "Jaguar: A High-Performance Quantum     |
  |  Chemistry Software Program with Strengths in Life and Materials   |
  |  Sciences", Int. J. Quantum Chem., 2013, 113(18), 2110-2142.       |
  +--------------------------------------------------------------------+
  
  start of program pre
  
  Job name: red_elim_L_trans_L1_PL145_2
  Executables used: /software/local/apps/schrodinger2024-3/jaguar-v12.5/bin/Linux-x86_64
  Temporary files : /tmp/ar21627/red_elim_L_trans_L1_PL145_2#bp1-compute217-0-692dcafb
  Basis file : using default basis file from /software/local/apps/schrodinger2024-3
  Maestro file (input):  red_elim_L_trans_L1_PL145_2.mae
  Maestro file (output): red_elim_L_trans_L1_PL145_2.01.mae
  
 Contents of input file: &gen and (if present) &atomic sections only
 ----------------Contents start----------------
&gen
dftname=b3pw91-d3
basis=6-31G*
numd=5
ip11=2
iaccg=3
isolv=2
igeopt=1
solvent=benzene
ifreq=1
&
&atomic
atom basis
Pd2 lacv3p*
&
 -----------------Contents end-----------------
 
  PS calculation requested. Using PS version of 6-31g*
  basis set:               non_standard                    
  net molecular charge:    0
  multiplicity:            1
  
  Using up to  18 threads per process
  
  This run will use ECP on 1 atom
  number of basis functions....          727
  
 Input geometry:
                                   angstroms
  atom               x                 y                 z
  P1            0.0519008594      0.0532553548     -0.2426235117 
  Pd2           0.2993027893     -0.0809338657      2.0157942775 
  N2            2.5288108381     -0.1211894486      2.2133008267 
  C16          -4.3759127229     -0.6341941598      3.0316954622 
  C17          -4.0033431072      0.5094929296      2.3429858611 
  C18          -2.6554196158      0.6846695896      2.0105103418 
  C19          -1.6807613857     -0.2525697092      2.3818354922 
  C20          -2.1063490740     -1.3927934886      3.0836383597 
  C21          -3.4495701068     -1.5967927133      3.4082077225 
  F10          -5.6820355148     -0.8211948833      3.3425532758 
  H23          -4.7612038813      1.2341470323      2.0540890413 
  H24          -2.3729811321      1.5646085405      1.4411637694 
  H25          -1.3786636167     -2.1403181078      3.3970488121 
  H26          -3.7821248406     -2.4822290264      3.9451989630 
  H30           3.0066272770      0.4317809807      2.9304498033 
  C31           4.3699803177     -3.6533249585      3.5781987711 
  C32           3.6168943906     -2.9040102406      4.4581172158 
  C33           3.0142062227     -1.6958722904      4.0390395696 
  C34           3.2164398304     -1.1996406183      2.6995510989 
  C35           3.9867259043     -2.0223154081      1.8128330643 
  C36           4.5487012955     -3.1998424037      2.2489987143 
  H37           4.8226084080     -4.5896826685      3.8964411046 
  H38           3.4640913318     -3.2431138700      5.4803086256 
  H39           2.5470582486     -1.0447687437      4.7772758286 
  H40           4.1198665261     -1.6724992937      0.7918269190 
  H41           5.1381820853     -3.7992873950      1.5569677304 
  C3            1.6962952410     -0.3434251528     -1.0497172514 
  C4           -1.1852983871     -1.1382747895     -1.0094197548 
  C5           -0.3791398893      1.7185533524     -0.9060593715 
  C6            1.8080352269     -0.0144416604     -2.5436555892 
  C7            3.2337236247     -0.2704570588     -3.0536147220 
  C8            3.7113456424     -1.6912558103     -2.7451587584 
  C9            3.5877075534     -1.9944294862     -1.2496160830 
  C10           2.1491784354     -1.7830168108     -0.7702364312 
  C11          -1.1480703728     -2.4996065063     -0.2830283736 
  C12          -2.0100728067     -3.5304107519     -1.0206901996 
  C13          -3.4578136444     -3.0511018146     -1.1457534384 
  C14          -3.5210178789     -1.6703478189     -1.8023366318 
  C15          -2.6487849380     -0.6604521108     -1.0486713695 
  C40          -0.9391668489      1.8032845726     -2.1927714073 
  C41          -1.3574481608      3.0136833835     -2.7349743745 
  C42          -1.2224909417      4.1835911682     -1.9896788611 
  C43          -0.6279178605      4.1235972488     -0.7345709465 
  C44          -0.1829938443      2.9136619181     -0.1806039339 
  C45           0.5467550660      3.0248954498      1.1166090113 
  C22          -0.1246373314      3.3844268891      2.3001570152 
  C23           0.5779260095      3.5927078928      3.4949629307 
  C24           1.9645757887      3.4909148671      3.4896040329 
  C25           2.6658643793      3.1870009444      2.3253684802 
  C26           1.9522544709      2.9565152101      1.1417233964 
  O27           2.5452485295      2.6646464603     -0.0434036628 
  C28           3.9515798782      2.4705674399     -0.0599961036 
  O29          -1.4651063447      3.5395006120      2.1865999993 
  C30          -2.2359422101      3.6578167206      3.3729059180 
  H31           2.3657782354      0.3198820916     -0.4916442641 
  H32           1.1043603177     -0.6358993471     -3.1181832354 
  H33           1.5378204094      1.0308993807     -2.7256850999 
  H34           3.9152910626      0.4460770186     -2.5729975450 
  H35           3.2818210997     -0.0709849467     -4.1322837155 
  H36           3.0975157592     -2.4101773605     -3.3093342595 
  H61           4.7462397521     -1.8276820495     -3.0860930220 
  H62           4.2544011809     -1.3347961135     -0.6757240721 
  H63           3.9028112091     -3.0246753058     -1.0381042001 
  H64           2.0690416645     -1.9957191971      0.3010987758 
  H65           1.4995849170     -2.4857884167     -1.3101372972 
  H42          -0.8401110764     -1.2909948707     -2.0450467665 
  H43          -0.1286857552     -2.8752372984     -0.1695476374 
  H44          -1.5384108191     -2.3553487975      0.7310441839 
  H45          -1.9693633221     -4.4912930625     -0.4907734237 
  H46          -1.5924527109     -3.7069613910     -2.0243693541 
  H47          -4.0581380119     -3.7765838182     -1.7109013877 
  H48          -3.8996985770     -2.9859900608     -0.1401911093 
  H49          -4.5573262041     -1.3085895632     -1.8337354466 
  H50          -3.1812306295     -1.7430835678     -2.8476982662 
  H51          -3.0143787807     -0.5664466123     -0.0213271564 
  H52          -2.7457994420      0.3298005550     -1.5021639179 
  H53          -1.0499011292      0.9023842772     -2.7900355357 
  H54          -1.7903557181      3.0381446624     -3.7329004796 
  H55          -1.5591335550      5.1377190612     -2.3892442568 
  H56          -0.4847257655      5.0349561066     -0.1587302169 
  H57           0.0565003868      3.8406766081      4.4128742680 
  H58           2.5149240939      3.6551773840      4.4135978318 
  H59           3.7485357726      3.1286726490      2.3477285557 
  H60           4.2038682922      2.2352696500     -1.0955218283 
  H85           4.2438090113      1.6338731976      0.5874017175 
  H86           4.4882561337      3.3803715707      0.2396227280 
  H87          -2.0713816694      2.7983813882      4.0344539341 
  H88          -3.2782887428      3.6633888519      3.0482922454 
  H89          -2.0170737389      4.5937738117      3.9043833710 
   
  principal moments of inertia:
        amu*angstrom^2:              6370.41514              7659.73129              8019.89123
                g*cm^2:          1.05783219E-36          1.27192815E-36          1.33173410E-36
   
  rotational constants:
               cm^(-1):      0.00264624      0.00220081      0.00210198
                   GHz:      0.07933219      0.06597869      0.06301569
   
  Molecular weight:     703.22 amu
   
  Stoichiometry: PdC38PNH45O2F
  Molecular Point Group: C1      
  Point Group used: C1
  
 
Number of optimization coordinates:   314
Number of independent coordinates:    314
Number of non-redundant coordinates:  261
Number of frozen coordinates:           0
Number of harmonic constraints:         0
 
Number of geometric degrees of freedom:   261
Maximum geometric degrees of freedom:     261
 " " " " " excluding dummy atoms:         261
 
 
  bond lengths (angstroms):
 
 P1      -Pd2     :   2.275888      P1      -C3      :   1.874243
 P1      -C4      :   1.881059      P1      -C5      :   1.843681
 Pd2     -N2      :   2.238601      Pd2     -C19     :   2.020915
 N2      -H30     :   1.023908      N2      -C34     :   1.368331
 C16     -C17     :   1.386055      C16     -C21     :   1.387973
 C16     -F10     :   1.355566      C17     -C18     :   1.399330
 C17     -H23     :   1.087629      C18     -C19     :   1.402233
 C18     -H24     :   1.085458      C19     -C20     :   1.404907
 C20     -C21     :   1.396855      C20     -H25     :   1.089287
 C21     -H26     :   1.087635      C31     -C32     :   1.379445
 C31     -C36     :   1.415754      C31     -H37     :   1.087619
 C32     -C33     :   1.413668      C32     -H38     :   1.087757
 C33     -C34     :   1.442697      C33     -H39     :   1.089567
 C34     -C35     :   1.434016      C35     -C36     :   1.375728
 C35     -H40     :   1.087452      C36     -H41     :   1.088912
 C3      -C6      :   1.533808      C3      -C10     :   1.534808
 C3      -H31     :   1.095276      C4      -C11     :   1.543455
 C4      -C15     :   1.540016      C4      -H42     :   1.102271
 C5      -C40     :   1.405858      C5      -C44     :   1.411752
 C6      -C7      :   1.535640      C6      -H32     :   1.100659
 C6      -H33     :   1.094938      C7      -C8      :   1.530339
 C7      -H34     :   1.099522      C7      -H35     :   1.098012
 C8      -C9      :   1.530963      C8      -H36     :   1.100877
 C8      -H61     :   1.098114      C9      -C10     :   1.530969
 C9      -H62     :   1.099522      C9      -H63     :   1.097923
 C10     -H64     :   1.095182      C10     -H65     :   1.098796
 C11     -C12     :   1.532890      C11     -H43     :   1.092301
 C11     -H44     :   1.096138      C12     -C13     :   1.530141
 C12     -H45     :   1.098073      C12     -H46     :   1.101339
 C13     -C14     :   1.530222      C13     -H47     :   1.098228
 C13     -H48     :   1.100299      C14     -C15     :   1.532544
 C14     -H49     :   1.098085      C14     -H50     :   1.101602
 C15     -H51     :   1.094501      C15     -H52     :   1.093466
 C40     -C41     :   1.390686      C40     -H53     :   1.086558
 C41     -C42     :   1.393687      C41     -H54     :   1.088055
 C42     -C43     :   1.390112      C42     -H55     :   1.087815
 C43     -C44     :   1.403132      C43     -H56     :   1.087507
 C44     -C45     :   1.492537      C45     -C22     :   1.407415
 C45     -C26     :   1.407386      C22     -C23     :   1.401620
 C22     -O29     :   1.354179      C23     -C24     :   1.390391
 C23     -H57     :   1.084405      C24     -C25     :   1.392700
 C24     -H58     :   1.087948      C25     -C26     :   1.401206
 C25     -H59     :   1.084472      C26     -O27     :   1.356966
 O27     -C28     :   1.419757      C28     -H60     :   1.091480
 C28     -H85     :   1.097533      C28     -H86     :   1.097969
 O29     -C30     :   1.419686      C30     -H87     :   1.096975
 C30     -H88     :   1.091738      C30     -H89     :   1.098357
 
  bond angles:
 
 C3      -P1      -Pd2     : 108.630554  C4      -P1      -Pd2     : 116.018462
 C4      -P1      -C3      : 105.512560  C5      -P1      -Pd2     : 115.833157
 C5      -P1      -C3      : 103.965387  C5      -P1      -C4      : 105.765004
 N2      -Pd2     -P1      : 101.354265  C19     -Pd2     -P1      :  94.487142
 C19     -Pd2     -N2      : 163.395127  H30     -N2      -Pd2     : 121.121017
 C34     -N2      -Pd2     : 123.094078  C34     -N2      -H30     :  86.688820
 C21     -C16     -C17     : 121.846650  F10     -C16     -C17     : 119.128360
 F10     -C16     -C21     : 119.024556  C18     -C17     -C16     : 118.703530
 H23     -C17     -C16     : 119.633362  H23     -C17     -C18     : 121.646997
 C19     -C18     -C17     : 121.530337  H24     -C18     -C17     : 118.473424
 H24     -C18     -C19     : 119.991836  C18     -C19     -Pd2     : 125.190365
 C20     -C19     -Pd2     : 117.143104  C20     -C19     -C18     : 117.657798
 C21     -C20     -C19     : 121.728645  H25     -C20     -C19     : 119.888991
 H25     -C20     -C21     : 118.379731  C20     -C21     -C16     : 118.520026
 H26     -C21     -C16     : 119.634294  H26     -C21     -C20     : 121.845563
 C36     -C31     -C32     : 119.590980  H37     -C31     -C32     : 120.544415
 H37     -C31     -C36     : 119.864082  C33     -C32     -C31     : 120.522469
 H38     -C32     -C31     : 120.449580  H38     -C32     -C33     : 119.019774
 C34     -C33     -C32     : 120.625965  H39     -C33     -C32     : 119.513520
 H39     -C33     -C34     : 118.923120  C33     -C34     -N2      : 122.045188
 C35     -C34     -N2      : 120.155695  C35     -C34     -C33     : 116.877305
 C36     -C35     -C34     : 120.958408  H40     -C35     -C34     : 117.502249
 H40     -C35     -C36     : 121.533539  C35     -C36     -C31     : 121.349559
 H41     -C36     -C31     : 119.253767  H41     -C36     -C35     : 119.395601
 C6      -C3      -P1      : 115.973234  C10     -C3      -P1      : 112.271241
 C10     -C3      -C6      : 110.918923  H31     -C3      -P1      : 100.876639
 H31     -C3      -C6      : 108.775264  H31     -C3      -C10     : 107.151004
 C11     -C4      -P1      : 110.547357  C15     -C4      -P1      : 116.032627
 C15     -C4      -C11     : 107.973476  H42     -C4      -P1      : 105.354326
 H42     -C4      -C11     : 108.204963  H42     -C4      -C15     : 108.459817
 C40     -C5      -P1      : 118.484261  C44     -C5      -P1      : 123.177984
 C44     -C5      -C40     : 118.336155  C7      -C6      -C3      : 110.813487
 H32     -C6      -C3      : 109.921740  H32     -C6      -C7      : 109.030563
 H33     -C6      -C3      : 110.408975  H33     -C6      -C7      : 109.455364
 H33     -C6      -H32     : 107.127224  C8      -C7      -C6      : 112.185311
 H34     -C7      -C6      : 108.765167  H34     -C7      -C8      : 108.872403
 H35     -C7      -C6      : 109.670694  H35     -C7      -C8      : 110.671022
 H35     -C7      -H34     : 106.491507  C9      -C8      -C7      : 110.826898
 H36     -C8      -C7      : 109.207006  H36     -C8      -C9      : 109.042596
 H61     -C8      -C7      : 110.297769  H61     -C8      -C9      : 110.780946
 H61     -C8      -H36     : 106.573157  C10     -C9      -C8      : 110.757510
 H62     -C9      -C8      : 110.004918  H62     -C9      -C10     : 108.872298
 H63     -C9      -C8      : 110.538338  H63     -C9      -C10     : 109.811545
 H63     -C9      -H62     : 106.760621  C9      -C10     -C3      : 110.472888
 H64     -C10     -C3      : 109.798079  H64     -C10     -C9      : 110.379595
 H65     -C10     -C3      : 109.632563  H65     -C10     -C9      : 108.259168
 H65     -C10     -H64     : 108.251091  C12     -C11     -C4      : 110.675203
 H43     -C11     -C4      : 112.006719  H43     -C11     -C12     : 110.092887
 H44     -C11     -C4      : 108.103008  H44     -C11     -C12     : 109.477852
 H44     -C11     -H43     : 106.348424  C13     -C12     -C11     : 111.145851
 H45     -C12     -C11     : 109.594589  H45     -C12     -C13     : 110.403510
 H46     -C12     -C11     : 109.457956  H46     -C12     -C13     : 109.542269
 H46     -C12     -H45     : 106.586329  C14     -C13     -C12     : 110.903658
 H47     -C13     -C12     : 110.629617  H47     -C13     -C14     : 110.651768
 H48     -C13     -C12     : 108.894003  H48     -C13     -C14     : 108.792954
 H48     -C13     -H47     : 106.849265  C15     -C14     -C13     : 111.105364
 H49     -C14     -C13     : 110.396512  H49     -C14     -C15     : 109.517234
 H50     -C14     -C13     : 109.563624  H50     -C14     -C15     : 109.549839
 H50     -C14     -H49     : 106.601505  C14     -C15     -C4      : 110.422103
 H51     -C15     -C4      : 108.672227  H51     -C15     -C14     : 109.152811
 H52     -C15     -C4      : 112.077981  H52     -C15     -C14     : 110.018158
 H52     -C15     -H51     : 106.371546  C41     -C40     -C5      : 121.945317
 H53     -C40     -C5      : 119.585666  H53     -C40     -C41     : 118.468772
 C42     -C41     -C40     : 119.537277  H54     -C41     -C40     : 119.789995
 H54     -C41     -C42     : 120.672101  C43     -C42     -C41     : 119.210527
 H55     -C42     -C41     : 120.655823  H55     -C42     -C43     : 120.122837
 C44     -C43     -C42     : 121.958559  H56     -C43     -C42     : 119.883045
 H56     -C43     -C44     : 118.153401  C43     -C44     -C5      : 118.884597
 C45     -C44     -C5      : 125.284818  C45     -C44     -C43     : 115.716089
 C22     -C45     -C44     : 121.110131  C26     -C45     -C44     : 120.010903
 C26     -C45     -C22     : 118.281601  C23     -C22     -C45     : 121.044161
 O29     -C22     -C45     : 115.527549  O29     -C22     -C23     : 123.411126
 C24     -C23     -C22     : 119.060796  H57     -C23     -C22     : 120.965709
 H57     -C23     -C24     : 119.970231  C25     -C24     -C23     : 121.425477
 H58     -C24     -C23     : 119.351803  H58     -C24     -C25     : 119.222423
 C26     -C25     -C24     : 119.052263  H59     -C25     -C24     : 119.815637
 H59     -C25     -C26     : 121.131696  C25     -C26     -C45     : 121.043045
 O27     -C26     -C45     : 115.548809  O27     -C26     -C25     : 123.407122
 C28     -O27     -C26     : 118.195204  H60     -C28     -O27     : 105.635379
 H85     -C28     -O27     : 111.165278  H85     -C28     -H60     : 109.495929
 H86     -C28     -O27     : 111.574251  H86     -C28     -H60     : 108.938130
 H86     -C28     -H85     : 109.912434  C30     -O29     -C22     : 118.485557
 H87     -C30     -O29     : 110.927349  H88     -C30     -O29     : 105.686019
 H88     -C30     -H87     : 109.058807  H89     -C30     -O29     : 111.540631
 H89     -C30     -H87     : 110.237505  H89     -C30     -H88     : 109.255494
 
  torsional angles:
 
 P1      -Pd2     -N2      -H30     : 136.831824
 P1      -Pd2     -N2      -C34     :-114.931083
 P1      -Pd2     -C19     -C18     : -58.736194
 P1      -Pd2     -C19     -C20     : 122.367777
 P1      -C3      -C6      -C7      : 175.065280
 P1      -C3      -C6      -H32     : -64.350125
 P1      -C3      -C6      -H33     :  53.623674
 P1      -C3      -C10     -C9      :-170.840658
 P1      -C3      -C10     -H64     : -48.871222
 P1      -C3      -C10     -H65     :  69.932847
 P1      -C4      -C11     -C12     :-172.244094
 P1      -C4      -C11     -H43     : -48.975275
 P1      -C4      -C11     -H44     :  67.866813
 P1      -C4      -C15     -C14     : 175.164376
 P1      -C4      -C15     -H51     : -65.141388
 P1      -C4      -C15     -H52     :  52.125787
 P1      -C5      -C40     -C41     : 176.474976
 P1      -C5      -C40     -H53     :  -3.707865
 P1      -C5      -C44     -C43     :-175.648723
 P1      -C5      -C44     -C45     :   8.417918
 Pd2     -P1      -C3      -C6      :-167.391742
 Pd2     -P1      -C3      -C10     :  63.654884
 Pd2     -P1      -C3      -H31     : -50.122561
 Pd2     -P1      -C4      -C11     : -36.594867
 Pd2     -P1      -C4      -C15     :  86.760475
 Pd2     -P1      -C4      -H42     :-153.268992
 Pd2     -P1      -C5      -C40     :-160.834424
 Pd2     -P1      -C5      -C44     :  18.697300
 Pd2     -N2      -C34     -C33     : -61.281775
 Pd2     -N2      -C34     -C35     : 107.384847
 Pd2     -C19     -C18     -C17     :-177.825539
 Pd2     -C19     -C18     -H24     :   2.949623
 Pd2     -C19     -C20     -C21     : 178.882265
 Pd2     -C19     -C20     -H25     :  -0.517750
 N2      -Pd2     -P1      -C3      :  13.729127
 N2      -Pd2     -P1      -C4      : 132.325338
 N2      -Pd2     -P1      -C5      :-102.769389
 N2      -Pd2     -C19     -C18     : 138.670315
 N2      -Pd2     -C19     -C20     : -40.225714
 N2      -C34     -C33     -C32     : 172.321296
 N2      -C34     -C33     -H39     : -18.810716
 N2      -C34     -C35     -C36     :-171.923484
 N2      -C34     -C35     -H40     :   8.939802
 C16     -C17     -C18     -C19     :  -1.331706
 C16     -C17     -C18     -H24     : 177.904545
 C16     -C21     -C20     -C19     :  -0.570960
 C16     -C21     -C20     -H25     : 178.837801
 C17     -C16     -C21     -C20     :   0.302245
 C17     -C16     -C21     -H26     :-179.819531
 C17     -C18     -C19     -C20     :   1.065337
 C18     -C17     -C16     -C21     :   0.627588
 C18     -C17     -C16     -F10     :-179.130329
 C18     -C19     -C20     -C21     :  -0.099143
 C18     -C19     -C20     -H25     :-179.499159
 C19     -Pd2     -P1      -C3      :-161.268653
 C19     -Pd2     -P1      -C4      : -42.672442
 C19     -Pd2     -P1      -C5      :  82.232831
 C19     -Pd2     -N2      -H30     : -60.877351
 C19     -Pd2     -N2      -C34     :  47.359742
 C19     -C18     -C17     -H23     :-179.865711
 C19     -C20     -C21     -H26     : 179.553644
 C20     -C19     -C18     -H24     :-178.159501
 C20     -C21     -C16     -F10     :-179.939593
 C21     -C16     -C17     -H23     : 179.191808
 F10     -C16     -C17     -H23     :  -0.566110
 F10     -C16     -C21     -H26     :  -0.061369
 H23     -C17     -C18     -H24     :  -0.629460
 H25     -C20     -C21     -H26     :  -1.037595
 H30     -N2      -C34     -C33     :  64.186580
 H30     -N2      -C34     -C35     :-127.146799
 C31     -C32     -C33     -C34     :  -2.321406
 C31     -C32     -C33     -H39     :-171.124222
 C31     -C36     -C35     -C34     :   1.063473
 C31     -C36     -C35     -H40     :-179.834920
 C32     -C31     -C36     -C35     :   0.063112
 C32     -C31     -C36     -H41     :-179.557745
 C32     -C33     -C34     -C35     :   3.303252
 C33     -C32     -C31     -C36     :   0.571988
 C33     -C32     -C31     -H37     :-179.164404
 C33     -C34     -C35     -C36     :  -2.686491
 C33     -C34     -C35     -H40     : 178.176795
 C34     -C33     -C32     -H38     : 178.714192
 C34     -C35     -C36     -H41     :-179.316198
 C35     -C34     -C33     -H39     : 172.171240
 C35     -C36     -C31     -H37     : 179.801319
 C36     -C31     -C32     -H38     : 179.521520
 H37     -C31     -C32     -H38     :  -0.214871
 H37     -C31     -C36     -H41     :   0.180462
 H38     -C32     -C33     -H39     :   9.911376
 H40     -C35     -C36     -H41     :  -0.214591
 C3      -P1      -C4      -C11     :  83.697893
 C3      -P1      -C4      -C15     :-152.946764
 C3      -P1      -C4      -H42     : -32.976231
 C3      -P1      -C5      -C40     :  80.078220
 C3      -P1      -C5      -C44     :-100.390056
 C3      -C6      -C7      -C8      :  54.152049
 C3      -C6      -C7      -H34     : -66.344153
 C3      -C6      -C7      -H35     : 177.562057
 C3      -C10     -C9      -C8      : -58.036026
 C3      -C10     -C9      -H62     :  63.041315
 C3      -C10     -C9      -H63     : 179.597553
 C4      -P1      -C3      -C6      :  67.579076
 C4      -P1      -C3      -C10     : -61.374297
 C4      -P1      -C3      -H31     :-175.151743
 C4      -P1      -C5      -C40     : -30.811775
 C4      -P1      -C5      -C44     : 148.719949
 C4      -C11     -C12     -C13     : -57.803863
 C4      -C11     -C12     -H45     : 179.888530
 C4      -C11     -C12     -H46     :  63.329112
 C4      -C15     -C14     -C13     :  58.577888
 C4      -C15     -C14     -H49     :-179.202904
 C4      -C15     -C14     -H50     : -62.616786
 C5      -P1      -C3      -C6      : -43.495186
 C5      -P1      -C3      -C10     :-172.448560
 C5      -P1      -C3      -H31     :  73.773995
 C5      -P1      -C4      -C11     :-166.510041
 C5      -P1      -C4      -C15     : -43.154699
 C5      -P1      -C4      -H42     :  76.815834
 C5      -C40     -C41     -C42     :  -0.011078
 C5      -C40     -C41     -H54     :-179.725069
 C5      -C44     -C43     -C42     :  -1.752733
 C5      -C44     -C43     -H56     : 179.061779
 C5      -C44     -C45     -C22     :-113.944789
 C5      -C44     -C45     -C26     :  75.068927
 C6      -C3      -C10     -C9      :  57.615289
 C6      -C3      -C10     -H64     : 179.584725
 C6      -C3      -C10     -H65     : -61.611206
 C6      -C7      -C8      -C9      : -54.659301
 C6      -C7      -C8      -H36     :  65.484957
 C6      -C7      -C8      -H61     :-177.713383
 C7      -C6      -C3      -C10     : -55.326879
 C7      -C6      -C3      -H31     :  62.278835
 C7      -C8      -C9      -C10     :  56.344658
 C7      -C8      -C9      -H62     : -64.060573
 C7      -C8      -C9      -H63     : 178.286256
 C8      -C7      -C6      -H32     : -66.960231
 C8      -C7      -C6      -H33     : 176.153109
 C8      -C9      -C10     -H64     :-179.662420
 C8      -C9      -C10     -H65     :  62.019018
 C9      -C8      -C7      -H34     :  65.774772
 C9      -C8      -C7      -H35     :-177.506211
 C9      -C10     -C3      -H31     : -60.976746
 C10     -C3      -C6      -H32     :  65.257715
 C10     -C3      -C6      -H33     :-176.768485
 C10     -C9      -C8      -H36     : -63.897582
 C10     -C9      -C8      -H61     : 179.119060
 C11     -C4      -C15     -C14     : -60.147837
 C11     -C4      -C15     -H51     :  59.546400
 C11     -C4      -C15     -H52     : 176.813574
 C11     -C12     -C13     -C14     :  54.514208
 C11     -C12     -C13     -H47     : 177.688583
 C11     -C12     -C13     -H48     : -65.169159
 C12     -C11     -C4      -C15     :  59.851660
 C12     -C11     -C4      -H42     : -57.349504
 C12     -C13     -C14     -C15     : -54.930664
 C12     -C13     -C14     -H49     :-176.638181
 C12     -C13     -C14     -H50     :  66.255921
 C13     -C12     -C11     -H43     : 177.827761
 C13     -C12     -C11     -H44     :  61.257575
 C13     -C14     -C15     -H51     : -60.825896
 C13     -C14     -C15     -H52     :-177.191918
 C14     -C13     -C12     -H45     : 176.351987
 C14     -C13     -C12     -H46     : -66.569289
 C14     -C15     -C4      -H42     :  56.888441
 C15     -C4      -C11     -H43     :-176.879520
 C15     -C4      -C11     -H44     : -60.037433
 C15     -C14     -C13     -H47     :-178.092272
 C15     -C14     -C13     -H48     :  64.813130
 C40     -C5      -C44     -C43     :   3.883655
 C40     -C5      -C44     -C45     :-172.049704
 C40     -C41     -C42     -C43     :   2.240741
 C40     -C41     -C42     -H55     :-178.954030
 C41     -C40     -C5      -C44     :  -3.079733
 C41     -C42     -C43     -C44     :  -1.361606
 C41     -C42     -C43     -H56     : 177.810125
 C42     -C41     -C40     -H53     :-179.830204
 C42     -C43     -C44     -C45     : 174.563331
 C43     -C42     -C41     -H54     :-178.047846
 C43     -C44     -C45     -C22     :  70.007196
 C43     -C44     -C45     -C26     :-100.979087
 C44     -C5      -C40     -H53     : 176.737425
 C44     -C43     -C42     -H55     : 179.826663
 C44     -C45     -C22     -C23     :-174.852915
 C44     -C45     -C22     -O29     :   3.689861
 C44     -C45     -C26     -C25     : 173.764467
 C44     -C45     -C26     -O27     :  -5.879546
 C45     -C44     -C43     -H56     :  -4.622157
 C45     -C22     -C23     -C24     :   2.501276
 C45     -C22     -C23     -H57     :-178.156257
 C45     -C22     -O29     -C30     : 168.593059
 C45     -C26     -C25     -C24     :  -0.149456
 C45     -C26     -C25     -H59     : 179.619032
 C45     -C26     -O27     -C28     :-174.790635
 C22     -C45     -C26     -C25     :   2.525888
 C22     -C45     -C26     -O27     :-177.118126
 C22     -C23     -C24     -C25     :  -0.018234
 C22     -C23     -C24     -H58     : 179.782078
 C22     -O29     -C30     -H87     : -55.994627
 C22     -O29     -C30     -H88     :-174.062265
 C22     -O29     -C30     -H89     :  67.310587
 C23     -C22     -C45     -C26     :  -3.714954
 C23     -C22     -O29     -C30     : -12.902631
 C23     -C24     -C25     -C26     :  -1.141389
 C23     -C24     -C25     -H59     : 179.087014
 C24     -C23     -C22     -O29     :-175.923396
 C24     -C25     -C26     -O27     : 179.465799
 C25     -C24     -C23     -H57     :-179.367388
 C25     -C26     -O27     -C28     :   5.574733
 C26     -C45     -C22     -O29     : 174.827822
 C26     -C25     -C24     -H58     : 179.058046
 C26     -O27     -C28     -H60     : 179.127558
 C26     -O27     -C28     -H85     :  60.442612
 C26     -O27     -C28     -H86     : -62.638635
 O27     -C26     -C25     -H59     :  -0.765713
 O29     -C22     -C23     -H57     :   3.419071
 H31     -C3      -C6      -H32     :-177.136570
 H31     -C3      -C6      -H33     : -59.162771
 H31     -C3      -C10     -H64     :  60.992690
 H31     -C3      -C10     -H65     : 179.796759
 H32     -C6      -C7      -H34     : 172.543567
 H32     -C6      -C7      -H35     :  56.449777
 H33     -C6      -C7      -H34     :  55.656907
 H33     -C6      -C7      -H35     : -60.436883
 H34     -C7      -C8      -H36     :-174.080970
 H34     -C7      -C8      -H61     : -57.279310
 H35     -C7      -C8      -H36     : -57.361953
 H35     -C7      -C8      -H61     :  59.439707
 H36     -C8      -C9      -H62     : 175.697187
 H36     -C8      -C9      -H63     :  58.044016
 H61     -C8      -C9      -H62     :  58.713830
 H61     -C8      -C9      -H63     : -58.939342
 H62     -C9      -C10     -H64     : -58.585080
 H62     -C9      -C10     -H65     :-176.903642
 H63     -C9      -C10     -H64     :  57.971159
 H63     -C9      -C10     -H65     : -60.347403
 H42     -C4      -C11     -H43     :  65.919315
 H42     -C4      -C11     -H44     :-177.238597
 H42     -C4      -C15     -H51     : 176.582677
 H42     -C4      -C15     -H52     : -66.150148
 H43     -C11     -C12     -H45     :  55.520153
 H43     -C11     -C12     -H46     : -61.039264
 H44     -C11     -C12     -H45     : -61.050032
 H44     -C11     -C12     -H46     :-177.609450
 H45     -C12     -C13     -H47     : -60.473638
 H45     -C12     -C13     -H48     :  56.668620
 H46     -C12     -C13     -H47     :  56.605086
 H46     -C12     -C13     -H48     : 173.747344
 H47     -C13     -C14     -H49     :  60.200211
 H47     -C13     -C14     -H50     : -56.905687
 H48     -C13     -C14     -H49     : -56.894387
 H48     -C13     -C14     -H50     :-174.000285
 H49     -C14     -C15     -H51     :  61.393312
 H49     -C14     -C15     -H52     : -54.972709
 H50     -C14     -C15     -H51     : 177.979430
 H50     -C14     -C15     -H52     :  61.613408
 H53     -C40     -C41     -H54     :   0.455805
 H54     -C41     -C42     -H55     :   0.757384
 H55     -C42     -C43     -H56     :  -1.001606
 H57     -C23     -C24     -H58     :   0.432924
 H58     -C24     -C25     -H59     :  -0.713551
 
  nuclear repulsion energy.......          6499.406957353 hartrees
  
  Detected an organometallic with only one TM atom. 
  
  Oxidation state on metal       2 is     2
  Formal multiplet on metal      2 is     1
  Formal charge on ligand        3 is    -1
  Formal multiplet on ligand     3 is     1
  Formal charge on ligand        4 is    -1
  Formal multiplet on ligand     4 is     1
  
 
  Will use High-Quality Initial guess for organometallics
       including d-d repulsion (iguess=30)
 
 Non-default options chosen:
   SCF calculation type: DFT(b3pw91-d3)              
   DFT=Becke_3_Parameter/HF+Slater+Becke88+PW91+PW-GGAIIC (B3PW91-D3)
   Geometry will be optimized in redundant internal coordinates
   Solvation energy will be computed using PBF
     -solute cavity energy will not be included
     -surface area terms will not be included
   Vibrational frequencies and related properties will be computed
      from analytic second derivatives
   IR intensities will be computed
   Thermochemical properties will be computed
   Maximum number of geometry steps: 100
   Scaling standard convergence criteria by a factor of   5.00
   Solvent: benzene                                                         
   Internal dielectric constant:    1.000
   Continuum dielectric constant:   2.283
   Solvent probe molecule radius:   2.600
  
 Non-default print settings:
     11=  2
  
 Temporary integer options set:
     21= -1  73=  2
  
  atom       vdw   vdw2    cov     mass  grid  daf  charge   basis
  P1        2.147  2.074  1.060   30.974    Y    Y      Y    ps_6-31g*
  Pd2       1.450  1.450  1.280  105.903    Y    Y      Y    lacv3p*
  N2        1.831  1.600  0.750   14.003    Y    Y      Y    ps_6-31g*
  C16       1.949  1.900  0.770   12.000    Y    Y      Y    ps_6-31g*
  C17       1.949  1.900  0.770   12.000    Y    Y      Y    ps_6-31g*
  C18       1.949  1.900  0.770   12.000    Y    Y      Y    ps_6-31g*
  C19       1.949  1.900  0.770   12.000    Y    Y      Y    ps_6-31g*
  C20       1.949  1.900  0.770   12.000    Y    Y      Y    ps_6-31g*
  C21       1.949  1.900  0.770   12.000    Y    Y      Y    ps_6-31g*
  F10       1.736  1.682  0.720   18.998    Y    Y      Y    ps_6-31g*
  H23       1.597  1.150  0.320    1.008    Y    Y      Y    ps_6-31g*
  H24       1.597  1.150  0.320    1.008    Y    Y      Y    ps_6-31g*
  H25       1.597  1.150  0.320    1.008    Y    Y      Y    ps_6-31g*
  H26       1.597  1.150  0.320    1.008    Y    Y      Y    ps_6-31g*
  H30       1.597  1.150  0.320    1.008    Y    Y      Y    ps_6-31g*
  C31       1.949  1.900  0.770   12.000    Y    Y      Y    ps_6-31g*
  C32       1.949  1.900  0.770   12.000    Y    Y      Y    ps_6-31g*
  C33       1.949  1.900  0.770   12.000    Y    Y      Y    ps_6-31g*
  C34       1.949  1.900  0.770   12.000    Y    Y      Y    ps_6-31g*
  C35       1.949  1.900  0.770   12.000    Y    Y      Y    ps_6-31g*
  C36       1.949  1.900  0.770   12.000    Y    Y      Y    ps_6-31g*
  H37       1.597  1.150  0.320    1.008    Y    Y      Y    ps_6-31g*
  H38       1.597  1.150  0.320    1.008    Y    Y      Y    ps_6-31g*
  H39       1.597  1.150  0.320    1.008    Y    Y      Y    ps_6-31g*
  H40       1.597  1.150  0.320    1.008    Y    Y      Y    ps_6-31g*
  H41       1.597  1.150  0.320    1.008    Y    Y      Y    ps_6-31g*
  C3        1.949  1.900  0.770   12.000    Y    Y      Y    ps_6-31g*
  C4        1.949  1.900  0.770   12.000    Y    Y      Y    ps_6-31g*
  C5        1.949  1.900  0.770   12.000    Y    Y      Y    ps_6-31g*
  C6        1.949  1.900  0.770   12.000    Y    Y      Y    ps_6-31g*
  C7        1.949  1.900  0.770   12.000    Y    Y      Y    ps_6-31g*
  C8        1.949  1.900  0.770   12.000    Y    Y      Y    ps_6-31g*
  C9        1.949  1.900  0.770   12.000    Y    Y      Y    ps_6-31g*
  C10       1.949  1.900  0.770   12.000    Y    Y      Y    ps_6-31g*
  C11       1.949  1.900  0.770   12.000    Y    Y      Y    ps_6-31g*
  C12       1.949  1.900  0.770   12.000    Y    Y      Y    ps_6-31g*
  C13       1.949  1.900  0.770   12.000    Y    Y      Y    ps_6-31g*
  C14       1.949  1.900  0.770   12.000    Y    Y      Y    ps_6-31g*
  C15       1.949  1.900  0.770   12.000    Y    Y      Y    ps_6-31g*
  C40       1.949  1.900  0.770   12.000    Y    Y      Y    ps_6-31g*
  C41       1.949  1.900  0.770   12.000    Y    Y      Y    ps_6-31g*
  C42       1.949  1.900  0.770   12.000    Y    Y      Y    ps_6-31g*
  C43       1.949  1.900  0.770   12.000    Y    Y      Y    ps_6-31g*
  C44       1.949  1.900  0.770   12.000    Y    Y      Y    ps_6-31g*
  C45       1.949  1.900  0.770   12.000    Y    Y      Y    ps_6-31g*
  C22       1.949  1.900  0.770   12.000    Y    Y      Y    ps_6-31g*
  C23       1.949  1.900  0.770   12.000    Y    Y      Y    ps_6-31g*
  C24       1.949  1.900  0.770   12.000    Y    Y      Y    ps_6-31g*
  C25       1.949  1.900  0.770   12.000    Y    Y      Y    ps_6-31g*
  C26       1.949  1.900  0.770   12.000    Y    Y      Y    ps_6-31g*
  O27       1.702  1.600  0.730   15.995    Y    Y      Y    ps_6-31g*
  C28       1.949  1.900  0.770   12.000    Y    Y      Y    ps_6-31g*
  O29       1.702  1.600  0.730   15.995    Y    Y      Y    ps_6-31g*
  C30       1.949  1.900  0.770   12.000    Y    Y      Y    ps_6-31g*
  H31       1.597  1.150  0.320    1.008    Y    Y      Y    ps_6-31g*
  H32       1.597  1.150  0.320    1.008    Y    Y      Y    ps_6-31g*
  H33       1.597  1.150  0.320    1.008    Y    Y      Y    ps_6-31g*
  H34       1.597  1.150  0.320    1.008    Y    Y      Y    ps_6-31g*
  H35       1.597  1.150  0.320    1.008    Y    Y      Y    ps_6-31g*
  H36       1.597  1.150  0.320    1.008    Y    Y      Y    ps_6-31g*
  H61       1.597  1.150  0.320    1.008    Y    Y      Y    ps_6-31g*
  H62       1.597  1.150  0.320    1.008    Y    Y      Y    ps_6-31g*
  H63       1.597  1.150  0.320    1.008    Y    Y      Y    ps_6-31g*
  H64       1.597  1.150  0.320    1.008    Y    Y      Y    ps_6-31g*
  H65       1.597  1.150  0.320    1.008    Y    Y      Y    ps_6-31g*
  H42       1.597  1.150  0.320    1.008    Y    Y      Y    ps_6-31g*
  H43       1.597  1.150  0.320    1.008    Y    Y      Y    ps_6-31g*
  H44       1.597  1.150  0.320    1.008    Y    Y      Y    ps_6-31g*
  H45       1.597  1.150  0.320    1.008    Y    Y      Y    ps_6-31g*
  H46       1.597  1.150  0.320    1.008    Y    Y      Y    ps_6-31g*
  H47       1.597  1.150  0.320    1.008    Y    Y      Y    ps_6-31g*
  H48       1.597  1.150  0.320    1.008    Y    Y      Y    ps_6-31g*
  H49       1.597  1.150  0.320    1.008    Y    Y      Y    ps_6-31g*
  H50       1.597  1.150  0.320    1.008    Y    Y      Y    ps_6-31g*
  H51       1.597  1.150  0.320    1.008    Y    Y      Y    ps_6-31g*
  H52       1.597  1.150  0.320    1.008    Y    Y      Y    ps_6-31g*
  H53       1.597  1.150  0.320    1.008    Y    Y      Y    ps_6-31g*
  H54       1.597  1.150  0.320    1.008    Y    Y      Y    ps_6-31g*
  H55       1.597  1.150  0.320    1.008    Y    Y      Y    ps_6-31g*
  H56       1.597  1.150  0.320    1.008    Y    Y      Y    ps_6-31g*
  H57       1.597  1.150  0.320    1.008    Y    Y      Y    ps_6-31g*
  H58       1.597  1.150  0.320    1.008    Y    Y      Y    ps_6-31g*
  H59       1.597  1.150  0.320    1.008    Y    Y      Y    ps_6-31g*
  H60       1.597  1.150  0.320    1.008    Y    Y      Y    ps_6-31g*
  H85       1.597  1.150  0.320    1.008    Y    Y      Y    ps_6-31g*
  H86       1.597  1.150  0.320    1.008    Y    Y      Y    ps_6-31g*
  H87       1.597  1.150  0.320    1.008    Y    Y      Y    ps_6-31g*
  H88       1.597  1.150  0.320    1.008    Y    Y      Y    ps_6-31g*
  H89       1.597  1.150  0.320    1.008    Y    Y      Y    ps_6-31g*
 
  atom      formal  2spin      esp    mulk    frag
  P1           0       0        Y    0.000       0
  Pd2          2       0        Y    0.000       0
  N2          -1       0        Y    0.000       0
  C16         -1       0        Y    0.000       0
  
  end of program pre
   
 Time(pre)  user:       1.806  user+sys:       1.806  wallclock:       1.251
  
  start of program onee
  
  smallest eigenvalue of S:    3.882E-04
  number of canonical orbitals.....          725
  end of program onee
   
 Time(onee)  user:       8.195  user+sys:       8.195  wallclock:       1.531
  
  start of program hfig
  
  initial wavefunction generated automatically from atomic wavefunctions
  Only one state below 0.010000
  Skip d-d repulsion considerations 
 
  Irreducible     Total no   No of occupied orbitals 
  representation  orbitals   Shell_1  Shell_2    ...
  No Symm          725        169
  ------------------------
  Orbital occupation/shell    1.000
 
  end of program hfig
   
 Time(hfig)  user:       1.916  user+sys:       1.916  wallclock:       1.242
  
  start of program probe
  
  end of program probe
   
 Time(probe)  user:       1.663  user+sys:       1.663  wallclock:       0.790
  
  start of program grid
  
   grid     grid set  grid #  grid sym
  ------    --------  ------  --------
  coarse        0        0        1
  medium        2        1        1
  fine          0        0        1
  ultrafine     4        2        1
  charge       -1        3        1
  gradient      4        2        1
  density       0        0        1
  DFT-fine    -11        4        1
  DFT-med.    -10        5        1
  DFT-grad    -12        6        1
  DFT-der2     -8        7        1
  DFT-cphf     -9        8        1
  LMP2-enrg     4        2        1
  LMP2-grad     2        1        1
  DFT-cphf2   -15        9        1
  PBF-dens      0        0        1
  plotting      0        0        1
  Rel-grad    -17        0        1
  
  number of gridpoints: 
     atom           P1         Pd2          N2         C16         C17         C18         C19
  grid # 1         608         362         105          79          93          95         100
  grid # 2         425         320         381         329         319         317         394
  grid # 3           6         282           6          32          15           8          16
  grid # 4        8714        8714        8714        8714        8714        8714        8714
  grid # 5        1192        1192        1192        1192        1192        1192        1192
  grid # 6        9132        9132        5922        5922        5922        5922        5922
  grid # 7       23034       32968       13958       13950       13950       13950       13950
  grid # 8         722        1150         756         748         748         748         748
  grid # 9         366        2198         406         394         394         394         394
   
  number of gridpoints: 
     atom          C20         C21         F10         H23         H24         H25         H26
  grid # 1          96          94         584         112         108         116         115
  grid # 2         326         320         566         459         432         459         464
  grid # 3          23          33         354         325          83         283         398
  grid # 4        8714        8714        8714        8714        8714        8714        8714
  grid # 5        1192        1192        1192        1192        1192        1192        1192
  grid # 6        5922        5922        5922        5922        5922        5922        5922
  grid # 7       13950       13950       23190       15206       15206       15206       15206
  grid # 8         748         748         770         786         786         786         786
  grid # 9         394         394         420         420         420         420         420
   
  number of gridpoints: 
     atom          H30         C31         C32         C33         C34         C35         C36
  grid # 1         106          97          97          96          94          94          96
  grid # 2         423         327         327         330         341         324         327
  grid # 3         144          50          49          41          24          31          45
  grid # 4        8714        8714        8714        8714        8714        8714        8714
  grid # 5        1192        1192        1192        1192        1192        1192        1192
  grid # 6        5922        5922        5922        5922        5922        5922        5922
  grid # 7       15206       13950       13950       13950       13950       13950       13950
  grid # 8         786         748         748         748         748         748         748
  grid # 9         420         394         394         394         394         394         394
   
  number of gridpoints: 
     atom          H37         H38         H39         H40         H41          C3          C4
  grid # 1         118         118         115          98         116          81          80
  grid # 2         467         466         461         406         462         328         330
  grid # 3         421         417         312          78         357           6           6
  grid # 4        8714        8714        8714        8714        8714        8714        8714
  grid # 5        1192        1192        1192        1192        1192        1192        1192
  grid # 6        5922        5922        5922        5922        5922        5922        5922
  grid # 7       15206       15206       15206       15206       15206       13950       13950
  grid # 8         786         786         786         786         786         748         748
  grid # 9         420         420         420         420         420         394         394
   
  number of gridpoints: 
     atom           C5          C6          C7          C8          C9         C10         C11
  grid # 1          95          92          92          92          92          91          90
  grid # 2         384         277         277         278         277         276         279
  grid # 3          10           6           6           6           6           6           6
  grid # 4        8714        8714        8714        8714        8714        8714        8714
  grid # 5        1192        1192        1192        1192        1192        1192        1192
  grid # 6        5922        5922        5922        5922        5922        5922        5922
  grid # 7       13950       13950       13950       13950       13950       13950       13950
  grid # 8         748         748         748         748         748         748         748
  grid # 9         394         394         394         394         394         394         394
   
  number of gridpoints: 
     atom          C12         C13         C14         C15         C40         C41         C42
  grid # 1          92          92          92          92          93          95          97
  grid # 2         279         278         279         280         323         324         324
  grid # 3           6           6           6           6          10          32          47
  grid # 4        8714        8714        8714        8714        8714        8714        8714
  grid # 5        1192        1192        1192        1192        1192        1192        1192
  grid # 6        5922        5922        5922        5922        5922        5922        5922
  grid # 7       13950       13950       13950       13950       13950       13950       13950
  grid # 8         748         748         748         748         748         748         748
  grid # 9         394         394         394         394         394         394         394
   
  number of gridpoints: 
     atom          C43         C44         C45         C22         C23         C24         C25
  grid # 1          95          99         100          92          96          96          96
  grid # 2         327         358         360         347         323         325         321
  grid # 3          29          12          10          18          31          32          29
  grid # 4        8714        8714        8714        8714        8714        8714        8714
  grid # 5        1192        1192        1192        1192        1192        1192        1192
  grid # 6        5922        5922        5922        5922        5922        5922        5922
  grid # 7       13950       13950       13950       13950       13950       13950       13950
  grid # 8         748         748         748         748         748         748         748
  grid # 9         394         394         394         394         394         394         394
   
  number of gridpoints: 
     atom          C26         O27         C28         O29         C30         H31         H32
  grid # 1          91         118          76         117          75          98         106
  grid # 2         346         446         226         440         226         415         437
  grid # 3          25          59           6          43           6          21         149
  grid # 4        8714        8714        8714        8714        8714        8714        8714
  grid # 5        1192        1192        1192        1192        1192        1192        1192
  grid # 6        5922        5922        5922        5922        5922        5922        5922
  grid # 7       13950       23382       13950       23382       13950       15206       15206
  grid # 8         748         774         748         774         748         786         786
  grid # 9         394         416         394         416         394         420         420
   
  number of gridpoints: 
     atom          H33         H34         H35         H36         H61         H62         H63
  grid # 1         106         106         112         110         112         101         109
  grid # 2         438         436         455         451         459         413         447
  grid # 3         163         142         324         261         329         116         227
  grid # 4        8714        8714        8714        8714        8714        8714        8714
  grid # 5        1192        1192        1192        1192        1192        1192        1192
  grid # 6        5922        5922        5922        5922        5922        5922        5922
  grid # 7       15206       15206       15206       15206       15206       15206       15206
  grid # 8         786         786         786         786         786         786         786
  grid # 9         420         420         420         420         420         420         420
   
  number of gridpoints: 
     atom          H64         H65         H42         H43         H44         H45         H46
  grid # 1         101         103         102         102         103         112         110
  grid # 2         419         426         418         423         421         455         448
  grid # 3          73         112          58         120          69         322         247
  grid # 4        8714        8714        8714        8714        8714        8714        8714
  grid # 5        1192        1192        1192        1192        1192        1192        1192
  grid # 6        5922        5922        5922        5922        5922        5922        5922
  grid # 7       15206       15206       15206       15206       15206       15206       15206
  grid # 8         786         786         786         786         786         786         786
  grid # 9         420         420         420         420         420         420         420
   
  number of gridpoints: 
     atom          H47         H48         H49         H50         H51         H52         H53
  grid # 1         112         109         112         110         104         106         106
  grid # 2         456         449         455         449         422         434         429
  grid # 3         331         215         320         254          64         143         119
  grid # 4        8714        8714        8714        8714        8714        8714        8714
  grid # 5        1192        1192        1192        1192        1192        1192        1192
  grid # 6        5922        5922        5922        5922        5922        5922        5922
  grid # 7       15206       15206       15206       15206       15206       15206       15206
  grid # 8         786         786         786         786         786         786         786
  grid # 9         420         420         420         420         420         420         420
   
  number of gridpoints: 
     atom          H54         H55         H56         H57         H58         H59         H60
  grid # 1         118         118         115         111         117         111         106
  grid # 2         465         468         457         444         466         438         443
  grid # 3         409         426         322         256         393         219         222
  grid # 4        8714        8714        8714        8714        8714        8714        8714
  grid # 5        1192        1192        1192        1192        1192        1192        1192
  grid # 6        5922        5922        5922        5922        5922        5922        5922
  grid # 7       15206       15206       15206       15206       15206       15206       15206
  grid # 8         786         786         786         786         786         786         786
  grid # 9         420         420         420         420         420         420         420
   
  number of gridpoints: 
     atom          H85         H86         H87         H88         H89       total
  grid # 1         107         109         109         108         110       10312
  grid # 2         434         448         442         452         450       34472
  grid # 3         163         317         220         293         319       12042
  grid # 4        8714        8714        8714        8714        8714      775546
  grid # 5        1192        1192        1192        1192        1192      106088
  grid # 6        5922        5922        5922        5922        5922      533478
  grid # 7       15206       15206       15206       15206       15206     1354284
  grid # 8         786         786         786         786         786       68740
  grid # 9         420         420         420         420         420       38094
   
  end of program grid
   
 Time(grid)  user:     489.934  user+sys:     489.934  wallclock:      36.274
  
  start of program rwr
  
  end of program rwr
   
 Time(rwr)  user:      77.249  user+sys:      77.249  wallclock:      18.800
  
  start of program scf
  
 number of electrons..........        338
 number of alpha electrons....        169
 number of beta electrons.....        169
 number of orbitals, total....        725
 number of doubly-occ'd orbs..        169
 number of open shell orbs....          0
 number of occupied orbitals..        169
 number of virtual orbitals...        556
 number of hamiltonians.......          1
 number of shells.............          1
 SCF type: DFT=Becke_3_Parameter/HF+Slater+Becke88+PW91+PW-GGAIIC (B3PW91-D3)
 Energy computed using pseudospectral method.
 Convergence Criterion:
    Energy (econv):       1.00E-05
    RMS density (dconv):  5.00E-06
  
       i  u  d  i  g                   
       t  p  i  c  r                                 RMS    maximum
       e  d  i  u  i                       energy  density   DIIS  
       r  t  s  t  d       total energy    change  change    error 
  
etot    1  N  N  5  M   -2241.99146648070           1.8E-03  1.8E-01
etot    2  Y  Y  6  M   -2245.85066334407  3.9E+00  2.9E-03  1.1E-01
etot    3  Y  Y  6  M   -2246.94036985055  1.1E+00  1.4E-03  6.7E-02
etot    4  N  Y  2  U   -2247.31569500700  3.8E-01  7.9E-04  5.4E-02
etot    5  Y  Y  6  M   -2247.49994305780  1.8E-01  4.6E-04  3.3E-02
etot    6  N  Y  2  U   -2247.51882708193  1.9E-02  6.2E-04  1.9E-02
etot    7  Y  Y  6  M   -2247.52125915445  2.4E-03  9.2E-05  5.5E-03
etot    8  Y  Y  6  M   -2247.52442511574  3.2E-03  3.9E-05  1.2E-03
etot    9  N  Y  2  U   -2247.52547893007  1.1E-03  9.8E-06  2.4E-04
etot   10  N  Y  2  U   -2247.52548749748  8.6E-06  5.1E-06  8.4E-05
etot   11  N  Y  2  U   -2247.52549101692  3.5E-06  2.6E-06  3.3E-05
etot   12  N  N  2  U   -2247.52549180517  7.9E-07  0.0E+00  0.0E+00
 
  Computing the dispersion energy correction and its gradients...
  
  
 Energy components, in hartrees:
   (A)  Nuclear repulsion............    6499.40695735256
   (E)  Total one-electron terms.....  -16065.99388608628
   (F)    Electron-nuclear...........  -18220.66052697678
   (H)    Kinetic....................    2154.66664089050
   (I)  Total two-electron terms.....    7319.06143692855
   (J)    Coulomb....................    7612.31756026657
   (K)    Exchange+Correlation.......    -293.25612333802
   (L)  Electronic energy............   -8746.93244915773  (E+I)
   (N0) D3 correction................      -0.16469356233
   (N)  Total energy.................   -2247.69018536750  (A+L+N0)
   (O)  Gas phase energy.............   -2247.69018536750
  
 SCFE: SCF energy: DFT(b3pw91-d3)     -2247.69018536750 hartrees   iterations:  12
  
 
 HOMO energy:    -0.15177
 LUMO energy:    -0.08193
 
  Orbital energies (hartrees): 
   -77.09847   -24.67967   -19.17053   -19.16778   -14.23553   -10.24706
   -10.23724   -10.23563   -10.21962   -10.21427   -10.20177   -10.20037
   -10.19282   -10.19111   -10.18554   -10.18509   -10.18066   -10.18062
   -10.17918   -10.17646   -10.17401   -10.17277   -10.17240   -10.17127
   -10.16968   -10.16734   -10.16676   -10.16643   -10.16567   -10.16391
   -10.16282   -10.16274   -10.16195   -10.16162   -10.16096   -10.15955
   -10.15878   -10.15863   -10.14014   -10.13944   -10.13316   -10.13256
   -10.12226    -6.59737    -4.75507    -4.75441    -4.75354    -3.34110
    -2.07404    -2.07030    -2.04017    -1.21046    -1.07825    -1.07340
    -0.87977    -0.85560    -0.85511    -0.85369    -0.84563    -0.83789
    -0.79184    -0.79134    -0.78167    -0.75936    -0.75493    -0.75092
    -0.74856    -0.74524    -0.74373    -0.74306    -0.73474    -0.71073
    -0.70811    -0.69256    -0.66919    -0.66462    -0.63357    -0.61821
    -0.61752    -0.61496    -0.61013    -0.60718    -0.59501    -0.59256
    -0.58837    -0.57554    -0.56654    -0.56339    -0.55405    -0.54339
    -0.54207    -0.53494    -0.51757    -0.50636    -0.48980    -0.48651
    -0.48513    -0.48121    -0.47745    -0.47602    -0.47254    -0.46964
    -0.46398    -0.46333    -0.45326    -0.45164    -0.45037    -0.44827
    -0.44465    -0.44418    -0.44086    -0.43552    -0.43041    -0.42940
    -0.42696    -0.42613    -0.42055    -0.41143    -0.41073    -0.41010
    -0.39736    -0.39451    -0.39234    -0.38764    -0.38658    -0.38543
    -0.38223    -0.37928    -0.37615    -0.37515    -0.37327    -0.36819
    -0.36632    -0.36302    -0.36046    -0.35740    -0.34958    -0.34756
    -0.34615    -0.34478    -0.34313    -0.33942    -0.33473    -0.33140
    -0.32852    -0.32454    -0.32225    -0.31724    -0.31096    -0.30749
    -0.30503    -0.30188    -0.30071    -0.29918    -0.29729    -0.28721
    -0.27519    -0.27015    -0.26222    -0.26143    -0.25989    -0.25289
    -0.23883    -0.22647    -0.21872    -0.21775    -0.21304    -0.19856
    -0.15177    -0.08193    -0.03620    -0.01938    -0.00691    -0.00029
     0.00964     0.01695     0.02189     0.03199     0.03585
 
  end of program scf
   
 Time(scf)  user:     686.164  user+sys:     686.164  wallclock:      68.188
  
  start of program der1a
  
  end of program der1a
   
 Time(der1a)  user:      21.424  user+sys:      21.424  wallclock:       2.028
  
  start of program rwr
  
  end of program rwr
   
 Time(rwr)  user:      46.538  user+sys:      46.538  wallclock:      21.123
  
  start of program der1b
  
   
  forces (hartrees/bohr) : total     
   
 atom  label           x              y              z
 ---- --------   -------------  -------------  -------------
    1 P1         -1.791862E-03  -2.044896E-03   1.929794E-03
    2 Pd2         2.110436E-02  -1.029167E-03   4.802335E-03
    3 N2          4.856131E-03   2.716235E-02   2.475183E-03
    4 C16        -5.775941E-03  -1.322837E-03   1.618031E-03
    5 C17         2.447107E-03   1.329111E-03   4.921681E-04
    6 C18        -1.311646E-03   1.448827E-03  -1.075599E-03
    7 C19         2.134358E-03   4.100498E-03  -1.092914E-02
    8 C20         4.795932E-03  -1.905153E-03   1.123094E-03
    9 C21         8.659728E-04   1.207601E-03   1.524389E-03
   10 F10         5.791191E-03   5.774312E-04  -1.528606E-03
   11 H23         6.606008E-04  -5.586543E-04   3.110325E-04
   12 H24         2.158140E-04  -2.858757E-04  -4.167814E-04
   13 H25        -4.073483E-04  -1.628121E-03  -1.458195E-03
   14 H26         6.668467E-04   1.019184E-03  -2.825261E-04
   15 H30        -2.790517E-02   4.416126E-02  -4.681991E-03
   16 C31         6.495889E-03  -4.522869E-03  -1.858097E-02
   17 C32        -1.113955E-02   2.174747E-02   6.020995E-04
   18 C33         2.785946E-02  -3.637999E-03  -1.035878E-02
   19 C34        -1.476412E-02  -7.605532E-02  -4.073114E-03
   20 C35        -6.675980E-03   1.485088E-02   1.763267E-02
   21 C36         4.203554E-03  -1.278566E-02   1.306079E-02
   22 H37        -1.496242E-04  -1.660162E-04  -2.823158E-04
   23 H38         7.606302E-04  -2.631731E-04   9.745835E-04
   24 H39        -7.738641E-03  -1.863711E-03  -2.576332E-03
   25 H40         1.517561E-03  -2.169004E-03   1.764835E-02
   26 H41         8.704211E-04  -6.950033E-04   8.525727E-05
   27 C3          3.255584E-03  -5.693251E-04   3.212328E-03
   28 C4         -1.522809E-03  -7.683263E-04   2.931161E-03
   29 C5         -5.736617E-04   1.989312E-03   3.741880E-03
   30 C6         -2.768740E-03   1.491280E-03  -4.296343E-04
   31 C7          3.331371E-04  -4.475198E-04   1.079811E-03
   32 C8         -4.866945E-04  -3.045420E-04  -2.589036E-04
   33 C9         -2.334013E-03   4.042963E-04  -1.018710E-02
   34 C10        -2.472859E-03   8.137890E-04  -1.298329E-03
   35 C11         7.969068E-04  -3.168053E-04  -3.473020E-04
   36 C12        -2.921891E-04   5.569385E-05  -8.208641E-05
   37 C13        -4.471066E-04  -3.944328E-04   6.750795E-05
   38 C14         3.588350E-05  -3.734169E-04   7.399184E-05
   39 C15         5.113128E-05   6.502617E-04  -6.885757E-05
   40 C40        -2.830377E-04  -1.621678E-03  -5.293111E-04
   41 C41         5.070042E-04  -1.572181E-04   5.718008E-04
   42 C42         8.726683E-04  -1.628083E-03   8.917487E-04
   43 C43        -7.044348E-04  -1.522768E-04  -1.078507E-03
   44 C44         1.277111E-03   9.369315E-04   1.581500E-03
   45 C45         6.593484E-04   6.209545E-04   3.307949E-05
   46 C22         4.359045E-03   2.158969E-04   2.167660E-03
   47 C23        -1.824162E-03  -1.286483E-03  -1.246413E-03
   48 C24         1.811073E-03  -1.745191E-03  -3.029581E-03
   49 C25        -2.574894E-03   1.464978E-03   9.688505E-04
   50 C26         2.038863E-03  -3.229042E-03   3.023703E-03
   51 O27         1.028701E-03  -1.496122E-04  -9.241024E-04
   52 C28        -7.307933E-04  -5.512852E-04   5.129690E-04
   53 O29        -4.915142E-03   2.682801E-04   8.187536E-04
   54 C30         1.406320E-03  -2.105894E-04  -2.165338E-03
   55 H31         5.914780E-05   1.838151E-04   1.638165E-03
   56 H32         6.510600E-05  -2.596127E-04  -2.662532E-04
   57 H33         1.211607E-04   2.645580E-04  -1.470178E-04
   58 H34        -5.087379E-05   1.182519E-04   1.335911E-04
   59 H35        -4.374064E-04   7.610729E-05   1.734068E-04
   60 H36         1.033264E-04   1.224137E-05  -1.941957E-04
   61 H61        -1.909584E-04   1.402741E-04   3.224271E-04
   62 H62         2.355397E-05   1.066693E-03  -1.070379E-02
   63 H63         6.299584E-05   6.667113E-04   7.872943E-04
   64 H64        -1.030882E-03  -1.545205E-03  -1.195431E-03
   65 H65         5.262149E-04  -2.728025E-04   6.131269E-05
   66 H42         1.279020E-03   6.114507E-04   4.749193E-04
   67 H43         3.841503E-05  -2.305727E-05   1.094967E-04
   68 H44        -1.446942E-05   7.219336E-05   2.195808E-05
   69 H45         2.104568E-04   4.085852E-04  -3.216051E-05
   70 H46         3.773889E-05  -9.413562E-06   1.975097E-04
   71 H47         2.278959E-04   2.257882E-04   8.837463E-05
   72 H48         2.892672E-05  -1.080056E-05  -6.828952E-05
   73 H49         3.474580E-04   4.717330E-05   7.199777E-05
   74 H50        -2.975086E-05   5.633725E-06   1.039229E-04
   75 H51        -6.816595E-06  -1.572174E-04  -1.495949E-04
   76 H52        -1.372293E-04  -5.733057E-05   1.591633E-04
   77 H53        -4.778916E-06   1.557049E-04   1.135176E-08
   78 H54         3.323281E-04  -1.649102E-04   5.714808E-04
   79 H55         1.797853E-04  -5.077404E-04   6.125428E-05
   80 H56         5.843938E-05  -8.317618E-04  -4.854714E-05
   81 H57         1.059039E-04  -2.634500E-05  -4.811360E-04
   82 H58        -2.946834E-04   1.036011E-04  -4.591605E-04
   83 H59        -1.125556E-03  -8.468185E-04  -1.705459E-04
   84 H60        -3.425224E-04   2.062696E-04  -2.820159E-04
   85 H85        -2.269460E-03  -7.170224E-04   9.265591E-04
   86 H86        -2.071705E-04   6.310674E-04  -2.304514E-04
   87 H87        -6.428483E-05   2.999188E-04   2.882002E-04
   88 H88         2.224082E-04  -1.250079E-04   3.438974E-05
   89 H89         2.019563E-04  -2.558904E-04  -1.731623E-05
 -------------   -------------  -------------  -------------
     total        2.113585E-03   1.162098E-03  -1.537613E-04
   
  end of program der1b
   
 Time(der1b)  user:     225.850  user+sys:     225.850  wallclock:      20.373
  
  start of program geopt
  
 ----------------------------------------------------------------------------
  Geometry optimization step  1
  Total energy:     -2247.69018536750 hartrees
 ----------------------------------------------------------------------------
  
  
  Level shifts adjusted to satisfy step-size constraints
   Step size:    0.3009707
   Cos(theta):   0.9248788
   Final level shift:  -3.6352933E-01
  
  gradient maximum:        1.1926E-01 .  (  2.2500E-03 )
  gradient rms:            1.5533E-02 .  (  1.5000E-03 )
  displacement maximum:    7.5601E-02 .  (  9.0000E-03 )
  displacement rms:        1.1853E-02 .  (  6.0000E-03 )
  
  predicted energy change:  -4.2824E-02
  step size:     0.21003
  trust radius:  0.30000
  
  molecular structure not yet converged...
  
  center of mass moved by:
     x:     2.6304E-02     y:     3.0955E-02     z:     1.7126E-03
  
  new geometry: 
                                   angstroms
  atom               x                 y                 z
  P1            0.0759895578      0.0524509034     -0.2838378905 
  Pd2           0.3354261073      0.0105526398      1.9754385167 
  N2            2.5313231078      0.0291266118      2.2853701102 
  C16          -4.3310884447     -0.6155221406      2.9179211872 
  C17          -3.9776612896      0.5111756373      2.1907988138 
  C18          -2.6310136830      0.7095265480      1.8718039437 
  C19          -1.6423558664     -0.1901615256      2.2938253909 
  C20          -2.0450802556     -1.3153760505      3.0314218280 
  C21          -3.3869481042     -1.5395075686      3.3447349612 
  F10          -5.6339890711     -0.8251580116      3.2154004281 
  H23          -4.7492030826      1.2038347681      1.8638715044 
  H24          -2.3614612774      1.5737974528      1.2729564412 
  H25          -1.3025709432     -2.0306761341      3.3835881736 
  H26          -3.7051387274     -2.4112349744      3.9108354486 
  H30           2.8966431727      0.6955526792      2.9767157129 
  C31           4.1903766175     -3.4720569762      4.0136540591 
  C32           3.3883866932     -2.6411157818      4.7760482039 
  C33           2.8541129970     -1.4614708892      4.2278170184 
  C34           3.1540372715     -1.0644063377      2.8840832696 
  C35           3.9657240676     -1.9597927575      2.1276362911 
  C36           4.4743883792     -3.1180509919      2.6814207385 
  H37           4.5930381687     -4.3915193012      4.4324627301 
  H38           3.1502296582     -2.8995851170      5.8059696397 
  H39           2.3317318503     -0.7546938496      4.8722188663 
  H40           4.1964989540     -1.6816249994      1.1072073056 
  H41           5.1011135660     -3.7742051781      2.0786621339 
  C3            1.6740536292     -0.3132866835     -1.1921736486 
  C4           -1.1582482041     -1.1627341245     -1.0146275574 
  C5           -0.3817561057      1.7170159326     -0.9137906703 
  C6            1.6406101004      0.0316031708     -2.6879318939 
  C7            3.0124557472     -0.1849762016     -3.3390810694 
  C8            3.5456148861     -1.5975644177     -3.1008854890 
  C9            3.5715991593     -1.9155020439     -1.6053937025 
  C10           2.1781088938     -1.7472461229     -0.9877655250 
  C11          -1.0668377510     -2.5195428306     -0.2859049634 
  C12          -1.9224710644     -3.5732360562     -0.9963845139 
  C13          -3.3841488984     -3.1297405151     -1.0885840790 
  C14          -3.4983138212     -1.7565520646     -1.7533299337 
  C15          -2.6340486011     -0.7213258520     -1.0237853685 
  C40          -0.9547201516      1.8439908153     -2.1895725060 
  C41          -1.3661292864      3.0779525756     -2.6808048516 
  C42          -1.2065253660      4.2198967133     -1.8956856575 
  C43          -0.5992457994      4.1121373749     -0.6494753873 
  C44          -0.1664012886      2.8775459967     -0.1466901111 
  C45           0.5735659434      2.8979429929      1.1486006943 
  C22          -0.0814952242      3.2259693216      2.3497020486 
  C23           0.6266291762      3.3295204880      3.5529293960 
  C24           2.0051567940      3.1489802241      3.5417637036 
  C25           2.6913174184      2.8670580014      2.3651861293 
  C26           1.9711772981      2.7427943460      1.1711769777 
  O27           2.5466706596      2.4604123226     -0.0241501099 
  C28           3.9343784411      2.1694555893     -0.0406400588 
  O29          -1.4156461656      3.4433724224      2.2463671036 
  C30          -2.1789477483      3.5345345953      3.4383926604 
  H31           2.3631390824      0.3715814919     -0.6857647168 
  H32           0.9022175377     -0.6025735501     -3.2020616287 
  H33           1.3299954481      1.0715666166     -2.8333125900 
  H34           3.7224175780      0.5416013778     -2.9182339555 
  H35           2.9478593222      0.0286067895     -4.4140751665 
  H36           2.8947581519     -2.3222480660     -3.6139181722 
  H61           4.5453831585     -1.7069224859     -3.5413307867 
  H62           4.2766772729     -1.2372980645     -1.1086280952 
  H63           3.9321728931     -2.9377909334     -1.4326791252 
  H64           2.1810353725     -1.9964333241      0.0783999374 
  H65           1.5055166669     -2.4500727908     -1.4984997794 
  H42          -0.8165175290     -1.3330348880     -2.0485881455 
  H43          -0.0357732446     -2.8700696947     -0.2011850473 
  H44          -1.4314023231     -2.3811820286      0.7385440529 
  H45          -1.8440303418     -4.5303732108     -0.4643814537 
  H46          -1.5268166956     -3.7438541343     -2.0098579631 
  H47          -3.9799235609     -3.8729718656     -1.6348649028 
  H48          -3.8031172267     -3.0689247944     -0.0730531208 
  H49          -4.5435768345     -1.4206666595     -1.7616669943 
  H50          -3.1822437778     -1.8283170276     -2.8061265893 
  H51          -2.9794870647     -0.6318673810      0.0107304123 
  H52          -2.7656474649      0.2642504477     -1.4787503939 
  H53          -1.0712530897      0.9649558398     -2.8173938346 
  H54          -1.8106401192      3.1438329045     -3.6713386532 
  H55          -1.5368817685      5.1909297352     -2.2572183306 
  H56          -0.4381871132      5.0008382275     -0.0443711421 
  H57           0.1163811129      3.5539565719      4.4828308553 
  H58           2.5609575110      3.2320549387      4.4730218149 
  H59           3.7678751305      2.7426442516      2.3850995434 
  H60           4.1779805536      1.9596189786     -1.0837498741 
  H85           4.1556704204      1.2879268538      0.5751066252 
  H86           4.5302497386      3.0269175695      0.2994053369 
  H87          -2.0507450652      2.6373031439      4.0563227040 
  H88          -3.2203277868      3.6001230984      3.1176582068 
  H89          -1.9197453262      4.4323997411      4.0152903066 
   
 
  bond lengths (angstroms):
 
 P1      -Pd2     :   2.274509      P1      -C3      :   1.874206
 P1      -C4      :   1.879913      P1      -C5      :   1.837702
 Pd2     -N2      :   2.217739      Pd2     -C19     :   2.013275
 N2      -H30     :   1.027395      N2      -C34     :   1.393573
 C16     -C17     :   1.386746      C16     -C21     :   1.388280
 C16     -F10     :   1.352772      C17     -C18     :   1.398056
 C17     -H23     :   1.087168      C18     -C19     :   1.401779
 C18     -H24     :   1.085468      C19     -C20     :   1.404401
 C20     -C21     :   1.396069      C20     -H25     :   1.089493
 C21     -H26     :   1.087025      C31     -C32     :   1.383798
 C31     -C36     :   1.407419      C31     -H37     :   1.087634
 C32     -C33     :   1.406260      C32     -H38     :   1.088239
 C33     -C34     :   1.432911      C33     -H39     :   1.089803
 C34     -C35     :   1.425750      C35     -C36     :   1.380934
 C35     -H40     :   1.082548      C36     -H41     :   1.089330
 C3      -C6      :   1.535370      C3      -C10     :   1.533654
 C3      -H31     :   1.095597      C4      -C11     :   1.542829
 C4      -C15     :   1.540426      C4      -H42     :   1.102205
 C5      -C40     :   1.404290      C5      -C44     :   1.407711
 C6      -C7      :   1.533904      C6      -H32     :   1.100787
 C6      -H33     :   1.095053      C7      -C8      :   1.528529
 C7      -H34     :   1.099579      C7      -H35     :   1.097908
 C8      -C9      :   1.529135      C8      -H36     :   1.100901
 C8      -H61     :   1.097947      C9      -C10     :   1.533489
 C9      -H62     :   1.097211      C9      -H63     :   1.097688
 C10     -H64     :   1.094903      C10     -H65     :   1.098724
 C11     -C12     :   1.532044      C11     -H43     :   1.092310
 C11     -H44     :   1.096151      C12     -C13     :   1.530259
 C12     -H45     :   1.097858      C12     -H46     :   1.101264
 C13     -C14     :   1.529891      C13     -H47     :   1.098072
 C13     -H48     :   1.100244      C14     -C15     :   1.533259
 C14     -H49     :   1.097936      C14     -H50     :   1.101559
 C15     -H51     :   1.094328      C15     -H52     :   1.093468
 C40     -C41     :   1.390406      C40     -H53     :   1.086481
 C41     -C42     :   1.394963      C41     -H54     :   1.087698
 C42     -C43     :   1.390482      C42     -H55     :   1.087541
 C43     -C44     :   1.401557      C43     -H56     :   1.087143
 C44     -C45     :   1.491893      C45     -C22     :   1.406894
 C45     -C26     :   1.406378      C22     -C23     :   1.399971
 C22     -O29     :   1.355692      C23     -C24     :   1.390345
 C23     -H57     :   1.084178      C24     -C25     :   1.390910
 C24     -H58     :   1.087684      C25     -C26     :   1.399893
 C25     -H59     :   1.083906      C26     -O27     :   1.356370
 O27     -C28     :   1.417978      C28     -H60     :   1.091536
 C28     -H85     :   1.097819      C28     -H86     :   1.098151
 O29     -C30     :   1.418402      C30     -H87     :   1.096949
 C30     -H88     :   1.091625      C30     -H89     :   1.098253
 
  bond angles:
 
 C3      -P1      -Pd2     : 112.367983  C4      -P1      -Pd2     : 116.686721
 C4      -P1      -C3      : 104.197448  C5      -P1      -Pd2     : 112.680665
 C5      -P1      -C3      : 102.885789  C5      -P1      -C4      : 106.780961
 N2      -Pd2     -P1      : 104.572224  C19     -Pd2     -P1      :  92.686398
 C19     -Pd2     -N2      : 162.069259  H30     -N2      -Pd2     : 116.843145
 C34     -N2      -Pd2     : 119.730102  C34     -N2      -H30     :  93.497792
 C21     -C16     -C17     : 121.912911  F10     -C16     -C17     : 119.122342
 F10     -C16     -C21     : 118.963995  C18     -C17     -C16     : 118.711415
 H23     -C17     -C16     : 119.633656  H23     -C17     -C18     : 121.639816
 C19     -C18     -C17     : 121.305517  H24     -C18     -C17     : 118.557598
 H24     -C18     -C19     : 120.131063  C18     -C19     -Pd2     : 125.538969
 C20     -C19     -Pd2     : 116.400142  C20     -C19     -C18     : 118.040775
 C21     -C20     -C19     : 121.474819  H25     -C20     -C19     : 120.023923
 H25     -C20     -C21     : 118.496891  C20     -C21     -C16     : 118.543509
 H26     -C21     -C16     : 119.655086  H26     -C21     -C20     : 121.801322
 C36     -C31     -C32     : 119.171560  H37     -C31     -C32     : 120.666880
 H37     -C31     -C36     : 120.160342  C33     -C32     -C31     : 120.604966
 H38     -C32     -C31     : 120.373338  H38     -C32     -C33     : 119.015806
 C34     -C33     -C32     : 121.232643  H39     -C33     -C32     : 119.710590
 H39     -C33     -C34     : 118.367176  C33     -C34     -N2      : 121.789432
 C35     -C34     -N2      : 121.281878  C35     -C34     -C33     : 116.274936
 C36     -C35     -C34     : 121.579418  H40     -C35     -C34     : 117.394046
 H40     -C35     -C36     : 120.998056  C35     -C36     -C31     : 121.080169
 H41     -C36     -C31     : 119.232996  H41     -C36     -C35     : 119.685758
 C6      -C3      -P1      : 114.188490  C10     -C3      -P1      : 113.459510
 C10     -C3      -C6      : 110.305767  H31     -C3      -P1      : 100.969559
 H31     -C3      -C6      : 108.879482  H31     -C3      -C10     : 108.430453
 C11     -C4      -P1      : 110.240231  C15     -C4      -P1      : 116.492467
 C15     -C4      -C11     : 108.153921  H42     -C4      -P1      : 105.128627
 H42     -C4      -C11     : 106.788185  H42     -C4      -C15     : 109.617120
 C40     -C5      -P1      : 119.666746  C44     -C5      -P1      : 121.455418
 C44     -C5      -C40     : 118.877360  C7      -C6      -C3      : 111.244906
 H32     -C6      -C3      : 109.889411  H32     -C6      -C7      : 108.681372
 H33     -C6      -C3      : 110.416624  H33     -C6      -C7      : 109.354884
 H33     -C6      -H32     : 107.148655  C8      -C7      -C6      : 112.103870
 H34     -C7      -C6      : 108.764592  H34     -C7      -C8      : 109.014193
 H35     -C7      -C6      : 109.606433  H35     -C7      -C8      : 110.663788
 H35     -C7      -H34     : 106.510437  C9      -C8      -C7      : 110.516716
 H36     -C8      -C7      : 109.238358  H36     -C8      -C9      : 109.204361
 H61     -C8      -C7      : 110.313057  H61     -C8      -C9      : 110.863624
 H61     -C8      -H36     : 106.608538  C10     -C9      -C8      : 110.832916
 H62     -C9      -C8      : 108.977254  H62     -C9      -C10     : 109.497858
 H63     -C9      -C8      : 110.677173  H63     -C9      -C10     : 109.712974
 H63     -C9      -H62     : 107.057618  C9      -C10     -C3      : 110.338507
 H64     -C10     -C3      : 110.087591  H64     -C10     -C9      : 111.394599
 H65     -C10     -C3      : 109.569183  H65     -C10     -C9      : 107.389439
[...]
    C19      X    -0.00001   0.00000  -0.00003
    C19      Y     0.00002   0.00000  -0.00007
    C19      Z    -0.00000  -0.00001   0.00000
    C20      X    -0.00001   0.00002   0.00012
    C20      Y     0.00001  -0.00002  -0.00003
    C20      Z     0.00000   0.00000  -0.00002
    C21      X     0.00001  -0.00000  -0.00002
    C21      Y     0.00002   0.00000  -0.00003
    C21      Z    -0.00001   0.00000   0.00002
    F10      X    -0.00000  -0.00000   0.00003
    F10      Y    -0.00000   0.00000   0.00001
    F10      Z     0.00000   0.00000  -0.00001
    H23      X    -0.00147  -0.00070   0.00069
    H23      Y     0.00123   0.00060  -0.00041
    H23      Z    -0.00025  -0.00013   0.00004
    H24      X     0.00121   0.00079   0.00004
    H24      Y     0.00607   0.00383  -0.00027
    H24      Z    -0.00336  -0.00213   0.00036
    H25      X     0.00006  -0.00021  -0.00047
    H25      Y    -0.00006   0.00019   0.00037
    H25      Z     0.00001  -0.00006  -0.00019
    H26      X    -0.00006  -0.00000   0.00020
    H26      Y    -0.00022  -0.00002   0.00046
    H26      Z     0.00011   0.00001  -0.00026
    H30      X     0.00093  -0.00158   0.05316
    H30      Y    -0.00238   0.00033   0.93390
    H30      Z    -0.00089   0.00047   0.23013
    C31      X    -0.00000   0.00002   0.00010
    C31      Y     0.00003   0.00004   0.00001
    C31      Z    -0.00001  -0.00004  -0.00014
    C32      X     0.00011   0.00013   0.00002
    C32      Y    -0.00010  -0.00010   0.00004
    C32      Z    -0.00015  -0.00019   0.00010
    C33      X    -0.00004   0.00002   0.00033
    C33      Y     0.00014  -0.00047   0.00004
    C33      Z     0.00005  -0.00001  -0.00021
    C34      X     0.00002  -0.00002   0.00071
    C34      Y     0.00005   0.00001  -0.00106
    C34      Z    -0.00007   0.00003  -0.00274
    C35      X     0.00001  -0.00000  -0.00013
    C35      Y    -0.00003   0.00001   0.00074
    C35      Z    -0.00001   0.00000  -0.00004
    C36      X     0.00001  -0.00000  -0.00002
    C36      Y    -0.00001   0.00001  -0.00017
    C36      Z    -0.00001   0.00001   0.00015
    H37      X    -0.00009  -0.00022  -0.00046
    H37      Y    -0.00013  -0.00036  -0.00029
    H37      Z     0.00016   0.00043   0.00031
    H38      X    -0.00125  -0.00139   0.00038
    H38      Y     0.00092   0.00107  -0.00014
    H38      Z     0.00181   0.00201  -0.00063
    H39      X     0.00043  -0.00009  -0.00250
    H39      Y    -0.00203   0.00540   0.00529
    H39      Z    -0.00059   0.00003   0.00103
    H40      X    -0.00022  -0.00001  -0.00042
    H40      Y     0.00022   0.00001   0.00092
    H40      Z     0.00031  -0.00000  -0.00006
    H41      X    -0.00002   0.00001  -0.00032
    H41      Y     0.00010  -0.00005   0.00038
    H41      Z     0.00001  -0.00000   0.00033
    C3       X    -0.00000   0.00000   0.00009
    C3       Y     0.00000  -0.00001  -0.00003
    C3       Z    -0.00000   0.00001   0.00008
    C4       X    -0.00000   0.00001  -0.00000
    C4       Y     0.00000  -0.00000  -0.00002
    C4       Z    -0.00000   0.00000   0.00003
    C5       X    -0.00000  -0.00002  -0.00002
    C5       Y     0.00001   0.00003   0.00002
    C5       Z    -0.00001  -0.00001   0.00003
    C6       X     0.00000  -0.00000  -0.00006
    C6       Y     0.00000   0.00002   0.00005
    C6       Z     0.00000  -0.00000  -0.00000
    C7       X     0.00001  -0.00001   0.00003
    C7       Y     0.00001  -0.00001   0.00001
    C7       Z     0.00001  -0.00000   0.00002
    C8       X     0.00000  -0.00001   0.00000
    C8       Y     0.00001  -0.00000  -0.00000
    C8       Z     0.00000   0.00000  -0.00000
    C9       X     0.00001  -0.00001   0.00001
    C9       Y     0.00002  -0.00001   0.00001
    C9       Z     0.00001  -0.00001   0.00000
    C10      X     0.00001   0.00000   0.00001
    C10      Y     0.00001   0.00000   0.00000
    C10      Z     0.00001  -0.00001   0.00004
    C11      X     0.00000  -0.00001   0.00000
    C11      Y    -0.00000   0.00000  -0.00000
    C11      Z    -0.00000  -0.00001  -0.00002
    C12      X     0.00000  -0.00000  -0.00000
    C12      Y     0.00000   0.00001  -0.00001
    C12      Z    -0.00000  -0.00000  -0.00000
    C13      X     0.00000   0.00000  -0.00001
    C13      Y     0.00000   0.00001  -0.00000
    C13      Z    -0.00000  -0.00000  -0.00001
    C14      X     0.00000   0.00001  -0.00000
    C14      Y    -0.00000   0.00000  -0.00000
    C14      Z    -0.00000  -0.00000  -0.00001
    C15      X     0.00000   0.00000  -0.00001
    C15      Y    -0.00000   0.00002   0.00003
    C15      Z    -0.00001  -0.00001  -0.00001
    C40      X    -0.00000   0.00002  -0.00000
    C40      Y     0.00002   0.00014  -0.00002
    C40      Z     0.00002   0.00009  -0.00001
    C41      X     0.00001   0.00006  -0.00000
    C41      Y    -0.00000  -0.00001  -0.00001
    C41      Z     0.00002   0.00010  -0.00001
    C42      X     0.00001   0.00008   0.00001
    C42      Y    -0.00003  -0.00018  -0.00001
    C42      Z     0.00001   0.00006   0.00002
    C43      X     0.00000  -0.00006  -0.00003
    C43      Y     0.00002  -0.00012   0.00003
    C43      Z     0.00001  -0.00012  -0.00002
    C44      X     0.00007   0.00002   0.00004
    C44      Y    -0.00002  -0.00001   0.00002
    C44      Z    -0.00003   0.00005   0.00008
    C45      X    -0.00050   0.00023  -0.00028
    C45      Y     0.00007   0.00004  -0.00004
    C45      Z     0.00041   0.00007   0.00010
    C22      X     0.00197   0.00146   0.00041
    C22      Y     0.00022   0.00017   0.00010
    C22      Z     0.00198   0.00136   0.00016
    C23      X     0.02481   0.01855  -0.00041
    C23      Y    -0.00833  -0.00573   0.00000
    C23      Z    -0.06220  -0.04253  -0.00020
    C24      X    -0.00575  -0.01404   0.00036
    C24      Y    -0.00018  -0.00243  -0.00044
    C24      Z    -0.00133  -0.01912  -0.00082
    C25      X     0.04815  -0.06581  -0.00024
    C25      Y     0.00018   0.00000   0.00019
    C25      Z    -0.00463   0.00840   0.00002
    C26      X    -0.00103   0.00133   0.00072
    C26      Y    -0.00023   0.00032  -0.00066
    C26      Z    -0.00168   0.00243   0.00096
    O27      X     0.00015  -0.00026   0.00011
    O27      Y     0.00002  -0.00003   0.00002
    O27      Z     0.00019  -0.00017  -0.00034
    C28      X     0.00072  -0.00078  -0.00020
    C28      Y     0.00048  -0.00057   0.00021
    C28      Z     0.00158  -0.00176  -0.00003
    O29      X    -0.00019  -0.00005  -0.00028
    O29      Y    -0.00001  -0.00003  -0.00000
    O29      Z    -0.00028  -0.00022   0.00004
    C30      X    -0.00158  -0.00089   0.00011
    C30      Y    -0.00053  -0.00031   0.00005
    C30      Z    -0.00142  -0.00077  -0.00014
    H31      X     0.00004  -0.00007  -0.00037
    H31      Y    -0.00002   0.00002  -0.00039
    H31      Z     0.00003  -0.00005  -0.00049
    H32      X    -0.00008   0.00005   0.00001
    H32      Y    -0.00006   0.00003  -0.00001
    H32      Z    -0.00005   0.00003  -0.00003
    H33      X     0.00001   0.00003   0.00014
    H33      Y    -0.00000  -0.00017  -0.00034
    H33      Z    -0.00000   0.00004   0.00004
    H34      X    -0.00009   0.00009  -0.00023
    H34      Y    -0.00005   0.00004  -0.00017
    H34      Z    -0.00003   0.00003  -0.00011
    H35      X    -0.00002   0.00002  -0.00010
    H35      Y     0.00002   0.00001  -0.00002
    H35      Z    -0.00008   0.00001   0.00014
    H36      X    -0.00006   0.00003  -0.00003
    H36      Y    -0.00007   0.00005  -0.00005
    H36      Z    -0.00005   0.00004  -0.00005
    H61      X     0.00001   0.00009  -0.00006
    H61      Y     0.00001  -0.00001   0.00001
    H61      Z    -0.00000  -0.00005   0.00003
    H62      X    -0.00011   0.00012  -0.00019
    H62      Y    -0.00008   0.00009  -0.00012
    H62      Z    -0.00007   0.00008  -0.00002
    H63      X     0.00003   0.00003  -0.00004
    H63      Y    -0.00011  -0.00002   0.00001
    H63      Z     0.00000  -0.00001   0.00001
    H64      X     0.00001  -0.00002   0.00020
    H64      Y     0.00002  -0.00002   0.00023
    H64      Z     0.00000   0.00003   0.00011
    H65      X    -0.00008   0.00002  -0.00011
    H65      Y    -0.00008   0.00001  -0.00001
    H65      Z    -0.00007   0.00002  -0.00013
    H42      X    -0.00001  -0.00002   0.00014
    H42      Y     0.00000   0.00000   0.00016
    H42      Z     0.00005  -0.00001   0.00031
    H43      X    -0.00005   0.00008   0.00008
    H43      Y     0.00002  -0.00002  -0.00004
    H43      Z     0.00000   0.00000  -0.00004
    H44      X    -0.00001  -0.00000  -0.00011
    H44      Y    -0.00000  -0.00000  -0.00007
    H44      Z     0.00003   0.00004   0.00007
    H45      X     0.00000   0.00000   0.00000
    H45      Y    -0.00003  -0.00010   0.00005
    H45      Z     0.00001   0.00003  -0.00003
    H46      X    -0.00001   0.00000  -0.00001
    H46      Y     0.00000   0.00001   0.00002
    H46      Z     0.00003  -0.00001   0.00015
    H47      X    -0.00002  -0.00004   0.00009
    H47      Y    -0.00002  -0.00005   0.00008
    H47      Z    -0.00001  -0.00004   0.00008
    H48      X    -0.00001  -0.00001  -0.00004
    H48      Y    -0.00000  -0.00000  -0.00002
    H48      Z     0.00003   0.00004   0.00008
    H49      X    -0.00006  -0.00007   0.00012
    H49      Y     0.00001   0.00002  -0.00000
    H49      Z     0.00000   0.00001  -0.00002
    H50      X    -0.00000  -0.00000  -0.00003
    H50      Y     0.00000   0.00001   0.00002
    H50      Z     0.00004   0.00003   0.00013
    H51      X    -0.00003  -0.00003  -0.00004
    H51      Y    -0.00002  -0.00002  -0.00005
    H51      Z     0.00010   0.00009  -0.00005
    H52      X     0.00000   0.00006   0.00011
    H52      Y     0.00002  -0.00013  -0.00024
    H52      Z    -0.00002   0.00004   0.00009
    H53      X    -0.00006  -0.00034  -0.00009
    H53      Y    -0.00023  -0.00161  -0.00011
    H53      Z    -0.00019  -0.00130  -0.00022
    H54      X    -0.00012  -0.00069   0.00003
    H54      Y     0.00003   0.00010  -0.00005
    H54      Z    -0.00023  -0.00113   0.00000
    H55      X    -0.00016  -0.00089  -0.00007
    H55      Y     0.00036   0.00206   0.00014
    H55      Z    -0.00010  -0.00061  -0.00008
    H56      X     0.00000   0.00034   0.00001
    H56      Y    -0.00023   0.00115  -0.00044
    H56      Z    -0.00018   0.00092  -0.00013
    H57      X    -0.29205  -0.20118  -0.00062
    H57      Y     0.09501   0.06488   0.00029
    H57      Z     0.70843   0.48349   0.00101
    H58      X     0.03213   0.14778   0.00175
    H58      Y     0.00425   0.02432   0.00075
    H58      Z     0.03417   0.19283   0.00269
    H59      X    -0.55267   0.74797  -0.00291
    H59      Y    -0.00084   0.00097  -0.00283
    H59      Z     0.06563  -0.09135   0.00062
    H60      X    -0.00000   0.00022   0.00011
    H60      Y    -0.00149   0.00166  -0.00005
    H60      Z    -0.01462   0.01667  -0.00066
    H85      X    -0.00269   0.00284   0.00092
    H85      Y     0.00697  -0.00753  -0.00171
    H85      Z    -0.00445   0.00508   0.00138
    H86      X    -0.00600   0.00682  -0.00000
    H86      Y    -0.01183   0.01354  -0.00058
    H86      Z    -0.00529   0.00645   0.00004
    H87      X     0.00311   0.00182   0.00029
    H87      Y    -0.00876  -0.00466  -0.00054
    H87      Z     0.00426   0.00223   0.00067
    H88      X     0.01617   0.00923  -0.00093
    H88      Y     0.00011   0.00003   0.00005
    H88      Z     0.00493   0.00296  -0.00010
    H89      X     0.00624   0.00385   0.00008
    H89      Y     0.01507   0.00858   0.00001
    H89      Z     0.00972   0.00559   0.00026
  
  Number of imaginary frequencies:   0
   
  Writing vibrational animation data to red_elim_L_trans_L1_PL145_2.vib
  Writing IR vibrational spectrum data to red_elim_L_trans_L1_PL145_2_vib.spm
  rotational symmetry number:  1

  rotational temperatures (K):      0.003991      0.003494      0.003276
   
  The Quasi-Harmonic approximation will be applied to compute
  vibrational constributions to thermodynamic properties.
  Frequencies will be adjusted to a minimum value of  100.00 cm^-1.

  vibrational temperatures:
       mode:      1        2        3        4        5        6
  temp. (K):   143.88   143.88   143.88   143.88   143.88   143.88
   
       mode:      7        8        9       10       11       12
  temp. (K):   143.88   143.88   143.88   143.88   143.88   143.88
   
       mode:     13       14       15       16       17       18
  temp. (K):   143.88   143.88   143.88   148.29   158.65   182.52
   
       mode:     19       20       21       22       23       24
  temp. (K):   190.71   194.74   209.02   224.66   226.79   248.69
   
       mode:     25       26       27       28       29       30
  temp. (K):   252.75   259.25   274.57   299.49   303.26   310.47
   
       mode:     31       32       33       34       35       36
  temp. (K):   318.16   325.71   342.80   368.43   381.79   388.70
   
       mode:     37       38       39       40       41       42
  temp. (K):   394.76   407.99   423.02   451.86   452.75   471.38
   
       mode:     43       44       45       46       47       48
  temp. (K):   483.50   486.75   493.27   500.63   542.78   563.45
   
       mode:     49       50       51       52       53       54
  temp. (K):   576.82   591.03   616.23   617.58   627.55   637.00
   
       mode:     55       56       57       58       59       60
  temp. (K):   641.33   647.80   672.94   685.53   698.94   714.42
   
       mode:     61       62       63       64       65       66
  temp. (K):   740.72   764.43   765.65   768.32   777.54   782.38
   
       mode:     67       68       69       70       71       72
  temp. (K):   793.44   827.67   831.72   872.35   892.26   895.87
   
       mode:     73       74       75       76       77       78
  temp. (K):   915.61   927.15   978.89  1028.57  1037.29  1048.60
   
       mode:     79       80       81       82       83       84
  temp. (K):  1053.59  1081.58  1092.11  1108.28  1119.50  1132.02
   
       mode:     85       86       87       88       89       90
  temp. (K):  1139.63  1160.28  1169.06  1175.00  1191.47  1193.47
   
       mode:     91       92       93       94       95       96
  temp. (K):  1198.21  1200.03  1205.26  1213.34  1218.11  1236.12
   
       mode:     97       98       99      100      101      102
  temp. (K):  1263.26  1264.83  1271.66  1304.09  1306.13  1310.92
   
       mode:    103      104      105      106      107      108
  temp. (K):  1316.42  1325.04  1328.97  1356.24  1360.05  1368.53
   
       mode:    109      110      111      112      113      114
  temp. (K):  1379.86  1408.29  1409.88  1415.06  1424.83  1428.91
   
       mode:    115      116      117      118      119      120
  temp. (K):  1446.46  1464.43  1469.00  1479.03  1483.43  1484.70
   
       mode:    121      122      123      124      125      126
  temp. (K):  1497.04  1525.74  1530.11  1535.41  1543.22  1553.68
   
       mode:    127      128      129      130      131      132
  temp. (K):  1555.54  1562.77  1584.01  1593.22  1595.97  1599.64
   
       mode:    133      134      135      136      137      138
  temp. (K):  1605.25  1612.00  1619.56  1643.82  1649.76  1666.92
   
       mode:    139      140      141      142      143      144
  temp. (K):  1671.47  1682.51  1701.88  1704.19  1721.46  1731.17
   
       mode:    145      146      147      148      149      150
  temp. (K):  1735.49  1741.23  1742.56  1744.39  1750.36  1757.94
   
       mode:    151      152      153      154      155      156
  temp. (K):  1761.10  1776.59  1791.88  1808.23  1836.83  1845.40
   
       mode:    157      158      159      160      161      162
  temp. (K):  1870.47  1872.97  1875.72  1887.16  1893.41  1896.96
   
       mode:    163      164      165      166      167      168
  temp. (K):  1898.58  1910.20  1916.02  1918.57  1927.49  1930.21
   
       mode:    169      170      171      172      173      174
  temp. (K):  1931.57  1941.31  1949.28  1972.91  1973.36  1976.70
   
       mode:    175      176      177      178      179      180
  temp. (K):  1987.24  1992.99  1995.67  2008.81  2013.95  2015.98
   
       mode:    181      182      183      184      185      186
  temp. (K):  2017.54  2020.37  2022.22  2024.00  2054.80  2122.52
   
       mode:    187      188      189      190      191      192
  temp. (K):  2134.26  2146.29  2154.20  2159.05  2168.67  2172.28
   
       mode:    193      194      195      196      197      198
  temp. (K):  2173.26  2175.21  2179.62  2181.94  2182.97  2184.78
   
       mode:    199      200      201      202      203      204
  temp. (K):  2191.89  2194.63  2195.90  2197.96  2200.96  2203.16
   
       mode:    205      206      207      208      209      210
  temp. (K):  2205.61  2206.10  2217.38  2225.16  2291.89  2341.44
   
       mode:    211      212      213      214      215      216
  temp. (K):  2358.29  2367.53  2378.08  2381.29  2389.61  2398.75
   
       mode:    217      218      219      220      221      222
  temp. (K):  4330.52  4345.39  4349.17  4353.45  4357.54  4364.70
   
       mode:    223      224      225      226      227      228
  temp. (K):  4365.16  4367.57  4370.70  4371.77  4378.94  4425.37
   
       mode:    229      230      231      232      233      234
  temp. (K):  4428.67  4432.14  4438.14  4439.28  4446.62  4451.92
   
       mode:    235      236      237      238      239      240
  temp. (K):  4463.19  4473.21  4477.68  4478.90  4486.39  4496.36
   
       mode:    241      242      243      244      245      246
  temp. (K):  4527.21  4529.78  4559.72  4563.72  4567.64  4571.25
   
       mode:    247      248      249      250      251      252
  temp. (K):  4576.84  4583.66  4594.20  4596.93  4598.55  4599.84
   
       mode:    253      254      255      256      257      258
  temp. (K):  4603.51  4612.49  4616.01  4621.75  4626.94  4642.79
   
       mode:    259      260      261
  temp. (K):  4655.23  4660.28  4965.43
   
   
  Thermodynamic properties calculated assuming an ideal gas

  In the table below, the units for temperature
  are kelvins, the units for U, H, and G are
  kcal/mol and the units for Cv and S are cal/(mol K)

  The zero point energy (ZPE):    476.229 kcal/mol
  is not included in U, H, or G in the table below
  
 
  =============================================================================
  Thermodynamic properties for P = 1.00E+00 atm, calculated at   1 temperatures


  T =   298.15 K, P = 1.00E+00 atm
   
                  U         Cv          S          H          G        ln(Q)
              =========  =========  =========  =========  =========  =========
  trans.          0.889      2.981     45.532      1.481    -12.094   20.41263
  rot.            0.889      2.981     37.895      0.889    -10.410   17.56958
  vib.           23.650    158.401    143.574     23.650    -19.157   32.33308
  elec.           0.000      0.000      0.000      0.000      0.000    0.00000
  ----------------------------------------------------------------------------
  total          25.427    164.362    227.001     26.020    -41.661   70.31530
   
   Total internal energy, Utot(SCFE + ZPE + U):   -2246.971067 hartrees
   Total enthalpy, Htot (Utot + nRT), with n=1:   -2246.970123 hartrees
    Total Gibbs free energy, Gtot (Htot - T*S):   -2247.077979 hartrees
   
  end of program freq
   
 Time(freq)  user:       0.763  user+sys:       0.763  wallclock:       0.557
  
  start of program post
  
  Writing input files for PBF
  end of program post
   
 Time(post)  user:       0.199  user+sys:       0.199  wallclock:       0.268

 Total cpu seconds     user:  139233.623   user+sys:  139233.623
  
 Total elapsed time:    17228 seconds

Job red_elim_L_trans_L1_PL145_2 completed on bp1-compute217 at Mon Dec  1 21:53:18 2025
