Job red_elim_Ar_trans_L1_PL145_3 started on bp1-compute217 at Mon Dec  1 21:54:26 2025
jobid: bp1-compute217-0-692e0e8e

  +--------------------------------------------------------------------+
  |  Jaguar version 12.5, release 138                                  |
  |                                                                    |
  |  Copyright Schrodinger, Inc.                                       |
  |  All Rights Reserved.                                              |
  |                                                                    |
  |  The following have contributed to Jaguar (listed alphabetically): |
  |  Ty Balduf, Mike Beachy, Chandler Bennett, Art Bochevarov,         |
  |  Dale Braden, Yixiang Cao, Alan Chien, Chris Cortis,               |
  |  Rich Friesner, Jim Furness, Bill Goddard, Hod Greeley,            |
  |  Tom Hughes, Leif Jacobson, Jean-Marc Langlois, Daniel Levine,     |
  |  Rob Murphy, Dean Philipp, Tom Pollard, Murco Ringnalda,           |
  |  Daniel Mainz, Pablo Videla, Mark Watson, Haoyu Yu.                |
  |                                                                    |
  |  Use of this program should be acknowledged in publications as:    |
  |                                                                    |
  |  Jaguar, version 12.5, Schrodinger, Inc., New York, NY, 2024.      |
  |                                                                    |
  |  A. D. Bochevarov, E. Harder, T. F. Hughes, J. R. Greenwood,       |
  |  D. A. Braden, D. M. Philipp, D. Rinaldo, M. D. Halls,             |
  |  J. Zhang, R. A. Friesner, "Jaguar: A High-Performance Quantum     |
  |  Chemistry Software Program with Strengths in Life and Materials   |
  |  Sciences", Int. J. Quantum Chem., 2013, 113(18), 2110-2142.       |
  +--------------------------------------------------------------------+
  
  start of program pre
  
  Job name: red_elim_Ar_trans_L1_PL145_3
  Executables used: /software/local/apps/schrodinger2024-3/jaguar-v12.5/bin/Linux-x86_64
  Temporary files : /tmp/ar21627/red_elim_Ar_trans_L1_PL145_3#bp1-compute217-0-692e0e8e
  Basis file : using default basis file from /software/local/apps/schrodinger2024-3
  Maestro file (input):  red_elim_Ar_trans_L1_PL145_3.mae
  Maestro file (output): red_elim_Ar_trans_L1_PL145_3.01.mae
  
 Contents of input file: &gen and (if present) &atomic sections only
 ----------------Contents start----------------
&gen
dftname=b3pw91-d3
basis=6-31G*
numd=5
ip11=2
iaccg=3
isolv=2
igeopt=1
solvent=benzene
ifreq=1
&
&atomic
atom basis
Pd2 lacv3p*
&
 -----------------Contents end-----------------
 
  PS calculation requested. Using PS version of 6-31g*
  basis set:               non_standard                    
  net molecular charge:    0
  multiplicity:            1
  
  Using up to  18 threads per process
  
  This run will use ECP on 1 atom
  number of basis functions....          727
  
 Input geometry:
                                   angstroms
  atom               x                 y                 z
  P1           -0.1842703522      0.2259067758     -0.1995215950 
  Pd2          -0.1466998319      0.1570984828      2.1199600778 
  N3            0.1624144839      0.4886513705      4.0773873887 
  C4            0.3877387369     -4.5365696126      2.6461581200 
  C5           -0.8869233025     -4.0068423831      2.5053181163 
  C6           -1.0279505094     -2.6303246390      2.3182589788 
  C7            0.0975366834     -1.7994636516      2.2805691519 
  C8            1.3703639796     -2.3604389528      2.4342630895 
  C9            1.5215360424     -3.7385238867      2.6100303725 
  F10           0.5285286965     -5.8711583392      2.8160105114 
  H11          -1.7494328746     -4.6681400009      2.5219264814 
  H12          -2.0211750205     -2.2256692102      2.1616212608 
  H13           2.2564754800     -1.7330264835      2.4293546836 
  H14           2.5024915437     -4.1912455732      2.7309091402 
  H15           1.1457238391      0.6957809214      4.2552602519 
  C16          -1.5132891820     -1.5833466237      7.3474453979 
  C17          -0.2757792352     -0.9491736086      7.4719020806 
  C18           0.2962028968     -0.2816778117      6.3923879311 
  C19          -0.3617016038     -0.2148996622      5.1442983121 
  C20          -1.6047743672     -0.8741609905      5.0318852797 
  C21          -2.1652388964     -1.5403299781      6.1100781563 
  H22          -1.9547050083     -2.1095696947      8.1907253727 
  H23           0.2572739365     -0.9784171241      8.4213834103 
  H24           1.2648364715      0.2063345740      6.5086509232 
  H25          -2.1046286852     -0.8672841829      4.0697193691 
  H26          -3.1238415480     -2.0421780380      5.9802718926 
  C27           1.6226731148      0.1377104726     -0.7476236935 
  C28          -1.0324141477     -1.2280046732     -1.0136244593 
  C29          -0.7824184665      1.6910844608     -1.1421066627 
  C30           1.8745913360     -0.4615320344     -2.1359468576 
  C31           3.3609951779     -0.3863325977     -2.5064852489 
  C32           4.2264638331     -1.0898037066     -1.4601679770 
  C33           3.9869554278     -0.4937690344     -0.0725755968 
  C34           2.5040295306     -0.5444906128      0.3117029691 
  C35          -0.6035216577     -2.5353294587     -0.3244493141 
  C36          -1.2694212530     -3.7518758472     -0.9770888761 
  C37          -2.7933086705     -3.6097620109     -0.9885894154 
  C38          -3.2101068395     -2.3155757306     -1.6927154983 
  C39          -2.5644801775     -1.0970662057     -1.0245617802 
  C40          -1.0067946239      1.5463991135     -2.5237491562 
  C41          -1.3928198613      2.6150512985     -3.3246206296 
  C42          -1.5662126146      3.8730269275     -2.7499942463 
  C43          -1.3633078557      4.0284993351     -1.3842486436 
  C44          -0.9774635947      2.9600039541     -0.5553343446 
  C45          -0.8432724099      3.2955396935      0.8936083441 
  C46          -2.0096595265      3.4527519031      1.6711353444 
  C47          -1.9497868964      3.9295682918      2.9837718910 
  C48          -0.7094659263      4.2425346823      3.5332368217 
  C49           0.4633648086      4.0825803220      2.8053459676 
  C50           0.3900402673      3.6137209123      1.4880360324 
  O51           1.4827858466      3.4587455969      0.6896915191 
  C52           2.7579327931      3.7500684428      1.2401563794 
  O53          -3.1695471671      3.0983857343      1.0531898750 
  C54          -4.3741930562      3.1258471704      1.8003410033 
  H55           1.8989411123      1.1989186074     -0.7775180606 
  H56           1.5614701459     -1.5145318425     -2.1516423200 
  H57           1.2794922663      0.0631796723     -2.8914280671 
  H58           3.6626331282      0.6685795229     -2.5811063516 
  H59           3.5180123337     -0.8288872250     -3.4980366251 
  H60           3.9756927621     -2.1606916186     -1.4432415874 
  H61           5.2885636174     -1.0187403300     -1.7276740283 
  H62           4.3249058008      0.5523086931     -0.0709126801 
  H63           4.5851033979     -1.0165746927      0.6835277821 
  H64           2.3617527356     -0.0641118988      1.2907432777 
  H65           2.1964164577     -1.5908560295      0.4367780760 
  H66          -0.6881650744     -1.2697116501     -2.0574214932 
  H67           0.4873853239     -2.6499252511     -0.3531574067 
  H68          -0.8900785643     -2.4842592804      0.7339654807 
  H69          -0.9699182776     -4.6646958537     -0.4449309978 
  H70          -0.9054190041     -3.8567348424     -2.0112821483 
  H71          -3.2549786543     -4.4804069551     -1.4726699187 
  H72          -3.1611711272     -3.5864405404      0.0484465096 
  H73          -4.3022874710     -2.2051164139     -1.6789299568 
  H74          -2.9104065282     -2.3618678963     -2.7519018508 
  H75          -2.9290058635     -1.0232129322      0.0046975294 
  H76          -2.8681838429     -0.1749566598     -1.5341919169 
  H77          -0.8918982572      0.5726261448     -2.9908222648 
  H78          -1.5583241326      2.4620688496     -4.3891536719 
  H79          -1.8655410044      4.7240662137     -3.3579803776 
  H80          -1.5135321444      5.0031994750     -0.9266123811 
  H81          -2.8486377585      4.0408911961      3.5797866622 
  H82          -0.6538408206      4.5913067003      4.5610647005 
  H83           1.4166348155      4.3059419252      3.2701174269 
  H84           3.4768077486      3.5617308381      0.4412249849 
  H85           2.9830280010      3.0992096096      2.0959228990 
  H86           2.8342079633      4.8010771818      1.5482103132 
  H87          -4.3135218096      2.4682070190      2.6779237566 
  H88          -5.1503957731      2.7595444382      1.1246274267 
  H89          -4.6296253368      4.1440978806      2.1231250674 
   
  principal moments of inertia:
        amu*angstrom^2:              6200.14491              7428.11421              9322.37856
                g*cm^2:          1.02955816E-36          1.23346723E-36          1.54801719E-36
   
  rotational constants:
               cm^(-1):      0.00271891      0.00226944      0.00180830
                   GHz:      0.08151084      0.06803598      0.05421138
   
  Molecular weight:     703.22 amu
   
  Stoichiometry: PdC38PNH45O2F
  Molecular Point Group: C1      
  Point Group used: C1
  
 
Number of optimization coordinates:   316
Number of independent coordinates:    316
Number of non-redundant coordinates:  261
Number of frozen coordinates:           0
Number of harmonic constraints:         0
 
Number of geometric degrees of freedom:   261
Maximum geometric degrees of freedom:     261
 " " " " " excluding dummy atoms:         261
 
 
  bond lengths (angstroms):
 
 P1      -Pd2     :   2.320806      P1      -C27     :   1.890301
 P1      -C28     :   1.869751      P1      -C29     :   1.842008
 Pd2     -N3      :   2.009229      Pd2     -C7      :   1.978278
 N3      -H15     :   1.020509      N3      -C19     :   1.381297
 C4      -C5      :   1.387519      C4      -C9      :   1.386967
 C4      -F10     :   1.352701      C5      -C6      :   1.396310
 C5      -H11     :   1.086974      C6      -C7      :   1.399454
 C6      -H12     :   1.083871      C7      -C8      :   1.399430
 C8      -C9      :   1.397450      C8      -H13     :   1.085755
 C9      -H14     :   1.087126      C16     -C17     :   1.396100
 C16     -C21     :   1.399274      C16     -H22     :   1.087603
 C17     -C18     :   1.392144      C17     -H23     :   1.089273
 C18     -C19     :   1.412454      C18     -H24     :   1.090836
 C19     -C20     :   1.411557      C20     -C21     :   1.385786
 C20     -H25     :   1.084281      C21     -H26     :   1.089780
 C27     -C30     :   1.532970      C27     -C34     :   1.537648
 C27     -H55     :   1.096987      C28     -C35     :   1.538834
 C28     -C39     :   1.537690      C28     -H66     :   1.099891
 C29     -C40     :   1.407201      C29     -C44     :   1.411560
 C30     -C31     :   1.533737      C30     -H56     :   1.098681
 C30     -H57     :   1.095544      C31     -C32     :   1.529277
 C31     -H58     :   1.099724      C31     -H59     :   1.097125
 C32     -C33     :   1.529063      C32     -H60     :   1.099988
 C32     -H61     :   1.097573      C33     -C34     :   1.532747
 C33     -H62     :   1.099314      C33     -H63     :   1.096722
 C34     -H64     :   1.099785      C34     -H65     :   1.097793
 C35     -C36     :   1.532758      C35     -H67     :   1.097285
 C35     -H68     :   1.097709      C36     -C37     :   1.530543
 C36     -H69     :   1.098242      C36     -H70     :   1.101385
 C37     -C38     :   1.531154      C37     -H71     :   1.097951
 C37     -H72     :   1.100595      C38     -C39     :   1.532328
 C38     -H73     :   1.097839      C38     -H74     :   1.101744
 C39     -H75     :   1.094398      C39     -H76     :   1.096469
 C40     -C41     :   1.390118      C40     -H77     :   1.086090
 C41     -C42     :   1.393830      C41     -H78     :   1.088130
 C42     -C43     :   1.389461      C42     -H79     :   1.087894
 C43     -C44     :   1.406292      C43     -H80     :   1.087216
 C44     -C45     :   1.493327      C45     -C46     :   1.410575
 C45     -C50     :   1.405576      C46     -C47     :   1.397839
 C46     -O53     :   1.361165      C47     -C48     :   1.392213
 C47     -H81     :   1.084232      C48     -C49     :   1.389584
 C48     -H82     :   1.086815      C49     -C50     :   1.400183
 C49     -H83     :   1.083802      C50     -O51     :   1.362154
 O51     -C52     :   1.419113      C52     -H84     :   1.091120
 C52     -H85     :   1.098463      C52     -H86     :   1.097877
 O53     -C54     :   1.417801      C54     -H87     :   1.098327
 C54     -H88     :   1.092363      C54     -H89     :   1.098303
 
  bond angles:
 
 C27     -P1      -Pd2     : 105.838777  C28     -P1      -Pd2     : 114.799703
 C28     -P1      -C27     : 105.728601  C29     -P1      -Pd2     : 122.701609
 C29     -P1      -C27     : 101.486919  C29     -P1      -C28     : 104.383680
 N3      -Pd2     -P1      : 166.230307  C7      -Pd2     -P1      :  96.457236
 C7      -Pd2     -N3      :  93.733548  H15     -N3      -Pd2     : 110.581306
 C19     -N3      -Pd2     : 127.593834  C19     -N3      -H15     : 109.533516
 C9      -C4      -C5      : 121.914854  F10     -C4      -C5      : 119.014356
 F10     -C4      -C9      : 119.069705  C6      -C5      -C4      : 118.865271
 H11     -C5      -C4      : 119.678659  H11     -C5      -C6      : 121.443950
 C7      -C6      -C5      : 120.508663  H12     -C6      -C5      : 118.683078
 H12     -C6      -C7      : 120.758873  C6      -C7      -Pd2     : 119.346045
 C8      -C7      -Pd2     : 121.175831  C8      -C7      -C6      : 119.375186
 C9      -C8      -C7      : 120.498069  H13     -C8      -C7      : 120.674180
 H13     -C8      -C9      : 118.824827  C8      -C9      -C4      : 118.833174
 H14     -C9      -C4      : 119.677627  H14     -C9      -C8      : 121.484386
 C21     -C16     -C17     : 118.545758  H22     -C16     -C17     : 120.691729
 H22     -C16     -C21     : 120.758285  C18     -C17     -C16     : 120.854797
 H23     -C17     -C16     : 119.952823  H23     -C17     -C18     : 119.191302
 C19     -C18     -C17     : 121.097119  H24     -C18     -C17     : 119.781497
 H24     -C18     -C19     : 119.119678  C18     -C19     -N3      : 121.995918
 C20     -C19     -N3      : 120.698568  C20     -C19     -C18     : 117.289137
 C21     -C20     -C19     : 121.246393  H25     -C20     -C19     : 118.273575
 H25     -C20     -C21     : 120.465205  C20     -C21     -C16     : 120.954352
 H26     -C21     -C16     : 120.066873  H26     -C21     -C20     : 118.976672
 C30     -C27     -P1      : 115.971298  C34     -C27     -P1      : 111.644792
 C34     -C27     -C30     : 110.873022  H55     -C27     -P1      : 101.741882
 H55     -C27     -C30     : 108.185073  H55     -C27     -C34     : 107.674970
 C35     -C28     -P1      : 109.827166  C39     -C28     -P1      : 112.882131
 C39     -C28     -C35     : 110.684439  H66     -C28     -P1      : 107.500458
 H66     -C28     -C35     : 107.792335  H66     -C28     -C39     : 107.957953
 C40     -C29     -P1      : 118.191192  C44     -C29     -P1      : 123.175092
 C44     -C29     -C40     : 118.589862  C31     -C30     -C27     : 111.032154
 H56     -C30     -C27     : 109.922770  H56     -C30     -C31     : 108.647336
 H57     -C30     -C27     : 110.367310  H57     -C30     -C31     : 109.654780
 H57     -C30     -H56     : 107.120066  C32     -C31     -C30     : 111.138204
 H58     -C31     -C30     : 109.222992  H58     -C31     -C32     : 109.417935
 H59     -C31     -C30     : 109.710425  H59     -C31     -C32     : 110.597698
 H59     -C31     -H58     : 106.640156  C33     -C32     -C31     : 110.666737
 H60     -C32     -C31     : 109.228845  H60     -C32     -C33     : 109.257724
 H61     -C32     -C31     : 110.554911  H61     -C32     -C33     : 110.335222
 H61     -C32     -H60     : 106.701863  C34     -C33     -C32     : 111.479161
 H62     -C33     -C32     : 108.913854  H62     -C33     -C34     : 109.180002
 H63     -C33     -C32     : 110.755869  H63     -C33     -C34     : 109.818835
 H63     -C33     -H62     : 106.553181  C33     -C34     -C27     : 111.539942
 H64     -C34     -C27     : 110.203058  H64     -C34     -C33     : 109.505384
 H65     -C34     -C27     : 109.923212  H65     -C34     -C33     : 109.342146
 H65     -C34     -H64     : 106.180027  C36     -C35     -C28     : 111.254462
 H67     -C35     -C28     : 110.738263  H67     -C35     -C36     : 109.748362
 H68     -C35     -C28     : 108.635162  H68     -C35     -C36     : 109.515795
 H68     -C35     -H67     : 106.835071  C37     -C36     -C35     : 111.226724
 H69     -C36     -C35     : 109.566161  H69     -C36     -C37     : 110.630615
 H70     -C36     -C35     : 109.378141  H70     -C36     -C37     : 109.319913
 H70     -C36     -H69     : 106.602576  C38     -C37     -C36     : 110.668795
 H71     -C37     -C36     : 110.385740  H71     -C37     -C38     : 110.673119
 H72     -C37     -C36     : 109.127628  H72     -C37     -C38     : 108.930113
 H72     -C37     -H71     : 106.959384  C39     -C38     -C37     : 110.911202
 H73     -C38     -C37     : 110.492083  H73     -C38     -C39     : 109.492346
 H74     -C38     -C37     : 109.423045  H74     -C38     -C39     : 109.754698
 H74     -C38     -H73     : 106.673722  C38     -C39     -C28     : 110.804723
 H75     -C39     -C28     : 109.324734  H75     -C39     -C38     : 108.869116
 H76     -C39     -C28     : 110.541639  H76     -C39     -C38     : 110.449321
 H76     -C39     -H75     : 106.745256  C41     -C40     -C29     : 122.065631
 H77     -C40     -C29     : 119.838452  H77     -C40     -C41     : 118.090587
 C42     -C41     -C40     : 119.396637  H78     -C41     -C40     : 119.853310
 H78     -C41     -C42     : 120.749905  C43     -C42     -C41     : 119.212433
 H79     -C42     -C41     : 120.654614  H79     -C42     -C43     : 120.130661
 C44     -C43     -C42     : 122.304712  H80     -C43     -C42     : 119.595717
 H80     -C43     -C44     : 118.097203  C43     -C44     -C29     : 118.418463
 C45     -C44     -C29     : 126.363334  C45     -C44     -C43     : 115.204470
 C46     -C45     -C44     : 119.049645  C50     -C45     -C44     : 122.686903
 C50     -C45     -C46     : 117.853045  C47     -C46     -C45     : 121.346658
 O53     -C46     -C45     : 115.173307  O53     -C46     -C47     : 123.477831
 C48     -C47     -C46     : 119.042221  H81     -C47     -C46     : 121.045548
 H81     -C47     -C48     : 119.903327  C49     -C48     -C47     : 121.286702
 H82     -C48     -C47     : 119.405523  H82     -C48     -C49     : 119.283478
 C50     -C49     -C48     : 119.154215  H83     -C49     -C48     : 119.604415
 H83     -C49     -C50     : 121.233320  C49     -C50     -C45     : 121.307277
 O51     -C50     -C45     : 115.485654  O51     -C50     -C49     : 123.194823
 C52     -O51     -C50     : 118.043336  H84     -C52     -O51     : 105.815984
 H85     -C52     -O51     : 111.388285  H85     -C52     -H84     : 109.460255
 H86     -C52     -O51     : 111.579258  H86     -C52     -H84     : 108.960687
 H86     -C52     -H85     : 109.535448  C54     -O53     -C46     : 118.668143
 H87     -C54     -O53     : 111.255830  H88     -C54     -O53     : 105.739837
 H88     -C54     -H87     : 109.434161  H89     -C54     -O53     : 111.742614
 H89     -C54     -H87     : 109.459706  H89     -C54     -H88     : 109.112739
 
  torsional angles:
 
 P1      -Pd2     -N3      -H15     : -44.967075
 P1      -Pd2     -N3      -C19     : 177.313313
 P1      -Pd2     -C7      -C6      : -88.437596
 P1      -Pd2     -C7      -C8      :  95.274649
 P1      -C27     -C30     -C31     : 175.924568
 P1      -C27     -C30     -H56     : -63.828114
 P1      -C27     -C30     -H57     :  54.112214
 P1      -C27     -C34     -C33     :-174.475746
 P1      -C27     -C34     -H64     : -52.622231
 P1      -C27     -C34     -H65     :  64.070505
 P1      -C28     -C35     -C36     :-179.392565
 P1      -C28     -C35     -H67     : -57.052426
 P1      -C28     -C35     -H68     :  59.980304
 P1      -C28     -C39     -C38     :-179.621323
 P1      -C28     -C39     -H75     : -59.630218
 P1      -C28     -C39     -H76     :  57.592766
 P1      -C29     -C40     -C41     :-176.684520
 P1      -C29     -C40     -H77     :   4.171690
 P1      -C29     -C44     -C43     : 176.368176
 P1      -C29     -C44     -C45     :  -5.049740
 Pd2     -P1      -C27     -C30     : 153.108049
 Pd2     -P1      -C27     -C34     :  24.814658
 Pd2     -P1      -C27     -H55     : -89.774801
 Pd2     -P1      -C28     -C35     : -43.487887
 Pd2     -P1      -C28     -C39     :  80.548810
 Pd2     -P1      -C28     -H66     :-160.506139
 Pd2     -P1      -C29     -C40     :-168.042506
 Pd2     -P1      -C29     -C44     :  14.403110
 Pd2     -N3      -C19     -C18     : 153.515462
 Pd2     -N3      -C19     -C20     : -27.996780
 Pd2     -C7      -C6      -C5      :-176.445944
 Pd2     -C7      -C6      -H12     :   6.143530
 Pd2     -C7      -C8      -C9      : 176.948748
 Pd2     -C7      -C8      -H13     :  -2.421873
 N3      -Pd2     -P1      -C27     :  57.814099
 N3      -Pd2     -P1      -C28     : 174.013213
 N3      -Pd2     -P1      -C29     : -57.535461
 N3      -Pd2     -C7      -C6      : 100.837551
 N3      -Pd2     -C7      -C8      : -75.450205
 N3      -C19     -C18     -C17     : 177.274603
 N3      -C19     -C18     -H24     :  -2.249030
 N3      -C19     -C20     -C21     :-177.513050
 N3      -C19     -C20     -H25     :   3.881612
 C4      -C5      -C6      -C7      :  -0.325415
 C4      -C5      -C6      -H12     : 177.138160
 C4      -C9      -C8      -C7      :  -0.801988
 C4      -C9      -C8      -H13     : 178.580140
 C5      -C4      -C9      -C8      :   0.379753
 C5      -C4      -C9      -H14     : 179.593765
 C5      -C6      -C7      -C8      :  -0.090603
 C6      -C5      -C4      -C9      :   0.180206
 C6      -C5      -C4      -F10     :-179.437096
 C6      -C7      -C8      -C9      :   0.662056
 C6      -C7      -C8      -H13     :-178.708565
 C7      -Pd2     -P1      -C27     : -79.676150
 C7      -Pd2     -P1      -C28     :  36.522964
 C7      -Pd2     -P1      -C29     : 164.974290
 C7      -Pd2     -N3      -H15     :  92.744970
 C7      -Pd2     -N3      -C19     : -44.974642
 C7      -C6      -C5      -H11     :-179.054612
 C7      -C8      -C9      -H14     : 179.998787
 C8      -C7      -C6      -H12     :-177.501129
 C8      -C9      -C4      -F10     : 179.996851
 C9      -C4      -C5      -H11     : 178.932320
 F10     -C4      -C5      -H11     :  -0.684983
 F10     -C4      -C9      -H14     :  -0.789137
 H11     -C5      -C6      -H12     :  -1.591036
 H13     -C8      -C9      -H14     :  -0.619086
 H15     -N3      -C19     -C18     :  15.450086
 H15     -N3      -C19     -C20     :-166.062156
 C16     -C17     -C18     -C19     :   0.590076
 C16     -C17     -C18     -H24     :-179.889408
 C16     -C21     -C20     -C19     :  -0.146682
 C16     -C21     -C20     -H25     : 178.428297
 C17     -C16     -C21     -C20     :  -0.563250
 C17     -C16     -C21     -H26     : 178.903798
 C17     -C18     -C19     -C20     :  -1.262239
 C18     -C17     -C16     -C21     :   0.342396
 C18     -C17     -C16     -H22     : 179.599986
 C18     -C19     -C20     -C21     :   1.043840
 C18     -C19     -C20     -H25     :-177.561498
 C19     -C18     -C17     -H23     :-179.787911
 C19     -C20     -C21     -H26     :-179.619442
 C20     -C19     -C18     -H24     : 179.214128
 C20     -C21     -C16     -H22     :-179.820328
 C21     -C16     -C17     -H23     :-179.276755
 H22     -C16     -C17     -H23     :  -0.019165
 H22     -C16     -C21     -H26     :  -0.353280
 H23     -C17     -C18     -H24     :  -0.267396
 H25     -C20     -C21     -H26     :  -1.044463
 C27     -P1      -C28     -C35     :  72.774433
 C27     -P1      -C28     -C39     :-163.188871
 C27     -P1      -C28     -H66     : -44.243819
 C27     -P1      -C29     -C40     :  74.477452
 C27     -P1      -C29     -C44     :-103.076931
 C27     -C30     -C31     -C32     :  56.835956
 C27     -C30     -C31     -H58     : -63.981286
 C27     -C30     -C31     -H59     : 179.463302
 C27     -C34     -C33     -C32     : -54.965090
 C27     -C34     -C33     -H62     :  65.411684
 C27     -C34     -C33     -H63     :-178.100820
 C28     -P1      -C27     -C30     :  30.909201
 C28     -P1      -C27     -C34     : -97.384190
 C28     -P1      -C27     -H55     : 148.026351
 C28     -P1      -C29     -C40     : -35.258635
 C28     -P1      -C29     -C44     : 147.186981
 C28     -C35     -C36     -C37     : -55.585263
 C28     -C35     -C36     -H69     :-178.214394
 C28     -C35     -C36     -H70     :  65.268638
 C28     -C39     -C38     -C37     :  57.184371
 C28     -C39     -C38     -H73     : 179.378755
 C28     -C39     -C38     -H74     : -63.844293
 C29     -P1      -C27     -C30     : -77.788965
 C29     -P1      -C27     -C34     : 153.917643
 C29     -P1      -C27     -H55     :  39.328184
 C29     -P1      -C28     -C35     : 179.381691
 C29     -P1      -C28     -C39     : -56.581613
 C29     -P1      -C28     -H66     :  62.363439
 C29     -C40     -C41     -C42     :  -0.031232
 C29     -C40     -C41     -H78     :-179.892465
 C29     -C44     -C43     -C42     :   0.472870
 C29     -C44     -C43     -H80     : 179.910269
 C29     -C44     -C45     -C46     :-102.776877
 C29     -C44     -C45     -C50     :  84.738965
 C30     -C27     -C34     -C33     :  54.562505
 C30     -C27     -C34     -H64     : 176.416020
 C30     -C27     -C34     -H65     : -66.891244
 C30     -C31     -C32     -C33     : -56.693999
 C30     -C31     -C32     -H60     :  63.630665
 C30     -C31     -C32     -H61     :-179.249046
 C31     -C30     -C27     -C34     : -55.404314
 C31     -C30     -C27     -H55     :  62.454066
 C31     -C32     -C33     -C34     :  55.750458
 C31     -C32     -C33     -H62     : -64.782589
 C31     -C32     -C33     -H63     : 178.350089
 C32     -C31     -C30     -H56     : -64.165266
 C32     -C31     -C30     -H57     : 179.063273
 C32     -C33     -C34     -H64     :-177.220916
 C32     -C33     -C34     -H65     :  66.825302
 C33     -C32     -C31     -H58     :  64.008409
 C33     -C32     -C31     -H59     :-178.807618
 C33     -C34     -C27     -H55     : -63.606121
 C34     -C27     -C30     -H56     :  64.843003
 C34     -C27     -C30     -H57     :-177.216668
 C34     -C33     -C32     -H60     : -64.556965
 C34     -C33     -C32     -H61     : 178.433473
 C35     -C28     -C39     -C38     : -56.057204
 C35     -C28     -C39     -H75     :  63.933902
 C35     -C28     -C39     -H76     :-178.843114
 C35     -C36     -C37     -C38     :  56.246718
 C35     -C36     -C37     -H71     : 179.115891
 C35     -C36     -C37     -H72     : -63.609805
 C36     -C35     -C28     -C39     :  55.300908
 C36     -C35     -C28     -H66     : -62.557116
 C36     -C37     -C38     -C39     : -57.085485
 C36     -C37     -C38     -H73     :-178.695568
 C36     -C37     -C38     -H74     :  64.138626
 C37     -C36     -C35     -H67     :-178.495689
 C37     -C36     -C35     -H68     :  64.522132
 C37     -C38     -C39     -H75     : -63.078564
 C37     -C38     -C39     -H76     :-179.976199
 C38     -C37     -C36     -H69     : 178.260215
 C38     -C37     -C36     -H70     : -64.641387
 C38     -C39     -C28     -H66     :  61.699543
 C39     -C28     -C35     -H67     : 177.641047
 C39     -C28     -C35     -H68     : -65.326224
 C39     -C38     -C37     -H71     :-179.787580
 C39     -C38     -C37     -H72     :  62.889429
 C40     -C29     -C44     -C43     :  -1.176988
 C40     -C29     -C44     -C45     : 177.405097
 C40     -C41     -C42     -C43     :  -0.701222
 C40     -C41     -C42     -H79     : 179.848858
 C41     -C40     -C29     -C44     :   0.984304
 C41     -C42     -C43     -C44     :   0.481984
 C41     -C42     -C43     -H80     :-178.947250
 C42     -C41     -C40     -H77     : 179.126896
 C42     -C43     -C44     -C45     :-178.265202
 C43     -C42     -C41     -H78     : 179.158736
 C43     -C44     -C45     -C46     :  75.844861
 C43     -C44     -C45     -C50     : -96.639297
 C44     -C29     -C40     -H77     :-178.159486
 C44     -C43     -C42     -H79     : 179.934848
 C44     -C45     -C46     -C47     :-171.835733
 C44     -C45     -C46     -O53     :   8.686322
 C44     -C45     -C50     -C49     : 172.047531
 C44     -C45     -C50     -O51     :  -6.718520
 C45     -C44     -C43     -H80     :   1.172197
 C45     -C46     -C47     -C48     :  -0.584306
 C45     -C46     -C47     -H81     :-179.497676
 C45     -C46     -O53     -C54     : 175.074104
 C45     -C50     -C49     -C48     :  -0.384410
 C45     -C50     -C49     -H83     : 178.579176
 C45     -C50     -O51     -C52     :-179.285984
 C46     -C45     -C50     -C49     :  -0.521685
 C46     -C45     -C50     -O51     :-179.287736
 C46     -C47     -C48     -C49     :  -0.364584
 C46     -C47     -C48     -H82     :-178.558528
 C46     -O53     -C54     -H87     : -58.451562
 C46     -O53     -C54     -H88     :-177.173050
 C46     -O53     -C54     -H89     :  64.230420
 C47     -C46     -C45     -C50     :   1.011765
 C47     -C46     -O53     -C54     :  -4.391363
 C47     -C48     -C49     -C50     :   0.841562
 C47     -C48     -C49     -H83     :-178.139184
 C48     -C47     -C46     -O53     : 178.849246
 C48     -C49     -C50     -O51     : 178.284479
 C49     -C48     -C47     -H81     : 178.561460
 C49     -C50     -O51     -C52     :   1.973892
 C50     -C45     -C46     -O53     :-178.466181
 C50     -C49     -C48     -H82     : 179.037668
 C50     -O51     -C52     -H84     :-179.957430
 C50     -O51     -C52     -H85     :  61.172896
 C50     -O51     -C52     -H86     : -61.585383
 O51     -C50     -C49     -H83     :  -2.751935
 O53     -C46     -C47     -H81     :  -0.064124
 H55     -C27     -C30     -H56     :-177.298616
 H55     -C27     -C30     -H57     : -59.358288
 H55     -C27     -C34     -H64     :  58.247393
 H55     -C27     -C34     -H65     : 174.940130
 H56     -C30     -C31     -H58     : 175.017492
 H56     -C30     -C31     -H59     :  58.462080
 H57     -C30     -C31     -H58     :  58.246030
 H57     -C30     -C31     -H59     : -58.309381
 H58     -C31     -C32     -H60     :-175.666927
 H58     -C31     -C32     -H61     : -58.546638
 H59     -C31     -C32     -H60     : -58.482954
 H59     -C31     -C32     -H61     :  58.637335
 H60     -C32     -C33     -H62     : 174.909988
 H60     -C32     -C33     -H63     :  58.042666
 H61     -C32     -C33     -H62     :  57.900425
 H61     -C32     -C33     -H63     : -58.966896
 H62     -C33     -C34     -H64     : -56.844142
 H62     -C33     -C34     -H65     :-172.797923
 H63     -C33     -C34     -H64     :  59.643354
 H63     -C33     -C34     -H65     : -56.310428
 H66     -C28     -C35     -H67     :  59.783023
 H66     -C28     -C35     -H68     : 176.815753
 H66     -C28     -C39     -H75     :-178.309352
 H66     -C28     -C39     -H76     : -61.086367
 H67     -C35     -C36     -H69     :  58.875180
 H67     -C35     -C36     -H70     : -57.641788
 H68     -C35     -C36     -H69     : -58.106999
 H68     -C35     -C36     -H70     :-174.623967
 H69     -C36     -C37     -H71     : -58.870612
 H69     -C36     -C37     -H72     :  58.403692
 H70     -C36     -C37     -H71     :  58.227785
 H70     -C36     -C37     -H72     : 175.502090
 H71     -C37     -C38     -H73     :  58.602337
 H71     -C37     -C38     -H74     : -58.563469
 H72     -C37     -C38     -H73     : -58.720654
 H72     -C37     -C38     -H74     :-175.886459
 H73     -C38     -C39     -H75     :  59.115820
 H73     -C38     -C39     -H76     : -57.781815
 H74     -C38     -C39     -H75     : 175.892772
 H74     -C38     -C39     -H76     :  58.995137
 H77     -C40     -C41     -H78     :  -0.734336
 H78     -C41     -C42     -H79     :  -0.291185
 H79     -C42     -C43     -H80     :   0.505613
 H81     -C47     -C48     -H82     :   0.367517
 H82     -C48     -C49     -H83     :   0.056922
 
  nuclear repulsion energy.......          6419.260137178 hartrees
  
  Detected an organometallic with only one TM atom. 
  
  Oxidation state on metal       2 is     2
  Formal multiplet on metal      2 is     1
  Formal charge on ligand        3 is    -1
  Formal multiplet on ligand     3 is     1
  Formal charge on ligand        4 is    -1
  Formal multiplet on ligand     4 is     1
  
 
  Will use High-Quality Initial guess for organometallics
       including d-d repulsion (iguess=30)
 
 Non-default options chosen:
   SCF calculation type: DFT(b3pw91-d3)              
   DFT=Becke_3_Parameter/HF+Slater+Becke88+PW91+PW-GGAIIC (B3PW91-D3)
   Geometry will be optimized in redundant internal coordinates
   Solvation energy will be computed using PBF
     -solute cavity energy will not be included
     -surface area terms will not be included
   Vibrational frequencies and related properties will be computed
      from analytic second derivatives
   IR intensities will be computed
   Thermochemical properties will be computed
   Maximum number of geometry steps: 100
   Scaling standard convergence criteria by a factor of   5.00
   Solvent: benzene                                                         
   Internal dielectric constant:    1.000
   Continuum dielectric constant:   2.283
   Solvent probe molecule radius:   2.600
  
 Non-default print settings:
     11=  2
  
 Temporary integer options set:
     21= -1  73=  2
  
  atom       vdw   vdw2    cov     mass  grid  daf  charge   basis
  P1        2.147  2.074  1.060   30.974    Y    Y      Y    ps_6-31g*
  Pd2       1.450  1.450  1.280  105.903    Y    Y      Y    lacv3p*
  N3        1.831  1.600  0.750   14.003    Y    Y      Y    ps_6-31g*
  C4        1.949  1.900  0.770   12.000    Y    Y      Y    ps_6-31g*
  C5        1.949  1.900  0.770   12.000    Y    Y      Y    ps_6-31g*
  C6        1.949  1.900  0.770   12.000    Y    Y      Y    ps_6-31g*
  C7        1.949  1.900  0.770   12.000    Y    Y      Y    ps_6-31g*
  C8        1.949  1.900  0.770   12.000    Y    Y      Y    ps_6-31g*
  C9        1.949  1.900  0.770   12.000    Y    Y      Y    ps_6-31g*
  F10       1.736  1.682  0.720   18.998    Y    Y      Y    ps_6-31g*
  H11       1.597  1.150  0.320    1.008    Y    Y      Y    ps_6-31g*
  H12       1.597  1.150  0.320    1.008    Y    Y      Y    ps_6-31g*
  H13       1.597  1.150  0.320    1.008    Y    Y      Y    ps_6-31g*
  H14       1.597  1.150  0.320    1.008    Y    Y      Y    ps_6-31g*
  H15       1.597  1.150  0.320    1.008    Y    Y      Y    ps_6-31g*
  C16       1.949  1.900  0.770   12.000    Y    Y      Y    ps_6-31g*
  C17       1.949  1.900  0.770   12.000    Y    Y      Y    ps_6-31g*
  C18       1.949  1.900  0.770   12.000    Y    Y      Y    ps_6-31g*
  C19       1.949  1.900  0.770   12.000    Y    Y      Y    ps_6-31g*
  C20       1.949  1.900  0.770   12.000    Y    Y      Y    ps_6-31g*
  C21       1.949  1.900  0.770   12.000    Y    Y      Y    ps_6-31g*
  H22       1.597  1.150  0.320    1.008    Y    Y      Y    ps_6-31g*
  H23       1.597  1.150  0.320    1.008    Y    Y      Y    ps_6-31g*
  H24       1.597  1.150  0.320    1.008    Y    Y      Y    ps_6-31g*
  H25       1.597  1.150  0.320    1.008    Y    Y      Y    ps_6-31g*
  H26       1.597  1.150  0.320    1.008    Y    Y      Y    ps_6-31g*
  C27       1.949  1.900  0.770   12.000    Y    Y      Y    ps_6-31g*
  C28       1.949  1.900  0.770   12.000    Y    Y      Y    ps_6-31g*
  C29       1.949  1.900  0.770   12.000    Y    Y      Y    ps_6-31g*
  C30       1.949  1.900  0.770   12.000    Y    Y      Y    ps_6-31g*
  C31       1.949  1.900  0.770   12.000    Y    Y      Y    ps_6-31g*
  C32       1.949  1.900  0.770   12.000    Y    Y      Y    ps_6-31g*
  C33       1.949  1.900  0.770   12.000    Y    Y      Y    ps_6-31g*
  C34       1.949  1.900  0.770   12.000    Y    Y      Y    ps_6-31g*
  C35       1.949  1.900  0.770   12.000    Y    Y      Y    ps_6-31g*
  C36       1.949  1.900  0.770   12.000    Y    Y      Y    ps_6-31g*
  C37       1.949  1.900  0.770   12.000    Y    Y      Y    ps_6-31g*
  C38       1.949  1.900  0.770   12.000    Y    Y      Y    ps_6-31g*
  C39       1.949  1.900  0.770   12.000    Y    Y      Y    ps_6-31g*
  C40       1.949  1.900  0.770   12.000    Y    Y      Y    ps_6-31g*
  C41       1.949  1.900  0.770   12.000    Y    Y      Y    ps_6-31g*
  C42       1.949  1.900  0.770   12.000    Y    Y      Y    ps_6-31g*
  C43       1.949  1.900  0.770   12.000    Y    Y      Y    ps_6-31g*
  C44       1.949  1.900  0.770   12.000    Y    Y      Y    ps_6-31g*
  C45       1.949  1.900  0.770   12.000    Y    Y      Y    ps_6-31g*
  C46       1.949  1.900  0.770   12.000    Y    Y      Y    ps_6-31g*
  C47       1.949  1.900  0.770   12.000    Y    Y      Y    ps_6-31g*
  C48       1.949  1.900  0.770   12.000    Y    Y      Y    ps_6-31g*
  C49       1.949  1.900  0.770   12.000    Y    Y      Y    ps_6-31g*
  C50       1.949  1.900  0.770   12.000    Y    Y      Y    ps_6-31g*
  O51       1.702  1.600  0.730   15.995    Y    Y      Y    ps_6-31g*
  C52       1.949  1.900  0.770   12.000    Y    Y      Y    ps_6-31g*
  O53       1.702  1.600  0.730   15.995    Y    Y      Y    ps_6-31g*
  C54       1.949  1.900  0.770   12.000    Y    Y      Y    ps_6-31g*
  H55       1.597  1.150  0.320    1.008    Y    Y      Y    ps_6-31g*
  H56       1.597  1.150  0.320    1.008    Y    Y      Y    ps_6-31g*
  H57       1.597  1.150  0.320    1.008    Y    Y      Y    ps_6-31g*
  H58       1.597  1.150  0.320    1.008    Y    Y      Y    ps_6-31g*
  H59       1.597  1.150  0.320    1.008    Y    Y      Y    ps_6-31g*
  H60       1.597  1.150  0.320    1.008    Y    Y      Y    ps_6-31g*
  H61       1.597  1.150  0.320    1.008    Y    Y      Y    ps_6-31g*
  H62       1.597  1.150  0.320    1.008    Y    Y      Y    ps_6-31g*
  H63       1.597  1.150  0.320    1.008    Y    Y      Y    ps_6-31g*
  H64       1.597  1.150  0.320    1.008    Y    Y      Y    ps_6-31g*
  H65       1.597  1.150  0.320    1.008    Y    Y      Y    ps_6-31g*
  H66       1.597  1.150  0.320    1.008    Y    Y      Y    ps_6-31g*
  H67       1.597  1.150  0.320    1.008    Y    Y      Y    ps_6-31g*
  H68       1.597  1.150  0.320    1.008    Y    Y      Y    ps_6-31g*
  H69       1.597  1.150  0.320    1.008    Y    Y      Y    ps_6-31g*
  H70       1.597  1.150  0.320    1.008    Y    Y      Y    ps_6-31g*
  H71       1.597  1.150  0.320    1.008    Y    Y      Y    ps_6-31g*
  H72       1.597  1.150  0.320    1.008    Y    Y      Y    ps_6-31g*
  H73       1.597  1.150  0.320    1.008    Y    Y      Y    ps_6-31g*
  H74       1.597  1.150  0.320    1.008    Y    Y      Y    ps_6-31g*
  H75       1.597  1.150  0.320    1.008    Y    Y      Y    ps_6-31g*
  H76       1.597  1.150  0.320    1.008    Y    Y      Y    ps_6-31g*
  H77       1.597  1.150  0.320    1.008    Y    Y      Y    ps_6-31g*
  H78       1.597  1.150  0.320    1.008    Y    Y      Y    ps_6-31g*
  H79       1.597  1.150  0.320    1.008    Y    Y      Y    ps_6-31g*
  H80       1.597  1.150  0.320    1.008    Y    Y      Y    ps_6-31g*
  H81       1.597  1.150  0.320    1.008    Y    Y      Y    ps_6-31g*
  H82       1.597  1.150  0.320    1.008    Y    Y      Y    ps_6-31g*
  H83       1.597  1.150  0.320    1.008    Y    Y      Y    ps_6-31g*
  H84       1.597  1.150  0.320    1.008    Y    Y      Y    ps_6-31g*
  H85       1.597  1.150  0.320    1.008    Y    Y      Y    ps_6-31g*
  H86       1.597  1.150  0.320    1.008    Y    Y      Y    ps_6-31g*
  H87       1.597  1.150  0.320    1.008    Y    Y      Y    ps_6-31g*
  H88       1.597  1.150  0.320    1.008    Y    Y      Y    ps_6-31g*
  H89       1.597  1.150  0.320    1.008    Y    Y      Y    ps_6-31g*
 
  atom      formal  2spin      esp    mulk    frag
  P1           0       0        Y    0.000       0
  Pd2          2       0        Y    0.000       0
  N3          -1       0        Y    0.000       0
  C4          -1       0        Y    0.000       0
  
  end of program pre
   
 Time(pre)  user:       1.133  user+sys:       1.133  wallclock:       0.953
  
  start of program onee
  
  smallest eigenvalue of S:    3.880E-04
  number of canonical orbitals.....          723
  end of program onee
   
 Time(onee)  user:       8.514  user+sys:       8.514  wallclock:       1.920
  
  start of program hfig
  
  initial wavefunction generated automatically from atomic wavefunctions
  Only one state below 0.010000
  Skip d-d repulsion considerations 
 
  Irreducible     Total no   No of occupied orbitals 
  representation  orbitals   Shell_1  Shell_2    ...
  No Symm          723        169
  ------------------------
  Orbital occupation/shell    1.000
 
  end of program hfig
   
 Time(hfig)  user:       1.982  user+sys:       1.982  wallclock:       1.543
  
  start of program probe
  
  end of program probe
   
 Time(probe)  user:       1.924  user+sys:       1.924  wallclock:       0.997
  
  start of program grid
  
   grid     grid set  grid #  grid sym
  ------    --------  ------  --------
  coarse        0        0        1
  medium        2        1        1
  fine          0        0        1
  ultrafine     4        2        1
  charge       -1        3        1
  gradient      4        2        1
  density       0        0        1
  DFT-fine    -11        4        1
  DFT-med.    -10        5        1
  DFT-grad    -12        6        1
  DFT-der2     -8        7        1
  DFT-cphf     -9        8        1
  LMP2-enrg     4        2        1
  LMP2-grad     2        1        1
  DFT-cphf2   -15        9        1
  PBF-dens      0        0        1
  plotting      0        0        1
  Rel-grad    -17        0        1
  
  number of gridpoints: 
     atom           P1         Pd2          N3          C4          C5          C6          C7
  grid # 1         608         356         108          80          92          91          98
  grid # 2         429         306         379         331         319         297         378
  grid # 3          13         241          32          35          20          11          12
  grid # 4        8714        8714        8714        8714        8714        8714        8714
  grid # 5        1192        1192        1192        1192        1192        1192        1192
  grid # 6        9132        9132        5922        5922        5922        5922        5922
  grid # 7       23034       32968       13958       13950       13950       13950       13950
  grid # 8         722        1150         756         748         748         748         748
  grid # 9         366        2198         406         394         394         394         394
   
  number of gridpoints: 
     atom           C8          C9         F10         H11         H12         H13         H14
  grid # 1          94          94         584         113         106         104         115
  grid # 2         322         322         565         456         430         430         462
  grid # 3          18          28         355         313         108         152         392
  grid # 4        8714        8714        8714        8714        8714        8714        8714
  grid # 5        1192        1192        1192        1192        1192        1192        1192
  grid # 6        5922        5922        5922        5922        5922        5922        5922
  grid # 7       13950       13950       23190       15206       15206       15206       15206
  grid # 8         748         748         770         786         786         786         786
  grid # 9         394         394         420         420         420         420         420
   
  number of gridpoints: 
     atom          H15         C16         C17         C18         C19         C20         C21
  grid # 1         108          97          97          97          96          96          96
  grid # 2         437         325         327         328         355         326         327
  grid # 3         202          50          51          43          37          36          45
  grid # 4        8714        8714        8714        8714        8714        8714        8714
  grid # 5        1192        1192        1192        1192        1192        1192        1192
  grid # 6        5922        5922        5922        5922        5922        5922        5922
  grid # 7       15206       13950       13950       13950       13950       13950       13950
  grid # 8         786         748         748         748         748         748         748
  grid # 9         420         394         394         394         394         394         394
   
  number of gridpoints: 
     atom          H22         H23         H24         H25         H26         C27         C28
  grid # 1         118         118         116         110         118          80          79
  grid # 2         467         467         456         441         465         329         327
  grid # 3         428         418         347         150         392           6           6
  grid # 4        8714        8714        8714        8714        8714        8714        8714
  grid # 5        1192        1192        1192        1192        1192        1192        1192
  grid # 6        5922        5922        5922        5922        5922        5922        5922
  grid # 7       15206       15206       15206       15206       15206       13950       13950
  grid # 8         786         786         786         786         786         748         748
  grid # 9         420         420         420         420         420         394         394
   
  number of gridpoints: 
     atom          C29         C30         C31         C32         C33         C34         C35
  grid # 1          95          92          92          92          92          90          90
  grid # 2         386         277         279         278         278         283         282
  grid # 3          18           6           6           6           6           6           6
  grid # 4        8714        8714        8714        8714        8714        8714        8714
  grid # 5        1192        1192        1192        1192        1192        1192        1192
  grid # 6        5922        5922        5922        5922        5922        5922        5922
  grid # 7       13950       13950       13950       13950       13950       13950       13950
  grid # 8         748         748         748         748         748         748         748
  grid # 9         394         394         394         394         394         394         394
   
  number of gridpoints: 
     atom          C36         C37         C38         C39         C40         C41         C42
  grid # 1          92          92          92          90          93          96          97
  grid # 2         279         278         279         279         326         324         324
  grid # 3           6           6           6           6          21          41          48
  grid # 4        8714        8714        8714        8714        8714        8714        8714
  grid # 5        1192        1192        1192        1192        1192        1192        1192
  grid # 6        5922        5922        5922        5922        5922        5922        5922
  grid # 7       13950       13950       13950       13950       13950       13950       13950
  grid # 8         748         748         748         748         748         748         748
  grid # 9         394         394         394         394         394         394         394
   
  number of gridpoints: 
     atom          C43         C44         C45         C46         C47         C48         C49
  grid # 1          95          98          99          92          96          96          96
  grid # 2         326         359         357         341         323         326         322
  grid # 3          31          13           8          18          32          36          31
  grid # 4        8714        8714        8714        8714        8714        8714        8714
  grid # 5        1192        1192        1192        1192        1192        1192        1192
  grid # 6        5922        5922        5922        5922        5922        5922        5922
  grid # 7       13950       13950       13950       13950       13950       13950       13950
  grid # 8         748         748         748         748         748         748         748
  grid # 9         394         394         394         394         394         394         394
   
  number of gridpoints: 
     atom          C50         O51         C52         O53         C54         H55         H56
  grid # 1          91         118          75         118          74         101         106
  grid # 2         349         450         231         455         227         429         430
  grid # 3          24          59           6          75           6          92         117
  grid # 4        8714        8714        8714        8714        8714        8714        8714
  grid # 5        1192        1192        1192        1192        1192        1192        1192
  grid # 6        5922        5922        5922        5922        5922        5922        5922
  grid # 7       13950       23382       13950       23382       13950       15206       15206
  grid # 8         748         774         748         774         748         786         786
  grid # 9         394         416         394         416         394         420         420
   
  number of gridpoints: 
     atom          H57         H58         H59         H60         H61         H62         H63
  grid # 1         106         110         112         110         112         109         111
  grid # 2         434         447         456         451         457         445         455
  grid # 3         154         255         323         253         329         191         289
  grid # 4        8714        8714        8714        8714        8714        8714        8714
  grid # 5        1192        1192        1192        1192        1192        1192        1192
  grid # 6        5922        5922        5922        5922        5922        5922        5922
  grid # 7       15206       15206       15206       15206       15206       15206       15206
  grid # 8         786         786         786         786         786         786         786
  grid # 9         420         420         420         420         420         420         420
   
  number of gridpoints: 
     atom          H64         H65         H66         H67         H68         H69         H70
  grid # 1          99          99          97         101          95         109         110
  grid # 2         427         415         416         424         393         448         450
  grid # 3          85          51          62          86          11         241         252
  grid # 4        8714        8714        8714        8714        8714        8714        8714
  grid # 5        1192        1192        1192        1192        1192        1192        1192
  grid # 6        5922        5922        5922        5922        5922        5922        5922
  grid # 7       15206       15206       15206       15206       15206       15206       15206
  grid # 8         786         786         786         786         786         786         786
  grid # 9         420         420         420         420         420         420         420
   
  number of gridpoints: 
     atom          H71         H72         H73         H74         H75         H76         H77
  grid # 1         112         106         112         110         105         105         104
  grid # 2         459         439         456         450         436         441         428
  grid # 3         329         183         323         260         137         181         127
  grid # 4        8714        8714        8714        8714        8714        8714        8714
  grid # 5        1192        1192        1192        1192        1192        1192        1192
  grid # 6        5922        5922        5922        5922        5922        5922        5922
  grid # 7       15206       15206       15206       15206       15206       15206       15206
  grid # 8         786         786         786         786         786         786         786
  grid # 9         420         420         420         420         420         420         420
   
  number of gridpoints: 
     atom          H78         H79         H80         H81         H82         H83         H84
  grid # 1         118         118         117         110         117         110         109
  grid # 2         467         467         458         444         466         443         454
  grid # 3         419         426         336         253         395         232         302
  grid # 4        8714        8714        8714        8714        8714        8714        8714
  grid # 5        1192        1192        1192        1192        1192        1192        1192
  grid # 6        5922        5922        5922        5922        5922        5922        5922
  grid # 7       15206       15206       15206       15206       15206       15206       15206
  grid # 8         786         786         786         786         786         786         786
  grid # 9         420         420         420         420         420         420         420
   
  number of gridpoints: 
     atom          H85         H86         H87         H88         H89       total
  grid # 1         109         111         111         111         111       10305
  grid # 2         444         451         448         462         451       34562
  grid # 3         228         320         270         383         323       12686
  grid # 4        8714        8714        8714        8714        8714      775546
  grid # 5        1192        1192        1192        1192        1192      106088
  grid # 6        5922        5922        5922        5922        5922      533478
  grid # 7       15206       15206       15206       15206       15206     1354284
  grid # 8         786         786         786         786         786       68740
  grid # 9         420         420         420         420         420       38094
   
  end of program grid
   
 Time(grid)  user:     506.248  user+sys:     506.248  wallclock:      34.905
  
  start of program rwr
  
  end of program rwr
   
 Time(rwr)  user:      65.914  user+sys:      65.914  wallclock:      17.320
  
  start of program scf
  
 number of electrons..........        338
 number of alpha electrons....        169
 number of beta electrons.....        169
 number of orbitals, total....        723
 number of doubly-occ'd orbs..        169
 number of open shell orbs....          0
 number of occupied orbitals..        169
 number of virtual orbitals...        554
 number of hamiltonians.......          1
 number of shells.............          1
 SCF type: DFT=Becke_3_Parameter/HF+Slater+Becke88+PW91+PW-GGAIIC (B3PW91-D3)
 Energy computed using pseudospectral method.
 Convergence Criterion:
    Energy (econv):       1.00E-05
    RMS density (dconv):  5.00E-06
  
       i  u  d  i  g                   
       t  p  i  c  r                                 RMS    maximum
       e  d  i  u  i                       energy  density   DIIS  
       r  t  s  t  d       total energy    change  change    error 
  
etot    1  N  N  5  M   -2241.99517188048           1.9E-03  1.7E-01
etot    2  Y  Y  6  M   -2245.96176465070  4.0E+00  2.7E-03  1.0E-01
etot    3  Y  Y  6  M   -2247.05797762481  1.1E+00  1.1E-03  5.4E-02
etot    4  N  Y  2  U   -2247.45419635808  4.0E-01  7.7E-04  5.3E-02
etot    5  Y  Y  6  M   -2247.53283403729  7.9E-02  4.9E-04  3.0E-02
etot    6  N  Y  2  U   -2247.53869660344  5.9E-03  4.0E-04  1.2E-02
etot    7  Y  Y  6  M   -2247.54614220925  7.4E-03  7.2E-05  3.6E-03
etot    8  N  Y  2  U   -2247.54963799285  3.5E-03  3.1E-05  8.6E-04
etot    9  N  Y  2  U   -2247.54994923031  3.1E-04  9.7E-06  3.3E-04
etot   10  N  Y  2  U   -2247.54996439600  1.5E-05  4.4E-06  1.0E-04
etot   11  N  N  2  U   -2247.54996770515  3.3E-06  0.0E+00  0.0E+00
 
  Computing the dispersion energy correction and its gradients...
  
  
 Energy components, in hartrees:
   (A)  Nuclear repulsion............    6419.26013717755
   (E)  Total one-electron terms.....  -15906.08864710566
   (F)    Electron-nuclear...........  -18060.95231720606
   (H)    Kinetic....................    2154.86367010040
   (I)  Total two-electron terms.....    7239.27854222297
   (J)    Coulomb....................    7532.60120154880
   (K)    Exchange+Correlation.......    -293.32265932583
   (L)  Electronic energy............   -8666.81010488269  (E+I)
   (N0) D3 correction................      -0.15398360520
   (N)  Total energy.................   -2247.70395131035  (A+L+N0)
   (O)  Gas phase energy.............   -2247.70395131035
  
 SCFE: SCF energy: DFT(b3pw91-d3)     -2247.70395131035 hartrees   iterations:  11
  
 
 HOMO energy:    -0.15977
 LUMO energy:    -0.05553
 
  Orbital energies (hartrees): 
   -77.06894   -24.67118   -19.17428   -19.16851   -14.28363   -10.24058
   -10.23851   -10.23751   -10.22638   -10.22033   -10.19866   -10.19350
   -10.18457   -10.18292   -10.18167   -10.18116   -10.18109   -10.17893
   -10.17808   -10.17784   -10.17421   -10.17308   -10.16907   -10.16780
   -10.16741   -10.16615   -10.16515   -10.16330   -10.16305   -10.16285
   -10.16267   -10.16221   -10.16169   -10.16053   -10.16036   -10.15654
   -10.15302   -10.14197   -10.14090   -10.13978   -10.13545   -10.13371
   -10.13057    -6.57046    -4.72846    -4.72787    -4.72521    -3.33338
    -2.06599    -2.06322    -2.03273    -1.20285    -1.07939    -1.07402
    -0.87637    -0.86568    -0.85554    -0.85388    -0.84233    -0.83305
    -0.79893    -0.79082    -0.77669    -0.76254    -0.75421    -0.75095
    -0.74804    -0.74337    -0.74139    -0.73743    -0.72915    -0.71478
    -0.71166    -0.69530    -0.68401    -0.65769    -0.63175    -0.62143
    -0.61728    -0.61132    -0.60646    -0.60321    -0.59214    -0.59071
    -0.59004    -0.57795    -0.56590    -0.55878    -0.55647    -0.55099
    -0.54455    -0.52881    -0.51603    -0.50803    -0.49289    -0.48810
    -0.48520    -0.48376    -0.48081    -0.47409    -0.47263    -0.47140
    -0.46223    -0.45771    -0.45099    -0.45027    -0.45020    -0.44977
    -0.44515    -0.44353    -0.44149    -0.43885    -0.43445    -0.43028
    -0.42908    -0.42638    -0.42475    -0.41816    -0.41294    -0.40389
    -0.39814    -0.39657    -0.39245    -0.38848    -0.38760    -0.38410
    -0.38204    -0.38108    -0.38006    -0.37500    -0.37405    -0.36860
    -0.36471    -0.36188    -0.35701    -0.35272    -0.35015    -0.34943
    -0.34856    -0.34588    -0.34199    -0.33830    -0.33240    -0.32882
    -0.32801    -0.32550    -0.32172    -0.31921    -0.31395    -0.30985
    -0.30665    -0.30335    -0.30160    -0.29938    -0.29294    -0.28731
    -0.27192    -0.25855    -0.25813    -0.25508    -0.25277    -0.24916
    -0.23567    -0.23086    -0.22168    -0.22058    -0.21473    -0.19733
    -0.15977    -0.05553    -0.02899    -0.01687    -0.00368    -0.00215
     0.01433     0.01709     0.01898     0.03321     0.04774
 
  end of program scf
   
 Time(scf)  user:     688.319  user+sys:     688.319  wallclock:      67.794
  
  start of program der1a
  
  end of program der1a
   
 Time(der1a)  user:      22.118  user+sys:      22.118  wallclock:       2.251
  
  start of program rwr
  
  end of program rwr
   
 Time(rwr)  user:      40.066  user+sys:      40.066  wallclock:      19.031
  
  start of program der1b
  
   
  forces (hartrees/bohr) : total     
   
 atom  label           x              y              z
 ---- --------   -------------  -------------  -------------
    1 P1          1.863092E-03  -9.598914E-03   9.263397E-04
    2 Pd2        -2.698033E-03   1.749930E-02   2.067171E-03
    3 N3         -1.405011E-03  -4.602588E-03  -1.365529E-03
    4 C4          2.507890E-03  -2.654865E-03  -5.683201E-04
    5 C5         -3.438186E-03   9.256593E-05   5.813419E-03
    6 C6          2.459940E-03  -7.555816E-03   3.160634E-02
    7 C7          1.369195E-02   5.878387E-03   2.177239E-02
    8 C8         -7.438197E-03  -2.952425E-04   7.823605E-03
    9 C9         -4.350703E-04  -2.363521E-03   2.516874E-04
   10 F10        -7.397921E-04   3.595299E-03  -6.225784E-04
   11 H11         4.991027E-04   5.105815E-04   6.167473E-05
   12 H12        -2.634386E-03   1.310109E-03   3.813755E-03
   13 H13        -2.531764E-03  -3.342832E-03   4.416719E-03
   14 H14        -6.652958E-04   9.203453E-06   2.537293E-04
   15 H15        -1.059002E-03   1.322303E-04  -2.587045E-04
   16 C16         7.760021E-04   5.986955E-04  -1.413607E-03
   17 C17        -4.057414E-04   2.564321E-04  -5.406283E-04
   18 C18        -8.228673E-04  -8.108114E-04  -4.640942E-05
   19 C19         3.413070E-04   1.207114E-04   2.479014E-04
   20 C20        -2.515374E-05   1.823042E-03   2.497630E-03
   21 C21        -2.293845E-04  -5.719360E-04   1.441245E-03
   22 H22         2.057943E-04   2.301818E-04  -4.059762E-04
   23 H23        -2.981883E-04   5.958455E-05  -3.963146E-04
   24 H24        -5.231800E-04  -2.930747E-04  -2.494038E-04
   25 H25        -1.595491E-03   1.881260E-03  -2.810107E-04
   26 H26         7.459732E-04   1.418574E-04   5.775531E-04
   27 C27         3.653513E-04   5.433988E-04   2.055057E-03
   28 C28         1.938238E-03  -2.049935E-03  -3.150069E-03
   29 C29        -7.695394E-04   1.998256E-03   4.220721E-04
   30 C30        -6.678793E-04   6.504450E-04  -5.771477E-04
   31 C31        -3.577194E-04  -3.042143E-04   1.954432E-04
   32 C32         1.071375E-03  -5.462085E-05   1.913027E-04
   33 C33        -1.803502E-03   4.092571E-04  -1.599224E-03
   34 C34         4.323661E-03   2.319150E-03  -5.735870E-03
   35 C35        -6.422839E-03   7.717746E-04  -2.421104E-02
   36 C36         1.692150E-03   2.259209E-03  -6.945927E-04
   37 C37         1.206488E-03   3.668269E-05  -1.050347E-03
   38 C38        -7.902714E-04  -5.218000E-04   1.200574E-03
   39 C39         2.586214E-03   1.095530E-03  -2.205903E-03
   40 C40         5.224901E-05   1.372384E-04   2.003350E-04
   41 C41         8.232570E-05   9.957287E-04   1.086562E-03
   42 C42         4.503872E-04  -2.009103E-03   5.716939E-04
   43 C43         1.682271E-04  -8.124059E-04   1.235122E-03
   44 C44         1.035326E-03   1.057163E-03  -4.107447E-03
   45 C45        -8.807410E-04  -4.754999E-03   3.122024E-03
   46 C46        -3.355951E-03  -3.879783E-03   7.899164E-04
   47 C47         1.626420E-03   1.702871E-04   5.167459E-04
   48 C48        -1.126549E-03  -3.438825E-03  -1.262612E-03
   49 C49        -7.213383E-04  -7.951905E-04  -1.679582E-04
   50 C50         2.733476E-03   5.220789E-04  -5.749424E-04
   51 O51         2.172496E-03  -1.245637E-03  -4.857349E-04
   52 C52        -3.342900E-03  -1.446654E-03  -1.752034E-03
   53 O53         1.311600E-03   7.444057E-04  -2.117560E-04
   54 C54         2.841635E-03  -3.965497E-04  -8.909420E-04
   55 H55         7.055889E-04   2.457061E-03   1.526082E-04
   56 H56        -1.530229E-04  -2.781273E-04   5.484042E-04
   57 H57        -1.143118E-04   2.416349E-04  -6.223554E-04
   58 H58         9.591277E-06   4.927361E-04   6.006592E-05
   59 H59         4.165233E-05  -2.049213E-04  -4.406497E-04
   60 H60        -1.447555E-04  -3.378352E-04   1.054369E-05
   61 H61         1.005433E-04  -1.208905E-04  -4.212076E-04
   62 H62         2.677104E-04   1.330987E-03   2.733250E-04
   63 H63         3.092831E-04  -7.278448E-04   6.341657E-04
   64 H64        -1.592681E-03   9.313039E-04  -3.039094E-03
   65 H65         1.311711E-03   3.607032E-03  -4.202599E-03
   66 H66        -1.125489E-03   1.216601E-03  -1.506519E-03
   67 H67        -7.744300E-04  -1.499056E-04   2.337811E-03
   68 H68         3.356812E-03  -2.812776E-03  -3.996045E-02
   69 H69         5.965304E-05   9.025170E-04   7.853963E-04
   70 H70        -5.446755E-04  -1.171367E-03  -6.797662E-04
   71 H71        -4.544011E-04   2.784858E-04   3.093607E-04
   72 H72        -1.147682E-04  -5.459225E-04   2.885971E-05
   73 H73        -1.667814E-04   1.124610E-05  -3.836510E-04
   74 H74         2.080906E-04   4.656961E-04   7.729120E-04
   75 H75        -6.147950E-04   1.220267E-03   4.015223E-03
   76 H76        -3.071654E-04   1.176374E-05   3.410949E-04
   77 H77         1.423008E-04   2.311471E-05   5.463449E-04
   78 H78         7.458963E-05   1.043615E-04   5.825701E-04
   79 H79         1.191318E-04  -4.103399E-04   3.631839E-04
   80 H80         1.586047E-04  -2.661207E-04   4.490442E-04
   81 H81         5.481998E-04  -1.124055E-04  -1.071272E-04
   82 H82        -2.226351E-04   2.804013E-04  -2.692856E-04
   83 H83        -2.444195E-04   3.732667E-04  -5.206760E-04
   84 H84        -2.996409E-05  -8.162789E-04  -3.479104E-04
   85 H85         2.093031E-04   2.585486E-05  -2.150674E-04
   86 H86        -3.065422E-04   7.996675E-05   4.063394E-04
   87 H87        -2.571170E-04   1.367115E-04   3.264015E-07
   88 H88         5.890355E-04   5.373526E-05   1.090359E-04
   89 H89         1.610110E-04   2.171980E-04   1.633025E-04
 -------------   -------------  -------------  -------------
     total        2.769560E-03   5.579294E-04   5.054727E-04
   
  end of program der1b
   
 Time(der1b)  user:     243.703  user+sys:     243.703  wallclock:      22.812
  
  start of program geopt
  
 ----------------------------------------------------------------------------
  Geometry optimization step  1
  Total energy:     -2247.70395131035 hartrees
 ----------------------------------------------------------------------------
  
  
  Level shifts adjusted to satisfy step-size constraints
   Step size:    0.3004727
   Cos(theta):   0.5645141
   Final level shift:  -2.6252859E-01
  
  gradient maximum:        2.3849E-01 .  (  2.2500E-03 )
  gradient rms:            2.8350E-02 .  (  1.5000E-03 )
  displacement maximum:    4.8068E-02 .  (  9.0000E-03 )
  displacement rms:        8.3037E-03 .  (  6.0000E-03 )
  
  predicted energy change:  -3.4459E-02
  step size:     0.14761
  trust radius:  0.30000
  
  molecular structure not yet converged...
  
  center of mass moved by:
     x:    -2.1753E-02     y:     2.5013E-02     z:     1.7780E-02
  
  new geometry: 
                                   angstroms
  atom               x                 y                 z
  P1           -0.1638650510      0.2000691443     -0.2714008770 
  Pd2          -0.1774212809      0.2230469652      2.0582282631 
  N3            0.0612284706      0.6502255337      4.0062288579 
  C4            0.3531810984     -4.4297954163      2.8967667860 
  C5           -0.9125102999     -3.9127980038      2.6625661219 
  C6           -1.0408989546     -2.5513963787      2.3827083132 
  C7            0.0828147619     -1.7183753553      2.3500472099 
  C8            1.3436730018     -2.2664270892      2.6017291019 
  C9            1.4862445977     -3.6318990909      2.8675405483 
  F10           0.4841596295     -5.7497172860      3.1550184602 
  H11          -1.7751929076     -4.5733378797      2.6781312636 
  H12          -2.0270290045     -2.1575822970      2.1603914065 
  H13           2.2289132257     -1.6406928914      2.6121499134 
  H14           2.4597476299     -4.0734615264      3.0640086211 
  H15           1.0357061136      0.8772571357      4.2048886681 
  C16          -1.6796170660     -1.2776942678      7.3289188151 
  C17          -0.4496349257     -0.6303036335      7.4519066133 
  C18           0.1433590571     -0.0109247156      6.3560304520 
  C19          -0.4842968833     -0.0077838466      5.0913981707 
  C20          -1.7214943234     -0.6785172662      4.9818042006 
  C21          -2.3031228513     -1.2971584130      6.0772487687 
  H22          -2.1375067061     -1.7666927919      8.1854488649 
  H23           0.0610434698     -0.6114657507      8.4136135434 
  H24           1.1059614616      0.4884866635      6.4712446003 
  H25          -2.2021514301     -0.7150301501      4.0100790034 
  H26          -3.2554065204     -1.8110080350      5.9506036252 
  C27           1.6387723293      0.1595594625     -0.8484546871 
  C28          -0.9886801207     -1.2614460644     -1.1013157700 
  C29          -0.7817148344      1.6711818163     -1.1755728617 
  C30           1.8709527990     -0.4450898964     -2.2387330339 
  C31           3.3423709449     -0.3273803835     -2.6553470983 
  C32           4.2612892321     -0.9919406654     -1.6306211367 
  C33           4.0409418210     -0.3899706709     -0.2427888539 
  C34           2.5719269339     -0.4868839651      0.1827760498 
  C35          -0.5407658650     -2.5782660640     -0.4459986188 
  C36          -1.1932539652     -3.7852506766     -1.1237723872 
  C37          -2.7192250653     -3.6645325296     -1.1319374781 
  C38          -3.1552551101     -2.3595199289     -1.8025061178 
  C39          -2.5224512710     -1.1491672222     -1.1054325035 
  C40          -1.0275747613      1.6004468392     -2.5570545547 
  C41          -1.4311447123      2.7177942553     -3.2800055208 
  C42          -1.5966542441      3.9378369389     -2.6229030041 
  C43          -1.3690108624      4.0113926076     -1.2533664022 
  C44          -0.9671950499      2.8913824098     -0.5084683671 
  C45          -0.7904197281      3.0935097235      0.9594711435 
  C46          -1.9277245344      3.1932498390      1.7856364051 
  C47          -1.8148396169      3.5499444412      3.1322612134 
  C48          -0.5517573750      3.7993800160      3.6613809618 
  C49           0.5949245558      3.6767084507      2.8850366515 
  C50           0.4690299161      3.3279678388      1.5349533985 
  O51           1.5256506332      3.2089413421      0.6832912779 
  C52           2.8287581875      3.4111300387      1.2023964796 
  O53          -3.1093325943      2.9099849038      1.1752823369 
  C54          -4.2875673722      2.8829331423      1.9611086042 
  H55           1.8780923162      1.2295733422     -0.9084115838 
  H56           1.5866728915     -1.5064865051     -2.2367169888 
  H57           1.2406493991      0.0557488515     -2.9821752932 
  H58           3.6078633308      0.7359563025     -2.7485814453 
  H59           3.4829485076     -0.7746440165     -3.6474839519 
  H60           4.0455052356     -2.0701664813     -1.5962768255 
  H61           5.3118917184     -0.8896493176     -1.9316183066 
  H62           4.3436521115      0.6673301749     -0.2594180961 
  H63           4.6767349731     -0.8859477730      0.5011632878 
  H64           2.4368529678     -0.0068202242      1.1619864707 
  H65           2.3038260953     -1.5417877577      0.3139340811 
  H66          -0.6287728344     -1.2963946626     -2.1405483744 
  H67           0.5506829087     -2.6804752744     -0.4849293849 
  H68          -0.8097765998     -2.5674771889      0.6231549922 
  H69          -0.8806211578     -4.7048878407     -0.6116193567 
  H70          -0.8313358187     -3.8649175637     -2.1612171876 
  H71          -3.1698098523     -4.5291120336     -1.6367469737 
  H72          -3.0869996659     -3.6729473726     -0.0946276821 
  H73          -4.2489512763     -2.2646373421     -1.7865215058 
  H74          -2.8549194775     -2.3741612220     -2.8621061056 
  H75          -2.8846310648     -1.0953004898     -0.0722321000 
  H76          -2.8384588495     -0.2217811662     -1.5976692472 
  H77          -0.9165181461      0.6551516591     -3.0799704253 
  H78          -1.6163036484      2.6331439449     -4.3486545135 
  H79          -1.9093915043      4.8239968564     -3.1705507608 
  H80          -1.5122748646      4.9545956729     -0.7319975601 
  H81          -2.6901653332      3.6183852559      3.7680533689 
  H82          -0.4560147708      4.0580966672      4.7125283311 
  H83           1.5667427687      3.8444256223      3.3341534219 
  H84           3.5085138081      3.2698724996      0.3604706962 
  H85           3.0644545882      2.6817423220      1.9891218606 
  H86           2.9528681832      4.4285033484      1.5961557298 
  H87          -4.2087901761      2.1472943716      2.7728218695 
  H88          -5.0899003405      2.5889582971      1.2809283226 
  H89          -4.5172921954      3.8703889850      2.3837504501 
   
 
  bond lengths (angstroms):
 
 P1      -Pd2     :   2.329782      P1      -C27     :   1.893181
 P1      -C28     :   1.872193      P1      -C29     :   1.833968
 Pd2     -N3      :   2.008517      Pd2     -C7      :   1.980404
 N3      -H15     :   1.020106      N3      -C19     :   1.381364
 C4      -C5      :   1.387123      C4      -C9      :   1.386119
 C4      -F10     :   1.351312      C5      -C6      :   1.395786
 C5      -H11     :   1.086635      C6      -C7      :   1.399187
 C6      -H12     :   1.084881      C7      -C8      :   1.397665
 C8      -C9      :   1.398391      C8      -H13     :   1.084114
 C9      -H14     :   1.086869      C16     -C17     :   1.395384
 C16     -C21     :   1.398505      C16     -H22     :   1.087394
 C17     -C18     :   1.391480      C17     -H23     :   1.089049
 C18     -C19     :   1.411827      C18     -H24     :   1.090545
 C19     -C20     :   1.411578      C20     -C21     :   1.386004
 C20     -H25     :   1.084719      C21     -H26     :   1.089461
 C27     -C30     :   1.533748      C27     -C34     :   1.533657
 C27     -H55     :   1.098089      C28     -C35     :   1.537557
 C28     -C39     :   1.537881      C28     -H66     :   1.100345
 C29     -C40     :   1.404971      C29     -C44     :   1.402969
 C30     -C31     :   1.533784      C30     -H56     :   1.098809
 C30     -H57     :   1.095823      C31     -C32     :   1.528435
 C31     -H58     :   1.099938      C31     -H59     :   1.097334
 C32     -C33     :   1.528725      C32     -H60     :   1.100142
 C32     -H61     :   1.097647      C33     -C34     :   1.532482
 C33     -H62     :   1.099907      C33     -H63     :   1.097129
 C34     -H64     :   1.098890      C34     -H65     :   1.096313
 C35     -C36     :   1.530337      C35     -H67     :   1.096915
 C35     -H68     :   1.102530      C36     -C37     :   1.530760
 C36     -H69     :   1.098077      C36     -H70     :   1.101646
 C37     -C38     :   1.530635      C37     -H71     :   1.097888
 C37     -H72     :   1.100609      C38     -C39     :   1.533397
 C38     -H73     :   1.097921      C38     -H74     :   1.101439
 C39     -H75     :   1.096166      C39     -H76     :   1.096450
 C40     -C41     :   1.390680      C40     -H77     :   1.085982
 C41     -C42     :   1.395594      C41     -H78     :   1.087870
 C42     -C43     :   1.390274      C42     -H79     :   1.087659
 C43     -C44     :   1.403835      C43     -H80     :   1.087190
 C44     -C45     :   1.492297      C45     -C46     :   1.409241
 C45     -C50     :   1.404409      C46     -C47     :   1.397631
 C46     -O53     :   1.359768      C47     -C48     :   1.391964
 C47     -H81     :   1.084025      C48     -C49     :   1.390194
 C48     -H82     :   1.086744      C49     -C50     :   1.400069
 C49     -H83     :   1.083635      C50     -O51     :   1.362330
 O51     -C52     :   1.417194      C52     -H84     :   1.091266
 C52     -H85     :   1.098406      C52     -H86     :   1.097952
 O53     -C54     :   1.416507      C54     -H87     :   1.098294
 C54     -H88     :   1.092156      C54     -H89     :   1.098394
 
  bond angles:
 
 C27     -P1      -Pd2     : 108.091652  C28     -P1      -Pd2     : 116.640541
 C28     -P1      -C27     : 105.525700  C29     -P1      -Pd2     : 118.888733
 C29     -P1      -C27     : 100.816859  C29     -P1      -C28     : 105.024017
 N3      -Pd2     -P1      : 166.218837  C7      -Pd2     -P1      :  97.869105
 C7      -Pd2     -N3      :  92.864274  H15     -N3      -Pd2     : 110.469892
 C19     -N3      -Pd2     : 127.855605  C19     -N3      -H15     : 109.285846
 C9      -C4      -C5      : 121.854935  F10     -C4      -C5      : 118.996953
 F10     -C4      -C9      : 119.147523  C6      -C5      -C4      : 118.771233
 H11     -C5      -C4      : 119.697536  H11     -C5      -C6      : 121.516767
 C7      -C6      -C5      : 120.763895  H12     -C6      -C5      : 118.604285
 H12     -C6      -C7      : 120.604885  C6      -C7      -Pd2     : 118.786503
 C8      -C7      -Pd2     : 121.970231  C8      -C7      -C6      : 119.133875
 C9      -C8      -C7      : 120.603393  H13     -C8      -C7      : 120.799511
 H13     -C8      -C9      : 118.588758  C8      -C9      -C4      : 118.865149
 H14     -C9      -C4      : 119.636717  H14     -C9      -C8      : 121.492468
 C21     -C16     -C17     : 118.576528  H22     -C16     -C17     : 120.689592
 H22     -C16     -C21     : 120.729897  C18     -C17     -C16     : 120.846911
 H23     -C17     -C16     : 119.946824  H23     -C17     -C18     : 119.205074
 C19     -C18     -C17     : 121.130132  H24     -C18     -C17     : 119.788587
 H24     -C18     -C19     : 119.079813  C18     -C19     -N3      : 121.949118
 C20     -C19     -N3      : 120.762708  C20     -C19     -C18     : 117.266976
 C21     -C20     -C19     : 121.233670  H25     -C20     -C19     : 118.289220
 H25     -C20     -C21     : 120.467863  C20     -C21     -C16     : 120.935515
 H26     -C21     -C16     : 120.020230  H26     -C21     -C20     : 119.042093
 C30     -C27     -P1      : 115.395939  C34     -C27     -P1      : 112.545578
 C34     -C27     -C30     : 110.562243  H55     -C27     -P1      : 101.730654
 H55     -C27     -C30     : 107.557617  H55     -C27     -C34     : 108.350833
 C35     -C28     -P1      : 110.566746  C39     -C28     -P1      : 112.555393
 C39     -C28     -C35     : 110.744747  H66     -C28     -P1      : 107.419070
 H66     -C28     -C35     : 106.263103  H66     -C28     -C39     : 109.026319
 C40     -C29     -P1      : 120.221245  C44     -C29     -P1      : 120.514952
 C44     -C29     -C40     : 119.222206  C31     -C30     -C27     : 111.173136
 H56     -C30     -C27     : 109.875605  H56     -C30     -C31     : 108.833937
 H57     -C30     -C27     : 110.347816  H57     -C30     -C31     : 109.417204
 H57     -C30     -H56     : 107.092564  C32     -C31     -C30     : 111.179550
 H58     -C31     -C30     : 109.194160  H58     -C31     -C32     : 109.392815
 H59     -C31     -C30     : 109.706621  H59     -C31     -C32     : 110.605296
 H59     -C31     -H58     : 106.646695  C33     -C32     -C31     : 110.535129
 H60     -C32     -C31     : 109.216729  H60     -C32     -C33     : 109.227246
 H61     -C32     -C31     : 110.553345  H61     -C32     -C33     : 110.500252
 H61     -C32     -H60     : 106.716181  C34     -C33     -C32     : 111.430332
 H62     -C33     -C32     : 108.973161  H62     -C33     -C34     : 109.196242
 H63     -C33     -C32     : 110.735480  H63     -C33     -C34     : 109.792489
 H63     -C33     -H62     : 106.577998  C33     -C34     -C27     : 111.707788
 H64     -C34     -C27     : 109.891482  H64     -C34     -C33     : 109.733984
 H65     -C34     -C27     : 109.708290  H65     -C34     -C33     : 109.177327
 H65     -C34     -H64     : 106.480914  C36     -C35     -C28     : 111.254088
[...]
    C7       X     0.00000  -0.00002  -0.00011
    C7       Y     0.00001  -0.00003  -0.00014
    C7       Z    -0.00001   0.00002  -0.00004
    C8       X    -0.00020   0.00002  -0.00011
    C8       Y    -0.00014   0.00003   0.00003
    C8       Z     0.00006  -0.00001   0.00002
    C9       X    -0.00007   0.00002  -0.00001
    C9       Y     0.00004  -0.00001  -0.00001
    C9       Z     0.00000  -0.00000   0.00002
    F10      X    -0.00000   0.00000  -0.00000
    F10      Y    -0.00001   0.00000  -0.00001
    F10      Z    -0.00000  -0.00000  -0.00000
    H11      X    -0.00018   0.00001  -0.00019
    H11      Y    -0.00014   0.00002  -0.00022
    H11      Z     0.00005  -0.00000   0.00010
    H12      X     0.00009  -0.00074  -0.00193
    H12      Y    -0.00003   0.00036   0.00077
    H12      Z    -0.00001   0.00012   0.00005
    H13      X     0.00223  -0.00020   0.00081
    H13      Y     0.00148  -0.00016   0.00043
    H13      Z    -0.00063   0.00007  -0.00033
    H14      X     0.00087  -0.00020   0.00015
    H14      Y    -0.00045   0.00011  -0.00012
    H14      Z    -0.00002   0.00001  -0.00001
    H15      X    -0.00047  -0.00015  -0.81263
    H15      Y    -0.00039   0.00018   0.23581
    H15      Z    -0.00002  -0.00010  -0.45840
    C16      X     0.00003   0.00009  -0.00021
    C16      Y     0.00001   0.00002  -0.00002
    C16      Z    -0.00000  -0.00001  -0.00000
    C17      X    -0.00001  -0.00004   0.00021
    C17      Y     0.00001   0.00000   0.00018
    C17      Z    -0.00004  -0.00001  -0.00009
    C18      X    -0.00008  -0.00001  -0.00068
    C18      Y     0.00001   0.00001  -0.00005
    C18      Z    -0.00005  -0.00008   0.00020
    C19      X    -0.00001  -0.00011   0.00010
    C19      Y    -0.00001  -0.00002  -0.00188
    C19      Z     0.00003   0.00005   0.00269
    C20      X    -0.00000   0.00002  -0.00055
    C20      Y     0.00001  -0.00004   0.00009
    C20      Z    -0.00012  -0.00010  -0.00065
    C21      X    -0.00000   0.00000   0.00006
    C21      Y     0.00000   0.00000   0.00008
    C21      Z    -0.00001  -0.00006   0.00017
    H22      X    -0.00029  -0.00074   0.00064
    H22      Y    -0.00009  -0.00023  -0.00016
    H22      Z     0.00018   0.00046  -0.00063
    H23      X     0.00004   0.00002   0.00009
    H23      Y    -0.00015  -0.00006  -0.00011
    H23      Z     0.00048   0.00019   0.00011
    H24      X     0.00094   0.00038   0.00083
    H24      Y    -0.00009  -0.00000  -0.00043
    H24      Z     0.00048   0.00023  -0.00306
    H25      X     0.00010   0.00000  -0.00057
    H25      Y    -0.00030  -0.00007  -0.00100
    H25      Z     0.00146   0.00164   0.00132
    H26      X     0.00014   0.00021   0.00077
    H26      Y     0.00001   0.00001   0.00007
    H26      Z     0.00005   0.00008  -0.00032
    C27      X    -0.00000  -0.00000   0.00000
    C27      Y    -0.00004   0.00000  -0.00001
    C27      Z     0.00000  -0.00001  -0.00002
    C28      X     0.00001  -0.00000  -0.00000
    C28      Y    -0.00000   0.00000  -0.00001
    C28      Z     0.00000  -0.00000   0.00004
    C29      X    -0.00001   0.00001  -0.00000
    C29      Y     0.00001  -0.00002  -0.00000
    C29      Z    -0.00001   0.00002  -0.00001
    C30      X    -0.00000   0.00000   0.00001
    C30      Y     0.00000  -0.00001  -0.00000
    C30      Z    -0.00000  -0.00000  -0.00000
    C31      X    -0.00000   0.00000  -0.00000
    C31      Y    -0.00001  -0.00000  -0.00000
    C31      Z    -0.00000  -0.00001  -0.00000
    C32      X    -0.00001   0.00000  -0.00000
    C32      Y    -0.00001  -0.00000  -0.00000
    C32      Z     0.00000  -0.00000   0.00000
    C33      X    -0.00001   0.00000  -0.00000
    C33      Y    -0.00003  -0.00000   0.00000
    C33      Z    -0.00000   0.00000   0.00000
    C34      X    -0.00000  -0.00000  -0.00000
    C34      Y    -0.00003  -0.00001  -0.00000
    C34      Z    -0.00004   0.00001  -0.00001
    C35      X    -0.00002   0.00001  -0.00000
    C35      Y     0.00000  -0.00000  -0.00001
    C35      Z     0.00000   0.00000   0.00000
    C36      X    -0.00000   0.00000   0.00000
    C36      Y     0.00001  -0.00001   0.00000
    C36      Z     0.00000  -0.00000  -0.00000
    C37      X     0.00000  -0.00000   0.00000
    C37      Y     0.00001  -0.00001   0.00000
    C37      Z     0.00000  -0.00000   0.00000
    C38      X     0.00000  -0.00001   0.00000
    C38      Y     0.00000  -0.00000  -0.00000
    C38      Z     0.00000   0.00000  -0.00000
    C39      X    -0.00001   0.00000  -0.00001
    C39      Y     0.00001  -0.00000  -0.00000
    C39      Z    -0.00000   0.00001   0.00000
    C40      X    -0.00001   0.00001  -0.00000
    C40      Y     0.00010  -0.00006   0.00000
    C40      Z     0.00006  -0.00004   0.00000
    C41      X     0.00003  -0.00002   0.00000
    C41      Y     0.00000  -0.00000  -0.00000
    C41      Z     0.00007  -0.00005  -0.00000
    C42      X     0.00007  -0.00005   0.00000
    C42      Y    -0.00010   0.00009  -0.00000
    C42      Z     0.00005  -0.00005  -0.00000
    C43      X     0.00001   0.00000  -0.00000
    C43      Y    -0.00012   0.00004   0.00000
    C43      Z    -0.00011   0.00006  -0.00000
    C44      X    -0.00004  -0.00005   0.00000
    C44      Y    -0.00002   0.00003  -0.00001
    C44      Z     0.00004  -0.00003   0.00001
    C45      X     0.00059   0.00031  -0.00001
    C45      Y     0.00010  -0.00009   0.00003
    C45      Z    -0.00002  -0.00023   0.00001
    C46      X    -0.00016  -0.00120   0.00001
    C46      Y    -0.00015  -0.00123   0.00008
    C46      Z    -0.00044  -0.00320  -0.00003
    C47      X    -0.00975  -0.05854  -0.00002
    C47      Y     0.00194   0.00890  -0.00002
    C47      Z     0.01089   0.05572  -0.00006
    C48      X    -0.00058   0.00610   0.00005
    C48      Y    -0.00506   0.00541  -0.00001
    C48      Z    -0.01688   0.01641   0.00005
    C49      X    -0.07599   0.01207  -0.00000
    C49      Y    -0.01528   0.00210  -0.00000
    C49      Z    -0.02231   0.00254  -0.00002
    C50      X     0.00016   0.00000  -0.00001
    C50      Y     0.00103  -0.00024   0.00003
    C50      Z     0.00327  -0.00062   0.00002
    O51      X    -0.00011   0.00005   0.00000
    O51      Y    -0.00010   0.00003  -0.00001
    O51      Z    -0.00037   0.00004  -0.00000
    C52      X    -0.00002  -0.00001  -0.00001
    C52      Y    -0.00115   0.00009   0.00001
    C52      Z    -0.00235   0.00018  -0.00000
    O53      X     0.00004  -0.00001  -0.00004
    O53      Y     0.00003   0.00012  -0.00001
    O53      Z     0.00006   0.00037  -0.00001
    C54      X     0.00023   0.00075   0.00001
    C54      Y     0.00020   0.00068   0.00002
    C54      Z     0.00049   0.00167  -0.00005
    H55      X     0.00001   0.00003  -0.00005
    H55      Y     0.00053  -0.00001   0.00000
    H55      Z     0.00007  -0.00002   0.00002
    H56      X     0.00001   0.00001  -0.00000
    H56      Y     0.00004   0.00007  -0.00002
    H56      Z     0.00000   0.00001  -0.00001
    H57      X     0.00006  -0.00002   0.00000
    H57      Y    -0.00004   0.00001   0.00001
    H57      Z     0.00007  -0.00003   0.00001
    H58      X     0.00003   0.00000  -0.00000
    H58      Y     0.00015   0.00001   0.00001
    H58      Z    -0.00001  -0.00001   0.00000
    H59      X     0.00002  -0.00000   0.00001
    H59      Y     0.00002   0.00002  -0.00000
    H59      Z     0.00005   0.00005  -0.00001
    H60      X     0.00002   0.00001   0.00000
    H60      Y     0.00012   0.00003   0.00000
    H60      Z     0.00003  -0.00000   0.00000
    H61      X     0.00008  -0.00006   0.00001
    H61      Y     0.00000  -0.00001   0.00000
    H61      Z    -0.00003   0.00002   0.00000
    H62      X     0.00010   0.00000  -0.00000
    H62      Y     0.00023   0.00002   0.00001
    H62      Z    -0.00003   0.00000  -0.00000
    H63      X     0.00008  -0.00006   0.00003
    H63      Y    -0.00003   0.00003  -0.00002
    H63      Z     0.00003  -0.00003   0.00002
    H64      X    -0.00004   0.00000   0.00003
    H64      Y     0.00009  -0.00001  -0.00001
    H64      Z     0.00042  -0.00003  -0.00001
    H65      X     0.00006   0.00001   0.00000
    H65      Y     0.00026   0.00006  -0.00000
    H65      Z     0.00003  -0.00001   0.00004
    H66      X    -0.00002   0.00001   0.00009
    H66      Y     0.00001  -0.00001   0.00015
    H66      Z    -0.00003  -0.00002   0.00004
    H67      X     0.00016  -0.00001   0.00003
    H67      Y    -0.00000  -0.00000  -0.00000
    H67      Z    -0.00008   0.00000  -0.00003
    H68      X     0.00000  -0.00001  -0.00001
    H68      Y    -0.00000   0.00001   0.00006
    H68      Z     0.00003  -0.00002  -0.00003
    H69      X     0.00003  -0.00002  -0.00000
    H69      Y    -0.00008   0.00006   0.00002
    H69      Z     0.00001  -0.00001  -0.00000
    H70      X    -0.00001   0.00000  -0.00001
    H70      Y     0.00001  -0.00000  -0.00001
    H70      Z    -0.00003   0.00000  -0.00005
    H71      X    -0.00003   0.00004  -0.00001
    H71      Y    -0.00005   0.00006  -0.00002
    H71      Z    -0.00003   0.00003  -0.00002
    H72      X     0.00000  -0.00001   0.00000
    H72      Y     0.00001  -0.00000   0.00001
    H72      Z    -0.00001  -0.00003  -0.00004
    H73      X    -0.00000   0.00012   0.00000
    H73      Y     0.00000   0.00001   0.00001
    H73      Z     0.00000  -0.00005  -0.00000
    H74      X    -0.00000  -0.00000  -0.00001
    H74      Y     0.00000  -0.00000  -0.00000
    H74      Z    -0.00002  -0.00002  -0.00004
    H75      X     0.00000  -0.00001   0.00004
    H75      Y     0.00000   0.00001   0.00001
    H75      Z     0.00003  -0.00008   0.00000
    H76      X     0.00009  -0.00005   0.00002
    H76      Y    -0.00012   0.00003   0.00002
    H76      Z     0.00003  -0.00001  -0.00001
    H77      X     0.00015  -0.00007   0.00000
    H77      Y    -0.00113   0.00073  -0.00003
    H77      Z    -0.00083   0.00056  -0.00003
    H78      X    -0.00030   0.00019  -0.00001
    H78      Y    -0.00002   0.00001   0.00000
    H78      Z    -0.00080   0.00059  -0.00004
    H79      X    -0.00069   0.00058  -0.00001
    H79      Y     0.00122  -0.00103   0.00002
    H79      Z    -0.00058   0.00050  -0.00001
    H80      X    -0.00024  -0.00001   0.00001
    H80      Y     0.00123  -0.00039  -0.00004
    H80      Z     0.00097  -0.00032  -0.00000
    H81      X     0.12408   0.66715  -0.00025
    H81      Y    -0.01841  -0.09597   0.00007
    H81      Z    -0.11974  -0.63209   0.00025
    H82      X     0.03476  -0.04192  -0.00009
    H82      Y     0.05361  -0.05474  -0.00030
    H82      Z     0.16924  -0.17193  -0.00048
    H83      X     0.86711  -0.12922  -0.00020
    H83      Y     0.17149  -0.02510  -0.00010
    H83      Z     0.25106  -0.03611   0.00001
    H84      X    -0.00814   0.00061   0.00002
    H84      Y     0.00363  -0.00031  -0.00001
    H84      Z     0.01843  -0.00161  -0.00004
    H85      X     0.00221  -0.00007   0.00002
    H85      Y    -0.00872   0.00063  -0.00001
    H85      Z     0.00875  -0.00077   0.00004
    H86      X     0.00266  -0.00013  -0.00001
    H86      Y     0.02045  -0.00176  -0.00005
    H86      Z     0.00862  -0.00091   0.00000
    H87      X    -0.00037  -0.00224   0.00001
    H87      Y     0.00213   0.00742  -0.00023
    H87      Z    -0.00333  -0.01269   0.00040
    H88      X    -0.00333  -0.01114  -0.00001
    H88      Y    -0.00117  -0.00428   0.00000
    H88      Z    -0.00273  -0.00974  -0.00000
    H89      X    -0.00018  -0.00124   0.00000
    H89      Y    -0.00372  -0.01299  -0.00001
    H89      Z    -0.00069  -0.00266   0.00004
  
  Number of imaginary frequencies:   0
   
  Writing vibrational animation data to red_elim_Ar_trans_L1_PL145_3.vib
  Writing IR vibrational spectrum data to red_elim_Ar_trans_L1_PL145_3_vib.spm
  rotational symmetry number:  1

  rotational temperatures (K):      0.003984      0.003634      0.002769
   
  The Quasi-Harmonic approximation will be applied to compute
  vibrational constributions to thermodynamic properties.
  Frequencies will be adjusted to a minimum value of  100.00 cm^-1.

  vibrational temperatures:
       mode:      1        2        3        4        5        6
  temp. (K):   143.88   143.88   143.88   143.88   143.88   143.88
   
       mode:      7        8        9       10       11       12
  temp. (K):   143.88   143.88   143.88   143.88   143.88   143.88
   
       mode:     13       14       15       16       17       18
  temp. (K):   143.88   143.88   153.80   155.49   162.39   169.71
   
       mode:     19       20       21       22       23       24
  temp. (K):   196.71   198.86   209.89   220.44   226.53   243.53
   
       mode:     25       26       27       28       29       30
  temp. (K):   254.49   261.40   271.03   280.14   293.69   318.81
   
       mode:     31       32       33       34       35       36
  temp. (K):   321.67   335.53   336.58   360.15   366.16   372.20
   
       mode:     37       38       39       40       41       42
  temp. (K):   389.13   402.68   415.00   448.95   465.60   475.01
   
       mode:     43       44       45       46       47       48
  temp. (K):   477.52   488.25   498.26   508.99   540.31   563.95
   
       mode:     49       50       51       52       53       54
  temp. (K):   584.72   589.94   608.29   617.84   621.48   626.35
   
       mode:     55       56       57       58       59       60
  temp. (K):   640.79   649.47   678.68   694.26   709.85   725.90
   
       mode:     61       62       63       64       65       66
  temp. (K):   729.48   753.69   756.06   768.55   783.46   790.58
   
       mode:     67       68       69       70       71       72
  temp. (K):   804.11   837.02   856.77   867.06   891.39   912.49
   
       mode:     73       74       75       76       77       78
  temp. (K):   916.60   916.95   989.60  1013.46  1021.35  1038.53
   
       mode:     79       80       81       82       83       84
  temp. (K):  1045.58  1052.63  1069.76  1092.97  1110.07  1115.86
   
       mode:     85       86       87       88       89       90
  temp. (K):  1119.95  1129.12  1139.51  1160.74  1169.98  1196.10
   
       mode:     91       92       93       94       95       96
  temp. (K):  1199.25  1207.69  1210.44  1214.52  1217.62  1232.11
   
       mode:     97       98       99      100      101      102
  temp. (K):  1236.74  1258.06  1263.85  1285.18  1291.71  1311.93
   
       mode:    103      104      105      106      107      108
  temp. (K):  1320.48  1322.39  1327.28  1354.04  1360.29  1363.76
   
       mode:    109      110      111      112      113      114
  temp. (K):  1367.73  1397.34  1406.53  1408.30  1410.73  1427.23
   
       mode:    115      116      117      118      119      120
  temp. (K):  1445.50  1459.37  1467.40  1477.75  1480.56  1484.24
   
       mode:    121      122      123      124      125      126
  temp. (K):  1524.95  1526.73  1530.05  1547.16  1555.47  1556.97
   
       mode:    127      128      129      130      131      132
  temp. (K):  1561.52  1563.22  1596.69  1600.41  1603.11  1603.73
   
       mode:    133      134      135      136      137      138
  temp. (K):  1611.51  1618.17  1623.36  1641.07  1646.76  1659.75
   
       mode:    139      140      141      142      143      144
  temp. (K):  1674.69  1690.10  1701.28  1710.92  1720.42  1727.16
   
       mode:    145      146      147      148      149      150
  temp. (K):  1742.10  1746.26  1751.08  1751.61  1758.28  1763.67
   
       mode:    151      152      153      154      155      156
  temp. (K):  1780.98  1783.39  1799.41  1805.64  1837.27  1841.58
   
       mode:    157      158      159      160      161      162
  temp. (K):  1872.45  1877.43  1879.99  1883.42  1890.97  1894.07
   
       mode:    163      164      165      166      167      168
  temp. (K):  1899.58  1905.27  1908.06  1927.27  1932.33  1935.69
   
       mode:    169      170      171      172      173      174
  temp. (K):  1937.59  1951.99  1957.93  1977.92  1979.31  1984.34
   
       mode:    175      176      177      178      179      180
  temp. (K):  1987.57  2002.71  2009.70  2014.40  2016.87  2017.35
   
       mode:    181      182      183      184      185      186
  temp. (K):  2019.00  2019.53  2022.14  2024.09  2054.10  2126.64
   
       mode:    187      188      189      190      191      192
  temp. (K):  2132.30  2146.48  2164.12  2166.64  2167.62  2171.39
   
       mode:    193      194      195      196      197      198
  temp. (K):  2173.03  2175.78  2177.60  2179.63  2182.40  2185.28
   
       mode:    199      200      201      202      203      204
  temp. (K):  2185.99  2187.97  2199.12  2202.64  2204.36  2204.73
   
       mode:    205      206      207      208      209      210
  temp. (K):  2205.55  2207.76  2217.73  2220.99  2342.64  2350.26
   
       mode:    211      212      213      214      215      216
  temp. (K):  2359.36  2360.56  2374.34  2380.77  2387.81  2398.25
   
       mode:    217      218      219      220      221      222
  temp. (K):  4350.54  4355.78  4358.32  4359.83  4364.58  4365.85
   
       mode:    223      224      225      226      227      228
  temp. (K):  4366.05  4367.90  4375.76  4391.47  4394.55  4410.30
   
       mode:    229      230      231      232      233      234
  temp. (K):  4419.01  4428.88  4437.97  4439.72  4439.84  4443.32
   
       mode:    235      236      237      238      239      240
  temp. (K):  4446.28  4450.54  4466.53  4471.98  4479.40  4480.52
   
       mode:    241      242      243      244      245      246
  temp. (K):  4481.80  4544.00  4546.40  4555.10  4559.35  4560.26
   
       mode:    247      248      249      250      251      252
  temp. (K):  4573.48  4585.14  4594.85  4596.65  4601.25  4604.83
   
       mode:    253      254      255      256      257      258
  temp. (K):  4606.96  4608.00  4616.05  4619.20  4626.97  4637.31
   
       mode:    259      260      261
  temp. (K):  4659.73  4675.21  5065.91
   
   
  Thermodynamic properties calculated assuming an ideal gas

  In the table below, the units for temperature
  are kelvins, the units for U, H, and G are
  kcal/mol and the units for Cv and S are cal/(mol K)

  The zero point energy (ZPE):    476.201 kcal/mol
  is not included in U, H, or G in the table below
  
 
  =============================================================================
  Thermodynamic properties for P = 1.00E+00 atm, calculated at   1 temperatures


  T =   298.15 K, P = 1.00E+00 atm
   
                  U         Cv          S          H          G        ln(Q)
              =========  =========  =========  =========  =========  =========
  trans.          0.889      2.981     45.532      1.481    -12.094   20.41263
  rot.            0.889      2.981     38.025      0.889    -10.448   17.63489
  vib.           23.698    158.657    143.806     23.698    -19.178   32.36792
  elec.           0.000      0.000      0.000      0.000      0.000    0.00000
  ----------------------------------------------------------------------------
  total          25.476    164.619    227.363     26.068    -41.720   70.41543
   
   Total internal energy, Utot(SCFE + ZPE + U):   -2246.982642 hartrees
   Total enthalpy, Htot (Utot + nRT), with n=1:   -2246.981698 hartrees
    Total Gibbs free energy, Gtot (Htot - T*S):   -2247.089726 hartrees
   
  end of program freq
   
 Time(freq)  user:       0.821  user+sys:       0.821  wallclock:       0.564
  
  start of program post
  
  Writing input files for PBF
  end of program post
   
 Time(post)  user:       0.277  user+sys:       0.277  wallclock:       0.366

 Total cpu seconds     user:  131985.209   user+sys:  131985.209
  
 Total elapsed time:    16343 seconds

Job red_elim_Ar_trans_L1_PL145_3 completed on bp1-compute217 at Tue Dec  2 02:26:49 2025
