Job red_elim_N_trans_L1_PL145 started on bp1-compute092.data.bp.acrc.priv at Tue Mar 19 21:51:01 2024
jobid: bp1-compute092-0-65fa08c3

  +--------------------------------------------------------------------+
  |  Jaguar version 11.4, release 135                                  |
  |                                                                    |
  |  Copyright Schrodinger, Inc.                                       |
  |  All Rights Reserved.                                              |
  |                                                                    |
  |  The following have contributed to Jaguar (listed alphabetically): |
  |  Mike Beachy, Art Bochevarov, Dale Braden, Yixiang Cao,            |
  |  Alan Chien, Chris Cortis, Rich Friesner, Bill Goddard,            |
  |  Hod Greeley, Tom Hughes, Leif Jacobson, Jean-Marc Langlois,       |
  |  Daniel Levine, Daniel Mainz, Rob Murphy, Dean Philipp,            |
  |  Tom Pollard, Murco Ringnalda, Mark Watson, Haoyu Yu.              |
  |                                                                    |
  |  Use of this program should be acknowledged in publications as:    |
  |                                                                    |
  |  Jaguar, version 11.4, Schrodinger, Inc., New York, NY, 2021.      |
  |                                                                    |
  |  A. D. Bochevarov, E. Harder, T. F. Hughes, J. R. Greenwood,       |
  |  D. A. Braden, D. M. Philipp, D. Rinaldo, M. D. Halls,             |
  |  J. Zhang, R. A. Friesner, "Jaguar: A High-Performance Quantum     |
  |  Chemistry Software Program with Strengths in Life and Materials   |
  |  Sciences", Int. J. Quantum Chem., 2013, 113(18), 2110-2142.       |
  +--------------------------------------------------------------------+
  
  start of program pre
  
  Job name: red_elim_N_trans_L1_PL145
  Executables used: /sw/apps/schrodinger2021-4/jaguar-v11.4/bin/Linux-x86_64
  Temporary files : /tmp/ar21627/red_elim_N_trans_L1_PL145
  Maestro file (input):  red_elim_N_trans_L1_PL145.mae
  Maestro file (output): red_elim_N_trans_L1_PL145.01.mae
  
 Contents of input file: &gen section only
 ----------------Contents start----------------
&gen
dftname=b3pw91-d3
basis=6-31G*
numd=5
ip11=2
iaccg=3
isolv=2
igeopt=1
solvent=benzene
ifreq=1
&
 -----------------Contents end-----------------
 
  basis set:             non_standard                    
  net molecular charge:    0
  multiplicity:            1
  
  This run will use ECP on 1 atom
  number of basis functions....          727
  
  input atom labels were not unique
  original atom labels:
 P1       Pd2      N2       C16      C17      C18      C19      C20     
 C21      F10      H23      H24      H25      H26      H18      C22     
 C23      C24      C25      C26      C27      H22      H27      H28     
 H29      H30      C3       C4       C5       C6       C7       C8      
 C9       C10      C11      C12      C13      C14      C15      C16     
 C17      C18      C19      C20      C21      C22      C23      C24     
 C25      C26      O27      C28      O29      C30      H31      H32     
 H33      H34      H35      H36      H37      H38      H39      H40     
 H41      H42      H43      H44      H45      H46      H47      H48     
 H49      H50      H51      H52      H53      H54      H55      H56     
 H57      H58      H59      H60      H61      H62      H63      H64     
 H65     
  new atom labels:
 P1       Pd2      N3       C4       C5       C6       C7       C8      
 C9       F10      H11      H12      H13      H14      H15      C16     
 C17      C18      C19      C20      C21      H22      H23      H24     
 H25      H26      C27      C28      C29      C30      C31      C32     
 C33      C34      C35      C36      C37      C38      C39      C40     
 C41      C42      C43      C44      C45      C46      C47      C48     
 C49      C50      O51      C52      O53      C54      H55      H56     
 H57      H58      H59      H60      H61      H62      H63      H64     
 H65      H66      H67      H68      H69      H70      H71      H72     
 H73      H74      H75      H76      H77      H78      H79      H80     
 H81      H82      H83      H84      H85      H86      H87      H88     
 H89     
 
  
 Input geometry:
                                   angstroms
  atom               x                 y                 z
  P1            0.0000000000      0.0000000000      0.0000000000 
  Pd2           0.0000000000      0.0000000000      2.3923182082 
  N3            2.0248930909      0.0000000000      2.1745882742 
  C4            0.2206536699     -0.0004682074      7.2562187795 
  C5            0.2132510608      1.1987257052      6.5347188772 
  C6            0.1940987259      1.1999612069      5.1371944723 
  C7            0.1665902834      0.0035440496      4.4021695345 
  C8            0.1874309102     -1.1950990358      5.1348464771 
  C9            0.2094305550     -1.1978928222      6.5306472385 
  F10           0.2210357163     -0.0074586338      8.5892003953 
  H11           0.2335369015      2.1463964378      7.0741070950 
  H12           0.2136829301      2.1567974204      4.6153218170 
  H13           0.2023730899     -2.1504656761      4.6104898253 
  H14           0.2240023780     -2.1467925995      7.0679212173 
  H15           2.4443237244      1.0018584917      2.0003542185 
  C16           4.0295452266     -1.9114413017      5.4205510973 
  C17           3.6384422407     -2.6598336373      4.2981422519 
  C18           2.9786251993     -2.0306962813      3.2297565963 
  C19           2.7099111439     -0.6531665897      3.2837797861 
  C20           3.1009671510      0.0952705404      4.4061125628 
  C21           3.7608311712     -0.5339116101      5.4745742872 
  H22           4.5479091451     -2.4057027176      6.2598937335 
  H23           3.8496154531     -3.7420855516      4.2558188718 
  H24           2.6713875323     -2.6186419814      2.3480145026 
  H25           2.8898358885      1.1773902725      4.4484636576 
  H26           4.0680688560      0.0540340938      6.3563163721 
  C27           1.7608762509      0.0000000000     -0.7421894815 
  C28          -0.8162921494     -1.5574842211     -0.7603611454 
  C29          -0.8021165931      1.4244115892     -0.9186980760 
  C30           1.9146491168      0.4060714136     -2.2245412319 
  C31           3.4081965324      0.5198683567     -2.6093393883 
  C32           4.1820583051     -0.7780787713     -2.3129690622 
  C33           3.9979547511     -1.2054981706     -0.8448675086 
  C34           2.5055327183     -1.3294493602     -0.4715173370 
  C35          -0.5455197860     -2.7866526259      0.1492917778 
  C36          -1.0570625867     -4.0881462915     -0.5066923764 
  C37          -2.5580681787     -4.0023100653     -0.8432255988 
  C38          -2.8559368860     -2.7577946663     -1.7013731388 
  C39          -2.3403995338     -1.4656803072     -1.0307062917 
  C40          -1.1242155392      1.2375240466     -2.2863189806 
  C41          -1.7234752811      2.2408517206     -3.0584062873 
  C42          -2.0198144825      3.4790428304     -2.4699975819 
  C43          -1.6929591617      3.6880696740     -1.1262848168 
  C44          -1.0799874677      2.6893800314     -0.3327116885 
  C45          -0.7623996973      3.0697307434      1.0795928611 
  C46          -1.8060053725      3.1900988101      2.0297503096 
  C47          -1.5366533592      3.5935126391      3.3513772174 
  C48          -0.2199254133      3.9021562911      3.7132034198 
  C49           0.8270891990      3.8420096765      2.7852567189 
  C50           0.5507539822      3.4236713384      1.4698104190 
  O51           1.4992583859      3.3522325147      0.4724543367 
  C52           2.8533384922      3.6072424938      0.8518659008 
  O53          -3.0643071908      2.9146500914      1.5548327362 
  C54          -4.0888055149      2.6783631170      2.5217698272 
  H55           2.2421854995      0.7738520556     -0.1134750923 
  H56           1.4329316660     -0.3500122301     -2.8812996894 
  H57           1.4134840190      1.3688954111     -2.4213778571 
  H58           3.8611219606      1.3524423143     -2.0321848305 
  H59           3.4995188980      0.7926625559     -3.6800344396 
  H60           3.8049954211     -1.5842430828     -2.9778874372 
  H61           5.2567009737     -0.6499016741     -2.5530046021 
  H62           4.4652851582     -0.4577396365     -0.1733620357 
  H63           4.5137412005     -2.1674241652     -0.6550191122 
  H64           2.4147364956     -1.5947898063      0.5957456873 
  H65           2.0516827871     -2.1429027840     -1.0752732074 
  H66          -0.2939447898     -1.7206024809     -1.7305084219 
  H67           0.5275806741     -2.8830777721      0.3851115867 
  H68          -1.0621044762     -2.6151042963      1.1126715030 
  H69          -0.8617024330     -4.9444561324      0.1681405100 
  H70          -0.4837773400     -4.2841225735     -1.4388434078 
  H71          -2.8956718967     -4.9231158530     -1.3605702372 
  H72          -3.1348928874     -3.9335170211      0.1008106230 
  H73          -3.9447637314     -2.6695714756     -1.8882345494 
  H74          -2.3755687108     -2.8775276004     -2.6973450990 
  H75          -2.8490477114     -1.3055056459     -0.0626442926 
  H76          -2.5893557442     -0.5973558068     -1.6636846196 
  H77          -0.8901137861      0.2818308150     -2.7668899433 
  H78          -1.9558460338      2.0507490735     -4.1138163845 
  H79          -2.4952346582      4.2768691893     -3.0539088487 
  H80          -1.9091748432      4.6533610507     -0.6543707284 
  H81          -2.3328536194      3.6277470654      4.0987289039 
  H82          -0.0003689518      4.1833500545      4.7492839160 
  H83           1.8495431705      4.0572237386      3.1025078095 
  H84           3.4462810625      3.4763850746     -0.0681000210 
  H85           3.1853497061      2.8828948570      1.6187207393 
  H86           2.9812619939      4.6462511135      1.2201099843 
  H87          -3.7922665394      1.8658495689      3.2092963185 
  H88          -4.9714892885      2.3641859827      1.9421291735 
  H89          -4.3384177598      3.5994186982      3.0895580454 
   
  principal moments of inertia:
        amu*angstrom^2:     5831.42453     8152.85756     9407.42766
                g*cm^2: 9.68330704E-37 1.35381368E-36 1.56213992E-36
   
  rotational constants:
               cm^(-1):      0.00289083      0.00206770      0.00179195
                   GHz:      0.08666476      0.06198796      0.05372127
   
  Molecular weight:     703.22 amu
   
  Stoichiometry: PdC38PNH45O2F
  Molecular Point Group: C1      
  Point Group used: C1
  
 
Number of optimization coordinates:   309
Number of independent coordinates:    309
Number of non-redundant coordinates:  261
Number of frozen coordinates:           0
Number of harmonic constraints:         0
 
Number of geometric degrees of freedom:   261
Maximum geometric degrees of freedom:     261
 " " " " " excluding dummy atoms:         261
 
 
  bond lengths (angstroms):
 
 P1      -Pd2     :   2.392318      P1      -C27     :   1.910898
 P1      -C28     :   1.915787      P1      -C29     :   1.875192
 Pd2     -N3      :   2.036565      Pd2     -C7      :   2.016747
 N3      -H15     :   1.100000      N3      -C19     :   1.458143
 C4      -C5      :   1.399530      C4      -C9      :   1.400145
 C4      -F10     :   1.333000      C5      -C6      :   1.397656
 C5      -H11     :   1.090610      C6      -C7      :   1.404433
 C6      -H12     :   1.090078      C7      -C8      :   1.404989
 C8      -C9      :   1.395977      C8      -H13     :   1.089908
 C9      -H14     :   1.090544      C16     -C17     :   1.404583
 C16     -C21     :   1.404533      C16     -H22     :   1.103400
 C17     -C18     :   1.404500      C17     -H23     :   1.103474
 C18     -C19     :   1.404533      C18     -H24     :   1.103424
 C19     -C20     :   1.404533      C20     -C21     :   1.404600
 C20     -H25     :   1.103337      C21     -H26     :   1.103424
 C27     -C30     :   1.544638      C27     -C34     :   1.547647
 C27     -H55     :   1.107153      C28     -C35     :   1.552946
 C28     -C39     :   1.550619      C28     -H66     :   1.113840
 C29     -C40     :   1.417414      C29     -C44     :   1.421526
 C30     -C31     :   1.546513      C30     -H56     :   1.111326
 C30     -H57     :   1.103151      C31     -C32     :   1.539923
 C31     -H58     :   1.109697      C31     -H59     :   1.108668
 C32     -C33     :   1.540099      C32     -H60     :   1.110943
 C32     -H61     :   1.108559      C33     -C34     :   1.543398
 C33     -H62     :   1.108359      C33     -H63     :   1.107872
 C34     -H64     :   1.103494      C34     -H65     :   1.110048
 C35     -C36     :   1.544628      C35     -H67     :   1.102929
 C35     -H68     :   1.106521      C36     -C37     :   1.540662
 C36     -H69     :   1.107624      C36     -H70     :   1.111741
 C37     -C38     :   1.540767      C37     -H71     :   1.108830
 C37     -H72     :   1.108451      C38     -C39     :   1.544387
 C38     -H73     :   1.108262      C38     -H74     :   1.112227
 C39     -H75     :   1.105225      C39     -H76     :   1.103009
 C40     -C41     :   1.400678      C40     -H77     :   1.095035
 C41     -C42     :   1.402554      C41     -H78     :   1.097281
 C42     -C43     :   1.398603      C42     -H79     :   1.097043
 C43     -C44     :   1.415229      C43     -H80     :   1.096011
 C44     -C45     :   1.496707      C45     -C46     :   1.416475
 C45     -C50     :   1.414891      C46     -C47     :   1.407832
 C46     -O53     :   1.372859      C47     -C48     :   1.399983
 C47     -H81     :   1.092539      C48     -C49     :   1.400336
 C48     -H82     :   1.095782      C49     -C50     :   1.407752
 C49     -H83     :   1.091960      C50     -O51     :   1.378217
 O51     -C52     :   1.429166      C52     -H84     :   1.102289
 C52     -H85     :   1.105883      C52     -H86     :   1.109733
 O53     -C54     :   1.428424      C54     -H87     :   1.104901
 C54     -H88     :   1.101736      C54     -H89     :   1.110420
 
  bond angles:
 
 C27     -P1      -Pd2     : 112.854874  C28     -P1      -Pd2     : 113.384048
 C28     -P1      -C27     : 103.797047  C29     -P1      -Pd2     : 119.335462
 C29     -P1      -C27     : 101.764216  C29     -P1      -C28     : 103.935872
 N3      -Pd2     -P1      :  83.862758  C7      -Pd2     -P1      : 175.260696
 C7      -Pd2     -N3      :  91.399003  H15     -N3      -Pd2     : 113.331428
 C19     -N3      -Pd2     : 112.691549  C19     -N3      -H15     : 110.446772
 C9      -C4      -C5      : 117.748983  F10     -C4      -C5      : 121.333471
 F10     -C4      -C9      : 120.912073  C6      -C5      -C4      : 121.085167
 H11     -C5      -C4      : 119.306782  H11     -C5      -C6      : 119.604803
 C7      -C6      -C5      : 121.522045  H12     -C6      -C5      : 118.635292
 H12     -C6      -C7      : 119.838237  C6      -C7      -Pd2     : 121.647118
 C8      -C7      -Pd2     : 121.293709  C8      -C7      -C6      : 116.972232
 C9      -C8      -C7      : 121.557740  H13     -C8      -C7      : 119.810802
 H13     -C8      -C9      : 118.624739  C8      -C9      -C4      : 121.101860
 H14     -C9      -C4      : 119.256721  H14     -C9      -C8      : 119.640461
 C21     -C16     -C17     : 120.002746  H22     -C16     -C17     : 120.000393
 H22     -C16     -C21     : 119.996860  C18     -C17     -C16     : 120.000393
 H23     -C17     -C16     : 119.995826  H23     -C17     -C18     : 120.003781
 C19     -C18     -C17     : 119.996860  H24     -C18     -C17     : 119.999284
 H24     -C18     -C19     : 120.003855  C18     -C19     -N3      : 119.996860
 C20     -C19     -N3      : 119.996860  C20     -C19     -C18     : 120.006279
 C21     -C20     -C19     : 119.996860  H25     -C20     -C19     : 120.001259
 H25     -C20     -C21     : 120.001881  C20     -C21     -C16     : 119.996860
 H26     -C21     -C16     : 120.003855  H26     -C21     -C20     : 119.999284
 C30     -C27     -P1      : 117.676148  C34     -C27     -P1      : 112.052203
 C34     -C27     -C30     : 110.228616  H55     -C27     -P1      : 100.372038
 H55     -C27     -C30     : 108.538360  H55     -C27     -C34     : 106.973355
 C35     -C28     -P1      : 109.675858  C39     -C28     -P1      : 116.095413
 C39     -C28     -C35     : 108.685035  H66     -C28     -P1      : 105.362777
 H66     -C28     -C35     : 108.210602  H66     -C28     -C39     : 108.527420
 C40     -C29     -P1      : 118.018741  C44     -C29     -P1      : 123.890444
 C44     -C29     -C40     : 118.076616  C31     -C30     -C27     : 110.748753
 H56     -C30     -C27     : 110.189696  H56     -C30     -C31     : 108.761852
 H57     -C30     -C27     : 110.821576  H57     -C30     -C31     : 109.276348
 H57     -C30     -H56     : 106.943579  C32     -C31     -C30     : 112.049932
 H58     -C31     -C30     : 108.661171  H58     -C31     -C32     : 109.097085
 H59     -C31     -C30     : 109.752032  H59     -C31     -C32     : 110.601340
 H59     -C31     -H58     : 106.502571  C33     -C32     -C31     : 110.934835
 H60     -C32     -C31     : 109.018804  H60     -C32     -C33     : 109.182296
 H61     -C32     -C31     : 110.366786  H61     -C32     -C33     : 110.755376
 H61     -C32     -H60     : 106.459137  C34     -C33     -C32     : 111.621485
 H62     -C33     -C32     : 109.870468  H62     -C33     -C34     : 108.381341
 H63     -C33     -C32     : 110.405725  H63     -C33     -C34     : 109.816229
 H63     -C33     -H62     : 106.598006  C33     -C34     -C27     : 110.730175
 H64     -C34     -C27     : 109.640323  H64     -C34     -C33     : 109.440822
 H65     -C34     -C27     : 109.733502  H65     -C34     -C33     : 108.822300
 H65     -C34     -H64     : 108.432918  C36     -C35     -C28     : 111.125405
 H67     -C35     -C28     : 111.351347  H67     -C35     -C36     : 109.837706
 H68     -C35     -C28     : 107.810704  H68     -C35     -C36     : 110.228737
 H68     -C35     -H67     : 106.357483  C37     -C36     -C35     : 111.621470
 H69     -C36     -C35     : 109.527273  H69     -C36     -C37     : 110.364658
 H70     -C36     -C35     : 109.501987  H70     -C36     -C37     : 109.211968
 H70     -C36     -H69     : 106.475670  C38     -C37     -C36     : 110.794037
 H71     -C37     -C36     : 110.626783  H71     -C37     -C38     : 110.611963
 H72     -C37     -C36     : 108.930251  H72     -C37     -C38     : 108.881681
 H72     -C37     -H71     : 106.885455  C39     -C38     -C37     : 111.677594
 H73     -C38     -C37     : 110.373692  H73     -C38     -C39     : 109.546854
 H74     -C38     -C37     : 109.165367  H74     -C38     -C39     : 109.558147
 H74     -C38     -H73     : 106.374181  C38     -C39     -C28     : 110.749596
 H75     -C39     -C28     : 107.952207  H75     -C39     -C38     : 110.364467
 H76     -C39     -C28     : 111.623564  H76     -C39     -C38     : 109.517124
 H76     -C39     -H75     : 106.539811  C41     -C40     -C29     : 122.319238
 H77     -C40     -C29     : 119.336537  H77     -C40     -C41     : 118.341005
 C42     -C41     -C40     : 119.440155  H78     -C41     -C40     : 119.781371
 H78     -C41     -C42     : 120.778471  C43     -C42     -C41     : 119.053335
 H79     -C42     -C41     : 120.683342  H79     -C42     -C43     : 120.262150
 C44     -C43     -C42     : 122.309158  H80     -C43     -C42     : 119.947166
 H80     -C43     -C44     : 117.743514  C43     -C44     -C29     : 118.781466
 C45     -C44     -C29     : 125.004211  C45     -C44     -C43     : 116.211950
 C46     -C45     -C44     : 119.882526  C50     -C45     -C44     : 121.382210
 C50     -C45     -C46     : 118.524149  C47     -C46     -C45     : 120.870938
 O53     -C46     -C45     : 115.225735  O53     -C46     -C47     : 123.890184
 C48     -C47     -C46     : 119.061268  H81     -C47     -C46     : 120.778045
 H81     -C47     -C48     : 120.113983  C49     -C48     -C47     : 121.499432
 H82     -C48     -C47     : 119.300694  H82     -C48     -C49     : 119.193960
 C50     -C49     -C48     : 119.025933  H83     -C49     -C48     : 119.940819
 H83     -C49     -C50     : 120.920782  C49     -C50     -C45     : 120.945871
 O51     -C50     -C45     : 115.225326  O51     -C50     -C49     : 123.815288
 C52     -O51     -C50     : 116.787962  H84     -C52     -O51     : 105.480406
 H85     -C52     -O51     : 110.589352  H85     -C52     -H84     : 109.845361
 H86     -C52     -O51     : 111.368976  H86     -C52     -H84     : 109.031337
 H86     -C52     -H85     : 110.398103  C54     -O53     -C46     : 117.154581
 H87     -C54     -O53     : 110.509948  H88     -C54     -O53     : 105.405671
 H88     -C54     -H87     : 109.432569  H89     -C54     -O53     : 111.724695
 H89     -C54     -H87     : 110.617181  H89     -C54     -H88     : 108.993185
 
  torsional angles:
 
 P1      -Pd2     -N3      -H15     :  82.697021
 P1      -Pd2     -N3      -C19     :-150.953049
 P1      -Pd2     -C7      -C6      :  90.381529
 P1      -Pd2     -C7      -C8      : -93.112019
 P1      -C27     -C30     -C31     : 173.025537
 P1      -C27     -C30     -H56     : -66.592077
 P1      -C27     -C30     -H57     :  51.575275
 P1      -C27     -C34     -C33     :-169.424702
 P1      -C27     -C34     -H64     : -48.565920
 P1      -C27     -C34     -H65     :  70.426147
 P1      -C28     -C35     -C36     :-173.877998
 P1      -C28     -C35     -H67     : -51.081401
 P1      -C28     -C35     -H68     :  65.226560
 P1      -C28     -C39     -C38     : 177.367530
 P1      -C28     -C39     -H75     : -61.707073
 P1      -C28     -C39     -H76     :  55.058353
 P1      -C29     -C40     -C41     :-179.929022
 P1      -C29     -C40     -H77     :  -0.592880
 P1      -C29     -C44     -C43     :-179.821997
 P1      -C29     -C44     -C45     :   0.761002
 Pd2     -P1      -C27     -C30     :-162.731193
 Pd2     -P1      -C27     -C34     :  67.943966
 Pd2     -P1      -C27     -H55     : -45.281142
 Pd2     -P1      -C28     -C35     : -33.657334
 Pd2     -P1      -C28     -C39     :  89.983783
 Pd2     -P1      -C28     -H66     :-149.916398
 Pd2     -P1      -C29     -C40     :-162.687575
 Pd2     -P1      -C29     -C44     :  18.712067
 Pd2     -N3      -C19     -C18     :  90.105271
 Pd2     -N3      -C19     -C20     : -89.894729
 Pd2     -C7      -C6      -C5      : 175.358092
 Pd2     -C7      -C6      -H12     :  -5.417776
 Pd2     -C7      -C8      -C9      :-175.508721
 Pd2     -C7      -C8      -H13     :   5.447408
 N3      -Pd2     -P1      -C27     :   0.000000
 N3      -Pd2     -P1      -C28     : 117.659457
 N3      -Pd2     -P1      -C29     :-119.384791
 N3      -Pd2     -C7      -C6      :  91.593634
 N3      -Pd2     -C7      -C8      : -91.899915
 N3      -C19     -C18     -C17     : 180.000000
 N3      -C19     -C18     -H24     :   0.000001
 N3      -C19     -C20     -C21     : 180.000000
 N3      -C19     -C20     -H25     :   0.000001
 C4      -C5      -C6      -C7      :   0.715588
 C4      -C5      -C6      -H12     :-178.517609
 C4      -C9      -C8      -C7      :  -0.434505
 C4      -C9      -C8      -H13     : 178.620373
 C5      -C4      -C9      -C8      :  -0.193424
 C5      -C4      -C9      -H14     : 179.449184
 C5      -C6      -C7      -C8      :  -1.292430
 C6      -C5      -C4      -C9      :   0.055695
 C6      -C5      -C4      -F10     :-179.100613
 C6      -C7      -C8      -C9      :   1.154437
 C6      -C7      -C8      -H13     :-177.889434
 C7      -Pd2     -P1      -C27     :   1.218729
 C7      -Pd2     -P1      -C28     : 118.878186
 C7      -Pd2     -P1      -C29     :-118.166061
 C7      -Pd2     -N3      -H15     : -97.202263
 C7      -Pd2     -N3      -C19     :  29.147667
 C7      -C6      -C5      -H11     :-179.944664
 C7      -C8      -C9      -H14     : 179.924240
 C8      -C7      -C6      -H12     : 177.931702
 C8      -C9      -C4      -F10     : 178.966622
 C9      -C4      -C5      -H11     :-179.285990
 F10     -C4      -C5      -H11     :   1.557702
 F10     -C4      -C9      -H14     :  -1.390769
 H11     -C5      -C6      -H12     :   0.822139
 H13     -C8      -C9      -H14     :  -1.020882
 H15     -N3      -C19     -C18     :-142.012991
 H15     -N3      -C19     -C20     :  37.987009
 C16     -C17     -C18     -C19     :   0.000000
 C16     -C17     -C18     -H24     : 179.999999
 C16     -C21     -C20     -C19     :   0.000000
 C16     -C21     -C20     -H25     : 180.000000
 C17     -C16     -C21     -C20     :   0.000000
 C17     -C16     -C21     -H26     : 180.000000
 C17     -C18     -C19     -C20     :   0.000000
 C18     -C17     -C16     -C21     :   0.000000
 C18     -C17     -C16     -H22     : 180.000000
 C18     -C19     -C20     -C21     :   0.000000
 C18     -C19     -C20     -H25     :-179.999999
 C19     -C18     -C17     -H23     : 180.000000
 C19     -C20     -C21     -H26     :-179.999999
 C20     -C19     -C18     -H24     :-179.999999
 C20     -C21     -C16     -H22     : 180.000000
 C21     -C16     -C17     -H23     : 179.999999
 H22     -C16     -C17     -H23     :   0.000000
 H22     -C16     -C21     -H26     :   0.000000
 H23     -C17     -C18     -H24     :  -0.000001
 H25     -C20     -C21     -H26     :   0.000000
 C27     -P1      -C28     -C35     :  89.156571
 C27     -P1      -C28     -C39     :-147.202312
 C27     -P1      -C28     -H66     : -27.102493
 C27     -P1      -C29     -C40     :  72.413626
 C27     -P1      -C29     -C44     :-106.186733
 C27     -C30     -C31     -C32     :  55.634693
 C27     -C30     -C31     -H58     : -64.987080
 C27     -C30     -C31     -H59     : 178.919672
 C27     -C34     -C33     -C32     : -56.646533
 C27     -C34     -C33     -H62     :  64.483797
 C27     -C34     -C33     -H63     :-179.431519
 C28     -P1      -C27     -C30     :  74.106847
 C28     -P1      -C27     -C34     : -55.217994
 C28     -P1      -C27     -H55     :-168.443102
 C28     -P1      -C29     -C40     : -35.204125
 C28     -P1      -C29     -C44     : 146.195516
 C28     -C35     -C36     -C37     : -56.808193
 C28     -C35     -C36     -H69     :-179.338689
 C28     -C35     -C36     -H70     :  64.248597
 C28     -C39     -C38     -C37     :  57.586148
 C28     -C39     -C38     -H73     :-179.820371
 C28     -C39     -C38     -H74     : -63.486672
 C29     -P1      -C27     -C30     : -33.618468
 C29     -P1      -C27     -C34     :-162.943309
 C29     -P1      -C27     -H55     :  83.831583
 C29     -P1      -C28     -C35     :-164.747617
 C29     -P1      -C28     -C39     : -41.106500
 C29     -P1      -C28     -H66     :  78.993319
 C29     -C40     -C41     -C42     :   0.039287
 C29     -C40     -C41     -H78     :-179.941590
 C29     -C44     -C43     -C42     :  -0.781942
 C29     -C44     -C43     -H80     : 179.365007
 C29     -C44     -C45     -C46     :-107.228545
 C29     -C44     -C45     -C50     :  78.129400
 C30     -C27     -C34     -C33     :  57.469349
 C30     -C27     -C34     -H64     : 178.328131
 C30     -C27     -C34     -H65     : -62.679802
 C30     -C31     -C32     -C33     : -54.134037
 C30     -C31     -C32     -H60     :  66.129439
 C30     -C31     -C32     -H61     :-177.278229
 C31     -C30     -C27     -C34     : -56.801689
 C31     -C30     -C27     -H55     :  60.052067
 C31     -C32     -C33     -C34     :  54.569811
 C31     -C32     -C33     -H62     : -65.690592
 C31     -C32     -C33     -H63     : 177.017486
 C32     -C31     -C30     -H56     : -65.594582
 C32     -C31     -C30     -H57     : 177.990841
 C32     -C33     -C34     -H64     :-177.623539
 C32     -C33     -C34     -H65     :  64.045397
 C33     -C32     -C31     -H58     :  66.234617
 C33     -C32     -C31     -H59     :-176.939257
 C33     -C34     -C27     -H55     : -60.353786
 C34     -C27     -C30     -H56     :  63.580696
 C34     -C27     -C30     -H57     :-178.251951
 C34     -C33     -C32     -H60     : -65.596447
 C34     -C33     -C32     -H61     : 177.489827
 C35     -C28     -C39     -C38     : -58.478386
 C35     -C28     -C39     -H75     :  62.447011
 C35     -C28     -C39     -H76     : 179.212437
 C35     -C36     -C37     -C38     :  53.999904
 C35     -C36     -C37     -H71     : 177.044954
 C35     -C36     -C37     -H72     : -65.748743
 C36     -C35     -C28     -C39     :  58.238166
 C36     -C35     -C28     -H66     : -59.432276
 C36     -C37     -C38     -C39     : -54.490564
 C36     -C37     -C38     -H73     :-176.610055
 C36     -C37     -C38     -H74     :  66.810280
 C37     -C36     -C35     -H67     : 179.527012
 C37     -C36     -C35     -H68     :  62.653743
 C37     -C38     -C39     -H75     : -61.899481
 C37     -C38     -C39     -H76     :-178.883557
 C38     -C37     -C36     -H69     : 176.049504
 C38     -C37     -C36     -H70     : -67.225513
 C38     -C39     -C28     -H66     :  58.990564
 C39     -C28     -C35     -H67     :-178.965237
 C39     -C28     -C35     -H68     : -62.657277
 C39     -C38     -C37     -H71     :-177.544184
 C39     -C38     -C37     -H72     :  65.287172
 C40     -C29     -C44     -C43     :   1.578398
 C40     -C29     -C44     -C45     :-177.838604
 C40     -C41     -C42     -C43     :   0.806805
 C40     -C41     -C42     -H79     :-179.586217
 C41     -C40     -C29     -C44     :  -1.245820
 C41     -C42     -C43     -C44     :  -0.436161
 C41     -C42     -C43     -H80     : 179.413743
 C42     -C41     -C40     -H77     :-179.303176
 C42     -C43     -C44     -C45     : 178.685783
 C43     -C42     -C41     -H78     :-179.212513
 C43     -C44     -C45     -C46     :  73.340999
 C43     -C44     -C45     -C50     :-101.301056
 C44     -C29     -C40     -H77     : 178.090321
 C44     -C43     -C42     -H79     : 179.955164
 C44     -C45     -C46     -C47     :-177.687037
 C44     -C45     -C46     -O53     :   1.044076
 C44     -C45     -C50     -C49     : 176.908189
 C44     -C45     -C50     -O51     :  -1.804053
 C45     -C44     -C43     -H80     :  -1.167268
 C45     -C46     -C47     -C48     :   1.241559
 C45     -C46     -C47     -H81     :-176.275674
 C45     -C46     -O53     -C54     : 164.048999
 C45     -C50     -C49     -C48     :   0.137764
 C45     -C50     -C49     -H83     : 176.279676
 C45     -C50     -O51     -C52     :-175.544166
 C46     -C45     -C50     -C49     :   2.195393
 C46     -C45     -C50     -O51     :-176.516850
 C46     -C47     -C48     -C49     :   1.189470
 C46     -C47     -C48     -H82     :-177.918494
 C46     -O53     -C54     -H87     : -55.368098
 C46     -O53     -C54     -H88     :-173.501882
 C46     -O53     -C54     -H89     :  68.256581
 C47     -C46     -C45     -C50     :  -2.892692
 C47     -C46     -O53     -C54     : -17.263028
 C47     -C48     -C49     -C50     :  -1.872391
 C47     -C48     -C49     -H83     :-178.052929
 C48     -C47     -C46     -O53     :-177.375611
 C48     -C49     -C50     -O51     : 178.735594
 C49     -C48     -C47     -H81     : 178.723569
 C49     -C50     -O51     -C52     :   5.785165
 C50     -C45     -C46     -O53     : 175.838421
 C50     -C49     -C48     -H82     : 177.236503
 C50     -O51     -C52     -H84     : 178.556959
 C50     -O51     -C52     -H85     :  59.849315
 C50     -O51     -C52     -H86     : -63.298094
 O51     -C50     -C49     -H83     :  -5.122494
 O53     -C46     -C47     -H81     :   5.107156
 H55     -C27     -C30     -H56     :-179.565548
 H55     -C27     -C30     -H57     : -61.398195
 H55     -C27     -C34     -H64     :  60.504996
 H55     -C27     -C34     -H65     : 179.497063
 H56     -C30     -C31     -H58     : 173.783646
 H56     -C30     -C31     -H59     :  57.690397
 H57     -C30     -C31     -H58     :  57.369069
 H57     -C30     -C31     -H59     : -58.724180
 H58     -C31     -C32     -H60     :-173.501907
 H58     -C31     -C32     -H61     : -56.909575
 H59     -C31     -C32     -H60     : -56.675781
 H59     -C31     -C32     -H61     :  59.916551
 H60     -C32     -C33     -H62     : 174.143149
 H60     -C32     -C33     -H63     :  56.851228
 H61     -C32     -C33     -H62     :  57.229423
 H61     -C32     -C33     -H63     : -60.062498
 H62     -C33     -C34     -H64     : -56.493209
 H62     -C33     -C34     -H65     :-174.824272
 H63     -C33     -C34     -H64     :  59.591475
 H63     -C33     -C34     -H65     : -58.739588
 H66     -C28     -C35     -H67     :  63.364321
 H66     -C28     -C35     -H68     : 179.672282
 H66     -C28     -C39     -H75     : 179.915962
 H66     -C28     -C39     -H76     : -63.318613
 H67     -C35     -C36     -H69     :  56.996516
 H67     -C35     -C36     -H70     : -59.416198
 H68     -C35     -C36     -H69     : -59.876753
 H68     -C35     -C36     -H70     :-176.289467
 H69     -C36     -C37     -H71     : -60.905446
 H69     -C36     -C37     -H72     :  56.300857
 H70     -C36     -C37     -H71     :  55.819537
 H70     -C36     -C37     -H72     : 173.025840
 H71     -C37     -C38     -H73     :  60.336325
 H71     -C37     -C38     -H74     : -56.243340
 H72     -C37     -C38     -H73     : -56.832318
 H72     -C37     -C38     -H74     :-173.411983
 H73     -C38     -C39     -H75     :  60.694001
 H73     -C38     -C39     -H76     : -56.290076
 H74     -C38     -C39     -H75     : 177.027700
 H74     -C38     -C39     -H76     :  60.043624
 H77     -C40     -C41     -H78     :   0.715947
 H78     -C41     -C42     -H79     :   0.394465
 H79     -C42     -C43     -H80     :  -0.194931
 H81     -C47     -C48     -H82     :  -0.384394
 H82     -C48     -C49     -H83     :   1.055964
 
  nuclear repulsion energy.......    6387.425847514 hartrees
  
  Detected an organometallic with only one TM atom. 
  
  Oxidation state on metal       2 is     2
  Formal multiplet on metal      2 is     1
  Formal charge on ligand        3 is    -1
  Formal multiplet on ligand     3 is     1
  Formal charge on ligand        4 is    -1
  Formal multiplet on ligand     4 is     1
  
 
  Will use High-Quality Initial guess for organometallics
       including d-d repulsion (iguess=30)
 
 Non-default options chosen:
   SCF calculation type: DFT(b3pw91-d3)              
   DFT=Becke_3_Parameter/HF+Slater+Becke88+PW91+PW-GGAIIC (B3PW91-D3)
   Geometry will be optimized in redundant internal coordinates
   Solvation energy will be computed using PBF
     -solute cavity energy will not be included
     -surface area terms will not be included
   Vibrational frequencies and related properties will be computed
      from analytic second derivatives
   IR intensities will be computed
   Thermochemical properties will be computed
   Scaling standard convergence criteria by a factor of   5.00
   Solvent: benzene                                                         
   Internal dielectric constant:    1.000
   Continuum dielectric constant:   2.283
   Solvent probe molecule radius:   2.600
  
 Non-default print settings:
     11=  2
  
 Temporary integer options set:
     21= -1  73=  2
  
  atom       vdw   vdw2    cov     mass  grid  daf  charge   basis
  P1        2.147  2.074  1.060   30.974    Y    Y      Y    6-31g*
  Pd2       1.450  1.450  1.280  105.903    Y    Y      Y    lacv3p*
  N3        1.831  1.600  0.750   14.003    Y    Y      Y    6-31g*
  C4        1.949  1.900  0.770   12.000    Y    Y      Y    6-31g*
  C5        1.949  1.900  0.770   12.000    Y    Y      Y    6-31g*
  C6        1.949  1.900  0.770   12.000    Y    Y      Y    6-31g*
  C7        1.949  1.900  0.770   12.000    Y    Y      Y    6-31g*
  C8        1.949  1.900  0.770   12.000    Y    Y      Y    6-31g*
  C9        1.949  1.900  0.770   12.000    Y    Y      Y    6-31g*
  F10       1.736  1.682  0.720   18.998    Y    Y      Y    6-31g*
  H11       1.597  1.150  0.320    1.008    Y    Y      Y    6-31g*
  H12       1.597  1.150  0.320    1.008    Y    Y      Y    6-31g*
  H13       1.597  1.150  0.320    1.008    Y    Y      Y    6-31g*
  H14       1.597  1.150  0.320    1.008    Y    Y      Y    6-31g*
  H15       1.597  1.150  0.320    1.008    Y    Y      Y    6-31g*
  C16       1.949  1.900  0.770   12.000    Y    Y      Y    6-31g*
  C17       1.949  1.900  0.770   12.000    Y    Y      Y    6-31g*
  C18       1.949  1.900  0.770   12.000    Y    Y      Y    6-31g*
  C19       1.949  1.900  0.770   12.000    Y    Y      Y    6-31g*
  C20       1.949  1.900  0.770   12.000    Y    Y      Y    6-31g*
  C21       1.949  1.900  0.770   12.000    Y    Y      Y    6-31g*
  H22       1.597  1.150  0.320    1.008    Y    Y      Y    6-31g*
  H23       1.597  1.150  0.320    1.008    Y    Y      Y    6-31g*
  H24       1.597  1.150  0.320    1.008    Y    Y      Y    6-31g*
  H25       1.597  1.150  0.320    1.008    Y    Y      Y    6-31g*
  H26       1.597  1.150  0.320    1.008    Y    Y      Y    6-31g*
  C27       1.949  1.900  0.770   12.000    Y    Y      Y    6-31g*
  C28       1.949  1.900  0.770   12.000    Y    Y      Y    6-31g*
  C29       1.949  1.900  0.770   12.000    Y    Y      Y    6-31g*
  C30       1.949  1.900  0.770   12.000    Y    Y      Y    6-31g*
  C31       1.949  1.900  0.770   12.000    Y    Y      Y    6-31g*
  C32       1.949  1.900  0.770   12.000    Y    Y      Y    6-31g*
  C33       1.949  1.900  0.770   12.000    Y    Y      Y    6-31g*
  C34       1.949  1.900  0.770   12.000    Y    Y      Y    6-31g*
  C35       1.949  1.900  0.770   12.000    Y    Y      Y    6-31g*
  C36       1.949  1.900  0.770   12.000    Y    Y      Y    6-31g*
  C37       1.949  1.900  0.770   12.000    Y    Y      Y    6-31g*
  C38       1.949  1.900  0.770   12.000    Y    Y      Y    6-31g*
  C39       1.949  1.900  0.770   12.000    Y    Y      Y    6-31g*
  C40       1.949  1.900  0.770   12.000    Y    Y      Y    6-31g*
  C41       1.949  1.900  0.770   12.000    Y    Y      Y    6-31g*
  C42       1.949  1.900  0.770   12.000    Y    Y      Y    6-31g*
  C43       1.949  1.900  0.770   12.000    Y    Y      Y    6-31g*
  C44       1.949  1.900  0.770   12.000    Y    Y      Y    6-31g*
  C45       1.949  1.900  0.770   12.000    Y    Y      Y    6-31g*
  C46       1.949  1.900  0.770   12.000    Y    Y      Y    6-31g*
  C47       1.949  1.900  0.770   12.000    Y    Y      Y    6-31g*
  C48       1.949  1.900  0.770   12.000    Y    Y      Y    6-31g*
  C49       1.949  1.900  0.770   12.000    Y    Y      Y    6-31g*
  C50       1.949  1.900  0.770   12.000    Y    Y      Y    6-31g*
  O51       1.702  1.600  0.730   15.995    Y    Y      Y    6-31g*
  C52       1.949  1.900  0.770   12.000    Y    Y      Y    6-31g*
  O53       1.702  1.600  0.730   15.995    Y    Y      Y    6-31g*
  C54       1.949  1.900  0.770   12.000    Y    Y      Y    6-31g*
  H55       1.597  1.150  0.320    1.008    Y    Y      Y    6-31g*
  H56       1.597  1.150  0.320    1.008    Y    Y      Y    6-31g*
  H57       1.597  1.150  0.320    1.008    Y    Y      Y    6-31g*
  H58       1.597  1.150  0.320    1.008    Y    Y      Y    6-31g*
  H59       1.597  1.150  0.320    1.008    Y    Y      Y    6-31g*
  H60       1.597  1.150  0.320    1.008    Y    Y      Y    6-31g*
  H61       1.597  1.150  0.320    1.008    Y    Y      Y    6-31g*
  H62       1.597  1.150  0.320    1.008    Y    Y      Y    6-31g*
  H63       1.597  1.150  0.320    1.008    Y    Y      Y    6-31g*
  H64       1.597  1.150  0.320    1.008    Y    Y      Y    6-31g*
  H65       1.597  1.150  0.320    1.008    Y    Y      Y    6-31g*
  H66       1.597  1.150  0.320    1.008    Y    Y      Y    6-31g*
  H67       1.597  1.150  0.320    1.008    Y    Y      Y    6-31g*
  H68       1.597  1.150  0.320    1.008    Y    Y      Y    6-31g*
  H69       1.597  1.150  0.320    1.008    Y    Y      Y    6-31g*
  H70       1.597  1.150  0.320    1.008    Y    Y      Y    6-31g*
  H71       1.597  1.150  0.320    1.008    Y    Y      Y    6-31g*
  H72       1.597  1.150  0.320    1.008    Y    Y      Y    6-31g*
  H73       1.597  1.150  0.320    1.008    Y    Y      Y    6-31g*
  H74       1.597  1.150  0.320    1.008    Y    Y      Y    6-31g*
  H75       1.597  1.150  0.320    1.008    Y    Y      Y    6-31g*
  H76       1.597  1.150  0.320    1.008    Y    Y      Y    6-31g*
  H77       1.597  1.150  0.320    1.008    Y    Y      Y    6-31g*
  H78       1.597  1.150  0.320    1.008    Y    Y      Y    6-31g*
  H79       1.597  1.150  0.320    1.008    Y    Y      Y    6-31g*
  H80       1.597  1.150  0.320    1.008    Y    Y      Y    6-31g*
  H81       1.597  1.150  0.320    1.008    Y    Y      Y    6-31g*
  H82       1.597  1.150  0.320    1.008    Y    Y      Y    6-31g*
  H83       1.597  1.150  0.320    1.008    Y    Y      Y    6-31g*
  H84       1.597  1.150  0.320    1.008    Y    Y      Y    6-31g*
  H85       1.597  1.150  0.320    1.008    Y    Y      Y    6-31g*
  H86       1.597  1.150  0.320    1.008    Y    Y      Y    6-31g*
  H87       1.597  1.150  0.320    1.008    Y    Y      Y    6-31g*
  H88       1.597  1.150  0.320    1.008    Y    Y      Y    6-31g*
  H89       1.597  1.150  0.320    1.008    Y    Y      Y    6-31g*
 
  atom      formal  2spin      esp    mulk    frag
  P1           0       0        Y    0.000       0
  Pd2          2       0        Y    0.000       0
  N3          -1       0        Y    0.000       0
  C4          -1       0        Y    0.000       0
  
  end of program pre
   
 Time(pre)  user:        1.9  user+sys:        1.9  wallclock:        2.1
  
  start of program onee
  
  smallest eigenvalue of S:    4.142E-04
  number of canonical orbitals.....          724
  end of program onee
   
 Time(onee)  user:        2.2  user+sys:        2.2  wallclock:        2.3
  
  start of program hfig
  
  initial wavefunction generated automatically from atomic wavefunctions
  Only one state below 0.010000
  Skip d-d repulsion considerations 
 
  Irreducible     Total no   No of occupied orbitals 
  representation  orbitals   Shell_1  Shell_2    ...
  No Symm          724        169
  ------------------------
  Orbital occupation/shell    1.000
 
  end of program hfig
   
 Time(hfig)  user:        0.8  user+sys:        0.8  wallclock:        0.8
  
  start of program probe
  
  end of program probe
   
 Time(probe)  user:        0.4  user+sys:        0.4  wallclock:        0.4
  
  start of program grid
  
   grid     grid set  grid #  grid sym
  ------    --------  ------  --------
  coarse        0        0        1
  medium        2        1        1
  fine          0        0        1
  ultrafine     4        2        1
  charge       -1        3        1
  gradient      4        2        1
  density       0        0        1
  DFT-fine    -11        4        1
  DFT-med.    -10        5        1
  DFT-grad    -12        6        1
  DFT-der2     -8        7        1
  DFT-cphf     -9        8        1
  LMP2-enrg     4        2        1
  LMP2-grad     2        1        1
  DFT-cphf2   -15        9        1
  PBF-dens      0        0        1
  plotting      0        0        1
  Rel-grad    -17        0        1
  
  number of gridpoints: 
     atom        P1      Pd2       N3       C4       C5       C6       C7
  grid # 1      615      360      105       80       94       95      100
  grid # 2      436      320      384      328      325      325      396
  grid # 3       10      276        6       39       32       24       25
  grid # 4     8714     8714     8714     8714     8714     8714     8714
  grid # 5     1192     1192     1192     1192     1192     1192     1192
  grid # 6     9132     9132     5922     5922     5922     5922     5922
  grid # 7    23034    32968    13958    13950    13950    13950    13950
  grid # 8      722     1150      756      748      748      748      748
  grid # 9      366     2198      406      394      394      394      394
   
  number of gridpoints: 
     atom        C8       C9      F10      H11      H12      H13      H14
  grid # 1       96       94      584      115      101      115      115
  grid # 2      326      325      564      459      422      455      465
  grid # 3       29       35      354      354       56      256      387
  grid # 4     8714     8714     8714     8714     8714     8714     8714
  grid # 5     1192     1192     1192     1192     1192     1192     1192
  grid # 6     5922     5922     5922     5922     5922     5922     5922
  grid # 7    13950    13950    23190    15206    15206    15206    15206
  grid # 8      748      748      770      786      786      786      786
  grid # 9      394      394      420      420      420      420      420
   
  number of gridpoints: 
     atom       H15      C16      C17      C18      C19      C20      C21
  grid # 1       99       96       96       95       99       96       96
  grid # 2      425      323      322      321      353      321      323
  grid # 3       61       38       36       24       24       30       34
  grid # 4     8714     8714     8714     8714     8714     8714     8714
  grid # 5     1192     1192     1192     1192     1192     1192     1192
  grid # 6     5922     5922     5922     5922     5922     5922     5922
  grid # 7    15206    13950    13950    13950    13950    13950    13950
  grid # 8      786      748      748      748      748      748      748
  grid # 9      420      394      394      394      394      394      394
   
  number of gridpoints: 
     atom       H22      H23      H24      H25      H26      C27      C28
  grid # 1      117      117      106      111      117       82       80
  grid # 2      466      466      441      442      465      331      331
  grid # 3      405      406      179      185      380        6        6
  grid # 4     8714     8714     8714     8714     8714     8714     8714
  grid # 5     1192     1192     1192     1192     1192     1192     1192
  grid # 6     5922     5922     5922     5922     5922     5922     5922
  grid # 7    15206    15206    15206    15206    15206    13950    13950
  grid # 8      786      786      786      786      786      748      748
  grid # 9      420      420      420      420      420      394      394
   
  number of gridpoints: 
     atom       C29      C30      C31      C32      C33      C34      C35
  grid # 1       95       92       92       92       92       91       90
  grid # 2      392      278      280      279      277      281      282
  grid # 3       16        6        6        6        6        6        6
  grid # 4     8714     8714     8714     8714     8714     8714     8714
  grid # 5     1192     1192     1192     1192     1192     1192     1192
  grid # 6     5922     5922     5922     5922     5922     5922     5922
  grid # 7    13950    13950    13950    13950    13950    13950    13950
  grid # 8      748      748      748      748      748      748      748
  grid # 9      394      394      394      394      394      394      394
   
  number of gridpoints: 
     atom       C36      C37      C38      C39      C40      C41      C42
  grid # 1       92       92       92       92       93       95       97
  grid # 2      282      282      282      283      322      325      324
  grid # 3        6        6        6        6       10       28       44
  grid # 4     8714     8714     8714     8714     8714     8714     8714
  grid # 5     1192     1192     1192     1192     1192     1192     1192
  grid # 6     5922     5922     5922     5922     5922     5922     5922
  grid # 7    13950    13950    13950    13950    13950    13950    13950
  grid # 8      748      748      748      748      748      748      748
  grid # 9      394      394      394      394      394      394      394
   
  number of gridpoints: 
     atom       C43      C44      C45      C46      C47      C48      C49
  grid # 1       95      100      100       92       96       94       96
  grid # 2      328      360      364      347      322      319      323
  grid # 3       29       16       10       19       32       30       33
  grid # 4     8714     8714     8714     8714     8714     8714     8714
  grid # 5     1192     1192     1192     1192     1192     1192     1192
  grid # 6     5922     5922     5922     5922     5922     5922     5922
  grid # 7    13950    13950    13950    13950    13950    13950    13950
  grid # 8      748      748      748      748      748      748      748
  grid # 9      394      394      394      394      394      394      394
   
  number of gridpoints: 
     atom       C50      O51      C52      O53      C54      H55      H56
  grid # 1       92      118       76      119       76       98      107
  grid # 2      348      457      225      459      228      417      434
  grid # 3       23       63        6       78        6       32      151
  grid # 4     8714     8714     8714     8714     8714     8714     8714
  grid # 5     1192     1192     1192     1192     1192     1192     1192
  grid # 6     5922     5922     5922     5922     5922     5922     5922
  grid # 7    13950    23382    13950    23382    13950    15206    15206
  grid # 8      748      774      748      774      748      786      786
  grid # 9      394      416      394      416      394      420      420
   
  number of gridpoints: 
     atom       H57      H58      H59      H60      H61      H62      H63
  grid # 1      107      108      112      110      112      110      112
  grid # 2      439      445      455      454      459      444      454
  grid # 3      162      183      326      269      331      222      312
  grid # 4     8714     8714     8714     8714     8714     8714     8714
  grid # 5     1192     1192     1192     1192     1192     1192     1192
  grid # 6     5922     5922     5922     5922     5922     5922     5922
  grid # 7    15206    15206    15206    15206    15206    15206    15206
  grid # 8      786      786      786      786      786      786      786
  grid # 9      420      420      420      420      420      420      420
   
  number of gridpoints: 
     atom       H64      H65      H66      H67      H68      H69      H70
  grid # 1       97      104      101      101      106      112      110
  grid # 2      406      433      421      423      440      458      452
  grid # 3       35      119       65       92      139      325      250
  grid # 4     8714     8714     8714     8714     8714     8714     8714
  grid # 5     1192     1192     1192     1192     1192     1192     1192
  grid # 6     5922     5922     5922     5922     5922     5922     5922
  grid # 7    15206    15206    15206    15206    15206    15206    15206
  grid # 8      786      786      786      786      786      786      786
  grid # 9      420      420      420      420      420      420      420
   
  number of gridpoints: 
     atom       H71      H72      H73      H74      H75      H76      H77
  grid # 1      112      110      112      110      110      107      106
  grid # 2      458      456      458      451      443      435      428
  grid # 3      332      268      326      259      186      157      107
  grid # 4     8714     8714     8714     8714     8714     8714     8714
  grid # 5     1192     1192     1192     1192     1192     1192     1192
  grid # 6     5922     5922     5922     5922     5922     5922     5922
  grid # 7    15206    15206    15206    15206    15206    15206    15206
  grid # 8      786      786      786      786      786      786      786
  grid # 9      420      420      420      420      420      420      420
   
  number of gridpoints: 
     atom       H78      H79      H80      H81      H82      H83      H84
  grid # 1      118      118      116      111      111      110      107
  grid # 2      467      469      457      445      449      440      451
  grid # 3      409      428      341      236      285      211      279
  grid # 4     8714     8714     8714     8714     8714     8714     8714
  grid # 5     1192     1192     1192     1192     1192     1192     1192
  grid # 6     5922     5922     5922     5922     5922     5922     5922
  grid # 7    15206    15206    15206    15206    15206    15206    15206
  grid # 8      786      786      786      786      786      786      786
  grid # 9      420      420      420      420      420      420      420
   
  number of gridpoints: 
     atom       H85      H86      H87      H88      H89    total
  grid # 1      105      111      112      111      110    10341
  grid # 2      431      448      449      463      448    34689
  grid # 3      146      324      272      391      319    12489
  grid # 4     8714     8714     8714     8714     8714   775546
  grid # 5     1192     1192     1192     1192     1192   106088
  grid # 6     5922     5922     5922     5922     5922   533478
  grid # 7    15206    15206    15206    15206    15206  1354284
  grid # 8      786      786      786      786      786    68740
  grid # 9      420      420      420      420      420    38094
   
  end of program grid
   
 Time(grid)  user:      285.2  user+sys:      285.2  wallclock:      285.8
  
  start of program rwr
  
  end of program rwr
   
 Time(rwr)  user:        9.5  user+sys:        9.5  wallclock:       10.7
  
  start of program scf
  
 number of electrons..........        338
 number of alpha electrons....        169
 number of beta electrons.....        169
 number of orbitals, total....        724
 number of doubly-occ'd orbs..        169
 number of open shell orbs....          0
 number of occupied orbitals..        169
 number of virtual orbitals...        555
 number of hamiltonians.......          1
 number of shells.............          1
 SCF type: DFT=Becke_3_Parameter/HF+Slater+Becke88+PW91+PW-GGAIIC (B3PW91-D3)
 Energy computed with NOPS off.
 Convergence Criterion:
    Energy (econv):       1.00E-05
    RMS density (dconv):  5.00E-06
  
       i  u  d  i  g                   
       t  p  i  c  r                                 RMS    maximum
       e  d  i  u  i                       energy  density   DIIS  
       r  t  s  t  d       total energy    change  change    error 
  
etot    1  N  N  5  M   -2242.08092679745           1.8E-03  1.7E-01
etot    2  Y  Y  6  M   -2245.91699332153  3.8E+00  2.7E-03  1.0E-01
etot    3  Y  Y  6  M   -2247.01340525040  1.1E+00  1.3E-03  6.3E-02
etot    4  N  Y  2  U   -2247.37940577538  3.7E-01  7.1E-04  3.4E-02
etot    5  Y  Y  6  M   -2247.50562728126  1.3E-01  4.4E-04  2.0E-02
etot    6  N  Y  2  U   -2247.52206193667  1.6E-02  4.5E-04  1.1E-02
etot    7  Y  Y  6  M   -2247.52189590910 -1.7E-04  1.1E-04  4.7E-03
etot    8  Y  Y  6  M   -2247.52771794526  5.8E-03  3.4E-05  1.2E-03
etot    9  N  Y  2  U   -2247.52901932916  1.3E-03  1.1E-05  2.1E-04
etot   10  N  Y  2  U   -2247.52902888783  9.6E-06  6.2E-06  5.8E-05
etot   11  N  Y  2  U   -2247.52903150119  2.6E-06  2.3E-06  3.1E-05
etot   12  N  N  2  U   -2247.52903191940  4.2E-07  0.0E+00  0.0E+00
 
  Computing the dispersion energy correction and its gradients...
  
  
 Energy components, in hartrees:
   (A)  Nuclear repulsion............    6387.42584751392
   (E)  Total one-electron terms.....  -15843.55750386650
   (F)    Electron-nuclear...........  -17996.78141488246
   (H)    Kinetic....................    2153.22391101596
   (I)  Total two-electron terms.....    7208.60262443318
   (J)    Coulomb....................    7501.46788194097
   (K)    Exchange+Correlation.......    -292.86525750779
   (L)  Electronic energy............   -8634.95487943332  (E+I)
   (N0) D3 correction................      -0.15756326625
   (N)  Total energy.................   -2247.68659518564  (A+L+N0)
   (O)  Gas phase energy.............   -2247.68659518564
  
 SCFE: SCF energy: DFT(b3pw91-d3)     -2247.68659518564 hartrees   iterations:  12
  
 
 HOMO energy:    -0.17692
 LUMO energy:    -0.07392
 
  Orbital energies (hartrees): 
   -77.06277   -24.67245   -19.17634   -19.17025   -14.30470   -10.24382
   -10.24210   -10.23119   -10.22998   -10.22483   -10.19649   -10.19101
   -10.18649   -10.18612   -10.18536   -10.18502   -10.18281   -10.18067
   -10.18011   -10.17807   -10.17710   -10.17548   -10.17351   -10.16802
   -10.16751   -10.16749   -10.16607   -10.16443   -10.16401   -10.16382
   -10.15984   -10.15915   -10.15730   -10.15670   -10.15474   -10.15390
   -10.15390   -10.15156   -10.15088   -10.15038   -10.14841   -10.14283
   -10.14171    -6.56324    -4.72146    -4.72082    -4.71754    -3.32395
    -2.05822    -2.05314    -2.02322    -1.20904    -1.07369    -1.06963
    -0.86918    -0.85830    -0.85089    -0.83464    -0.82809    -0.82589
    -0.80057    -0.78786    -0.76663    -0.75989    -0.74479    -0.73940
    -0.73862    -0.73422    -0.73381    -0.72574    -0.72432    -0.71231
    -0.71126    -0.69341    -0.69260    -0.65031    -0.63026    -0.61123
    -0.60702    -0.60193    -0.59889    -0.59159    -0.59106    -0.58781
    -0.58483    -0.57830    -0.56603    -0.55974    -0.55500    -0.54695
    -0.53747    -0.52076    -0.50882    -0.50582    -0.49350    -0.49194
    -0.48093    -0.48076    -0.47402    -0.47232    -0.46894    -0.45917
    -0.45554    -0.44964    -0.44901    -0.44733    -0.44458    -0.44364
    -0.44085    -0.43753    -0.43446    -0.43304    -0.42920    -0.42856
    -0.42385    -0.41739    -0.41696    -0.41190    -0.40813    -0.40388
    -0.39943    -0.39884    -0.39478    -0.38952    -0.38524    -0.38048
    -0.37936    -0.37700    -0.37182    -0.37036    -0.36915    -0.36505
    -0.36095    -0.35581    -0.35352    -0.34938    -0.34839    -0.34409
    -0.34087    -0.34011    -0.33779    -0.33595    -0.33122    -0.32974
    -0.32822    -0.32518    -0.32049    -0.31892    -0.31818    -0.31357
    -0.30456    -0.29740    -0.29591    -0.29366    -0.28854    -0.28044
    -0.25750    -0.25232    -0.25097    -0.24696    -0.23857    -0.23669
    -0.23258    -0.22962    -0.22740    -0.22381    -0.20462    -0.19992
    -0.17692    -0.07392    -0.02693    -0.01687    -0.00488     0.00605
     0.00988     0.02056     0.02551     0.02662     0.03278
 
  end of program scf
   
 Time(scf)  user:      355.2  user+sys:      355.2  wallclock:      361.0
  
  start of program der1a
  
  end of program der1a
   
 Time(der1a)  user:        7.3  user+sys:        7.3  wallclock:        7.4
  
  start of program rwr
  
  end of program rwr
   
 Time(rwr)  user:       12.4  user+sys:       12.4  wallclock:       15.6
  
  start of program der1b
  
   
  forces (hartrees/bohr) : total     
   
 atom  label           x              y              z
 ---- --------   -------------  -------------  -------------
    1 P1         -7.834001E-03   2.246887E-03  -1.655008E-02
    2 Pd2         1.003169E-02   9.532238E-03  -1.254738E-03
    3 N3          3.512801E-02   1.160086E-02   1.366167E-02
    4 C4         -1.795762E-03  -3.705691E-04  -3.714125E-02
    5 C5          1.417265E-03   3.799102E-03   9.491739E-03
    6 C6          1.017664E-04  -5.269289E-03   6.576420E-06
    7 C7         -8.666429E-03   1.262750E-03   4.111139E-03
    8 C8         -1.929629E-03   2.635925E-03  -1.860951E-03
    9 C9          2.803067E-05  -4.937105E-03   9.901442E-03
   10 F10         1.073552E-03   3.759760E-04   7.875116E-03
   11 H11        -2.341069E-04  -1.592330E-03   8.597977E-04
   12 H12         6.783462E-04  -1.066940E-02   5.029553E-03
   13 H13         1.315825E-03   2.791802E-04   1.526985E-03
   14 H14         2.384313E-05   2.228116E-03   3.168402E-04
   15 H15        -2.754363E-02  -4.223406E-02   2.012267E-02
   16 C16         7.093619E-04  -3.554287E-03   1.963876E-03
   17 C17        -1.033016E-03   2.235513E-03   6.109474E-04
   18 C18        -2.861099E-04  -5.540496E-03   8.741287E-05
   19 C19        -9.528034E-03   2.629407E-02  -2.099959E-02
   20 C20         1.718037E-02  -2.009829E-03   1.122708E-02
   21 C21        -8.124411E-04   4.262913E-03  -4.120196E-03
   22 H22        -5.237947E-03   4.593252E-03  -7.848071E-03
   23 H23        -1.933734E-03   1.032455E-02  -1.285754E-04
   24 H24         1.970632E-03   7.073335E-03   9.014801E-03
   25 H25         3.860243E-05  -1.198972E-02  -1.293432E-03
   26 H26        -3.505719E-03  -5.542857E-03  -8.264157E-03
   27 C27         1.214296E-03  -6.840204E-04   3.945529E-03
   28 C28         4.346706E-03   2.283412E-04  -5.572864E-03
   29 C29        -8.437475E-04   8.176238E-04  -3.892544E-03
   30 C30        -1.326947E-03   2.543731E-04  -7.196048E-04
   31 C31         2.470549E-04   5.458209E-04   7.335678E-04
   32 C32         1.635619E-04  -8.821470E-04  -1.160362E-03
   33 C33        -5.256152E-04  -1.602256E-04   1.702580E-04
   34 C34        -5.110893E-04  -3.577606E-03  -1.480033E-03
   35 C35         1.417780E-03   1.671155E-03  -2.230468E-03
   36 C36         3.117415E-04  -1.154547E-03   1.532345E-04
   37 C37         4.390016E-07   1.389431E-04   2.492202E-04
   38 C38        -1.430002E-03  -8.758855E-04  -5.559518E-06
   39 C39         3.960303E-03   2.075174E-03  -2.698421E-04
   40 C40        -1.276009E-03   4.525555E-03   7.547730E-04
   41 C41         1.038461E-03  -5.985167E-04   3.951420E-03
   42 C42         2.374561E-03  -3.623558E-03   2.959787E-03
   43 C43         1.486199E-03  -2.439399E-03   8.257080E-04
   44 C44        -1.255715E-03  -1.632322E-03  -7.810381E-03
   45 C45         9.953504E-04   3.801392E-04   3.032204E-03
   46 C46         6.837112E-04   2.447543E-04  -2.007134E-03
   47 C47         1.287251E-03  -8.435638E-04  -2.367469E-03
   48 C48        -2.876623E-03   4.951794E-03  -7.509047E-03
   49 C49        -1.437898E-03  -3.147965E-03  -1.872587E-03
   50 C50        -6.415706E-04   1.459158E-04  -3.912092E-03
   51 O51        -1.851663E-04  -7.606298E-04   1.334671E-02
   52 C52        -4.481721E-03   1.109368E-03  -5.546871E-03
   53 O53         6.248441E-03  -1.757376E-03   1.038353E-02
   54 C54         2.066776E-04   1.910919E-03  -4.417129E-03
   55 H55        -2.300132E-03  -3.753506E-03  -5.736918E-03
   56 H56         2.647520E-03   3.988903E-03   4.558432E-03
   57 H57         2.897873E-03  -4.916724E-03   1.255717E-03
   58 H58        -2.406769E-03  -4.161605E-03  -2.673075E-03
   59 H59        -9.466495E-04  -1.732434E-03   6.535219E-03
   60 H60         1.815590E-03   4.494691E-03   4.113655E-03
   61 H61        -6.403953E-03  -6.004370E-04   1.706787E-03
   62 H62        -2.068109E-03  -3.400228E-03  -3.319680E-03
   63 H63        -3.231574E-03   5.548333E-03  -8.474776E-04
   64 H64        -3.236121E-04   3.844769E-03  -9.750405E-03
   65 H65         2.610027E-03   5.019882E-03   1.842955E-03
   66 H66        -4.418502E-03  -1.943625E-04   6.129449E-03
   67 H67        -6.076252E-03   9.190900E-04  -7.999523E-04
   68 H68         1.730127E-03  -2.209215E-03  -3.022835E-03
   69 H69        -1.135603E-03   4.806690E-03  -3.783323E-03
   70 H70        -2.994760E-03   2.249469E-03   6.056484E-03
   71 H71         2.261156E-03   5.938378E-03   3.329561E-03
   72 H72         2.590409E-03  -5.730547E-04  -4.454238E-03
   73 H73         6.365811E-03  -5.065308E-04   1.265839E-03
   74 H74        -2.359305E-03   1.969844E-03   6.760559E-03
   75 H75        -2.963577E-04  -1.281313E-03  -3.206189E-03
   76 H76         1.248487E-03  -4.826809E-03   4.505288E-03
   77 H77        -1.133987E-03   5.494380E-03   2.629919E-03
   78 H78         1.383403E-03   1.299968E-03   6.466425E-03
   79 H79         2.982039E-03  -4.842678E-03   3.778317E-03
   80 H80         1.096959E-03  -5.361085E-03  -2.755561E-03
   81 H81         5.017059E-03   7.076149E-04  -3.831800E-03
   82 H82        -1.800807E-03   1.406171E-03  -6.322736E-03
   83 H83        -5.978926E-03   4.251792E-04  -1.247452E-03
   84 H84        -3.571626E-03  -2.147772E-04   6.117256E-03
   85 H85         8.534246E-04   5.159781E-03  -3.010843E-03
   86 H86        -4.498123E-04  -7.778516E-03  -1.286315E-03
   87 H87        -1.898531E-03   4.662320E-03  -1.083888E-03
   88 H88         5.034768E-03   2.004430E-03   3.487218E-03
   89 H89         1.959556E-03  -7.170089E-03  -3.107806E-03
 -------------   -------------  -------------  -------------
     total        1.246102E-03  -1.686639E-03  -3.622850E-03
   
  end of program der1b
   
 Time(der1b)  user:      124.3  user+sys:      124.3  wallclock:      124.9
  
  start of program geopt
  
 ----------------------------------------------------------------------------
  Geometry optimization step   1
  Total energy:     -2247.68659518564 hartrees
 ----------------------------------------------------------------------------
  
  
  Level shifts adjusted to satisfy step-size constraints
   Step size:    0.3005574
   Cos(theta):   0.7186612
   Final level shift:  -2.0122872E-01
  
  gradient maximum:        6.0001E-02 .  (  2.2500E-03 )
  gradient rms:            1.2525E-02 .  (  1.5000E-03 )
  displacement maximum:    9.1674E-02 .  (  9.0000E-03 )
  displacement rms:        1.5957E-02 .  (  6.0000E-03 )
  
  predicted energy change:  -3.1583E-02
  step size:     0.28050
  trust radius:  0.30000
  
  molecular structure not yet converged...
  
  center of mass moved by:
     x:    -2.8050E-02     y:    -6.8147E-02     z:    -4.1008E-03
  
  new geometry: 
                                   angstroms
  atom               x                 y                 z
  P1            0.0440279150      0.0271671320      0.0007349264 
  Pd2          -0.0054264046     -0.0590950315      2.4022410405 
  N3            2.0327030124      0.0606096882      2.3337035132 
  C4           -0.1588841770     -0.3942743040      7.2170894535 
  C5           -0.1343659453      0.8563749310      6.6070494550 
  C6           -0.0509201558      0.9537552204      5.2189525221 
  C7           -0.0024226938     -0.1866995202      4.4092405679 
  C8           -0.0168232979     -1.4372261123      5.0472218028 
  C9           -0.0991433695     -1.5434126445      6.4330956135 
  F10          -0.2504952945     -0.5012035636      8.5485654135 
  H11          -0.1710890558      1.7525524090      7.2259918114 
  H12          -0.0144635539      1.9401427060      4.7645983948 
  H13           0.0603216220     -2.3512718562      4.4602763035 
  H14          -0.1095835197     -2.5192505193      6.9162123292 
  H15           2.3295176196      1.0684038534      2.2903535118 
  C16           4.0765341345     -1.7683542455      5.5581192157 
  C17           3.7260792631     -2.5065230203      4.4273096068 
  C18           3.0553008340     -1.8943810424      3.3678317009 
  C19           2.7285752257     -0.5366175631      3.4315020204 
  C20           3.0836480819      0.2013364209      4.5715506384 
  C21           3.7543499911     -0.4108399847      5.6268387561 
  H22           4.6004469908     -2.2517430326      6.3874525758 
  H23           3.9772790080     -3.5692821795      4.3685215935 
  H24           2.7780519014     -2.4742648650      2.4842960914 
  H25           2.8203954242      1.2597650081      4.6309091782 
  H26           4.0246229627      0.1715853975      6.5120942050 
  C27           1.7806495157      0.0991269566     -0.7633451970 
  C28          -0.7685815314     -1.5281342899     -0.7248765206 
  C29          -0.8013844137      1.4051070259     -0.9156327760 
  C30           1.8919080713      0.5561807321     -2.2247874320 
  C31           3.3681900966      0.7241808058     -2.6257964401 
  C32           4.1789863196     -0.5551124862     -2.3904814963 
  C33           4.0303947565     -1.0378967010     -0.9439691442 
  C34           2.5547772951     -1.2140916217     -0.5609708515 
  C35          -0.4602847597     -2.7331731506      0.1924866135 
  C36          -0.9795110505     -4.0407952433     -0.4217526257 
  C37          -2.4854223093     -3.9725481507     -0.7087582396 
  C38          -2.8219820861     -2.7434773090     -1.5633418012 
  C39          -2.2939999572     -1.4461040231     -0.9329628480 
  C40          -1.1838132110      1.1753916480     -2.2513833665 
  C41          -1.8182613172      2.1448702437     -3.0196392981 
  C42          -2.0849372650      3.3923826906     -2.4599670034 
  C43          -1.6944110760      3.6430761875     -1.1510395247 
  C44          -1.0515377207      2.6751270474     -0.3620436559 
  C45          -0.6510835080      3.1264205205      0.9995046797 
  C46          -1.6232624656      3.3452180686      1.9923114164 
  C47          -1.2657371113      3.8443654426      3.2495053175 
  C48           0.0698652620      4.1421773020      3.5015453757 
  C49           1.0527625858      3.9672815910      2.5301085068 
  C50           0.6850840232      3.4559531802      1.2806139109 
  O51           1.5565298237      3.2570784922      0.2451856128 
  C52           2.9351398847      3.4968228408      0.4940296789 
  O53          -2.9044824235      3.0612461000      1.6249050922 
  C54          -3.8677372363      2.9423239341      2.6635919312 
  H55           2.2535530946      0.8625948547     -0.1268734260 
  H56           1.4197402221     -0.1882558632     -2.8911170293 
  H57           1.3643112135      1.5066250420     -2.3772892380 
  H58           3.8044273409      1.5445610866     -2.0285817352 
  H59           3.4324380281      1.0354291990     -3.6811553878 
  H60           3.8152123819     -1.3429676923     -3.0743499974 
  H61           5.2396918217     -0.3881673507     -2.6395006717 
  H62           4.4856097997     -0.3051515882     -0.2557913372 
  H63           4.5706299584     -1.9866476296     -0.7961280829 
  H64           2.4780502278     -1.5172728452      0.4875886806 
  H65           2.1156497639     -2.0041448245     -1.1958151950 
  H66          -0.2740800824     -1.7049483218     -1.6990928393 
  H67           0.6135930830     -2.8120278188      0.4030464714 
  H68          -0.9524934433     -2.5590587458      1.1640820670 
  H69          -0.7563575645     -4.8805234053      0.2556689855 
  H70          -0.4360137588     -4.2409015051     -1.3628475122 
  H71          -2.8289752371     -4.8966639780     -1.2011124796 
  H72          -3.0293861901     -3.9000237174      0.2486923341 
  H73          -3.9109321560     -2.6674470810     -1.7151339592 
  H74          -2.3734442408     -2.8628275498     -2.5664241683 
  H75          -2.7694255912     -1.2913570856      0.0497250764 
  H76          -2.5749935962     -0.5849627479     -1.5512281416 
  H77          -0.9677363794      0.2113918573     -2.7102687010 
  H78          -2.0989957616      1.9230871036     -4.0503198264 
  H79          -2.5871306193      4.1674920938     -3.0402241243 
  H80          -1.8859027114      4.6188334900     -0.7036083454 
  H81          -2.0064268007      3.9631303119      4.0359623225 
  H82           0.3559495368      4.5141195894      4.4857088017 
  H83           2.0911165848      4.1816310294      2.7678668561 
  H84           3.4485951275      3.2507563733     -0.4421071321 
  H85           3.3131290164      2.8532490849      1.3034311076 
  H86           3.1220368115      4.5546409758      0.7417913914 
  H87          -3.5509247374      2.1973091943      3.4091363013 
  H88          -4.7849638947      2.5981582762      2.1728272289 
  H89          -4.0645904541      3.9107091181      3.1532886295 
   
 
  bond lengths (angstroms):
 
 P1      -Pd2     :   2.403564      P1      -C27     :   1.898645
 P1      -C28     :   1.898897      P1      -C29     :   1.858271
 Pd2     -N3      :   2.042792      Pd2     -C7      :   2.011054
 N3      -H15     :   1.051488      N3      -C19     :   1.430413
 C4      -C5      :   1.391716      C4      -C9      :   1.392384
 C4      -F10     :   1.338901      C5      -C6      :   1.394008
 C5      -H11     :   1.089758      C6      -C7      :   1.399508
 C6      -H12     :   1.086613      C7      -C8      :   1.403939
 C8      -C9      :   1.392371      C8      -H13     :   1.089007
 C9      -H14     :   1.088931      C16     -C17     :   1.395150
 C16     -C21     :   1.396914      C16     -H22     :   1.093592
 C17     -C18     :   1.395405      C17     -H23     :   1.093624
 C18     -C19     :   1.397972      C18     -H24     :   1.092597
 C19     -C20     :   1.403696      C20     -C21     :   1.392205
 C20     -H25     :   1.092290      C21     -H26     :   1.093592
 C27     -C30     :   1.535282      C27     -C34     :   1.537782
 C27     -H55     :   1.100735      C28     -C35     :   1.545549
 C28     -C39     :   1.541730      C28     -H66     :   1.106749
 C29     -C40     :   1.408279      C29     -C44     :   1.407831
 C30     -C31     :   1.538974      C30     -H56     :   1.105045
 C30     -H57     :   1.097707      C31     -C32     :   1.532761
 C31     -H58     :   1.104533      C31     -H59     :   1.102173
 C32     -C33     :   1.532174      C32     -H60     :   1.104864
 C32     -H61     :   1.102260      C33     -C34     :   1.534659
 C33     -H62     :   1.103506      C33     -H63     :   1.101744
 C34     -H64     :   1.094204      C34     -H65     :   1.104556
 C35     -C36     :   1.535175      C35     -H67     :   1.097163
 C35     -H68     :   1.102988      C36     -C37     :   1.534535
 C36     -H69     :   1.101744      C36     -H70     :   1.105030
 C37     -C38     :   1.534340      C37     -H71     :   1.102012
 C37     -H72     :   1.103571      C38     -C39     :   1.536008
 C38     -H73     :   1.102104      C38     -H74     :   1.105262
 C39     -H75     :   1.102566      C39     -H76     :   1.096710
 C40     -C41     :   1.390191      C40     -H77     :   1.089294
 C41     -C42     :   1.393067      C41     -H78     :   1.091010
 C42     -C43     :   1.388758      C42     -H79     :   1.090730
 C43     -C44     :   1.404538      C43     -H80     :   1.090397
 C44     -C45     :   1.489243      C45     -C46     :   1.406652
 C45     -C50     :   1.404620      C46     -C47     :   1.399110
 C46     -O53     :   1.362774      C47     -C48     :   1.391420
 C47     -H81     :   1.086849      C48     -C49     :   1.392970
 C48     -H82     :   1.090304      C49     -C50     :   1.399243
 C49     -H83     :   1.086579      C50     -O51     :   1.367875
 O51     -C52     :   1.421255      C52     -H84     :   1.095690
 C52     -H85     :   1.100997      C52     -H86     :   1.102404
 O53     -C54     :   1.421574      C54     -H87     :   1.100570
 C54     -H88     :   1.095721      C54     -H89     :   1.102871
 
  bond angles:
 
 C27     -P1      -Pd2     : 114.977974  C28     -P1      -Pd2     : 110.096068
 C28     -P1      -C27     : 105.585883  C29     -P1      -Pd2     : 120.661095
 C29     -P1      -C27     : 100.927469  C29     -P1      -C28     : 102.956980
 N3      -Pd2     -P1      :  86.780936  C7      -Pd2     -P1      : 177.975751
 C7      -Pd2     -N3      :  92.046539  H15     -N3      -Pd2     : 109.827108
 C19     -N3      -Pd2     : 115.795335  C19     -N3      -H15     : 107.126779
 C9      -C4      -C5      : 119.609328  F10     -C4      -C5      : 120.589232
 F10     -C4      -C9      : 119.799100  C6      -C5      -C4      : 120.020372
 H11     -C5      -C4      : 119.304759  H11     -C5      -C6      : 120.672128
 C7      -C6      -C5      : 121.417091  H12     -C6      -C5      : 118.802135
 H12     -C6      -C7      : 119.778576  C6      -C7      -Pd2     : 121.711627
 C8      -C7      -Pd2     : 120.664422  C8      -C7      -C6      : 117.553765
 C9      -C8      -C7      : 121.388467  H13     -C8      -C7      : 120.130676
 H13     -C8      -C9      : 118.465899  C8      -C9      -C4      : 120.001816
 H14     -C9      -C4      : 119.299211  H14     -C9      -C8      : 120.697180
 C21     -C16     -C17     : 119.743017  H22     -C16     -C17     : 120.075538
 H22     -C16     -C21     : 120.181411  C18     -C17     -C16     : 120.268224
 H23     -C17     -C16     : 120.002373  H23     -C17     -C18     : 119.729401
 C19     -C18     -C17     : 120.253971  H24     -C18     -C17     : 120.207662
 H24     -C18     -C19     : 119.537870  C18     -C19     -N3      : 118.963743
 C20     -C19     -N3      : 121.794852  C20     -C19     -C18     : 119.240218
 C21     -C20     -C19     : 120.419106  H25     -C20     -C19     : 119.511352
 H25     -C20     -C21     : 120.066298  C20     -C21     -C16     : 120.075324
 H26     -C21     -C16     : 120.025123  H26     -C21     -C20     : 119.898930
 C30     -C27     -P1      : 117.428810  C34     -C27     -P1      : 112.031724
 C34     -C27     -C30     : 110.060874  H55     -C27     -P1      : 100.751695
 H55     -C27     -C30     : 108.227824  H55     -C27     -C34     : 107.454052
 C35     -C28     -P1      : 109.052351  C39     -C28     -P1      : 115.556813
 C39     -C28     -C35     : 108.599998  H66     -C28     -P1      : 106.022274
 H66     -C28     -C35     : 107.986095  H66     -C28     -C39     : 109.376355
 C40     -C29     -P1      : 118.055173  C44     -C29     -P1      : 123.769969
 C44     -C29     -C40     : 118.155609  C31     -C30     -C27     : 110.490423
 H56     -C30     -C27     : 110.027534  H56     -C30     -C31     : 109.044247
 H57     -C30     -C27     : 110.804338  H57     -C30     -C31     : 109.289244
 H57     -C30     -H56     : 107.106898  C32     -C31     -C30     : 112.105551
 H58     -C31     -C30     : 108.605786  H58     -C31     -C32     : 109.146540
 H59     -C31     -C30     : 109.648340  H59     -C31     -C32     : 110.601370
 H59     -C31     -H58     : 106.556464  C33     -C32     -C31     : 110.893406
 H60     -C32     -C31     : 109.024335  H60     -C32     -C33     : 109.131442
 H61     -C32     -C31     : 110.361417  H61     -C32     -C33     : 110.752671
 H61     -C32     -H60     : 106.558988  C34     -C33     -C32     : 111.409985
 H62     -C33     -C32     : 109.848027  H62     -C33     -C34     : 108.496475
 H63     -C33     -C32     : 110.516278  H63     -C33     -C34     : 109.823556
 H63     -C33     -H62     : 106.609546  C33     -C34     -C27     : 110.680138
 H64     -C34     -C27     : 109.112826  H64     -C34     -C33     : 109.778829
 H65     -C34     -C27     : 109.575253  H65     -C34     -C33     : 108.720221
 H65     -C34     -H64     : 108.948108  C36     -C35     -C28     : 111.048744
 H67     -C35     -C28     : 111.419138  H67     -C35     -C36     : 110.280089
 H68     -C35     -C28     : 108.104525  H68     -C35     -C36     : 109.631860
 H68     -C35     -H67     : 106.204900  C37     -C36     -C35     : 111.645445
 H69     -C36     -C35     : 109.553555  H69     -C36     -C37     : 110.344448
 H70     -C36     -C35     : 109.186720  H70     -C36     -C37     : 109.355861
 H70     -C36     -H69     : 106.618930  C38     -C37     -C36     : 110.796896
 H71     -C37     -C36     : 110.622049  H71     -C37     -C38     : 110.763137
 H72     -C37     -C36     : 108.927661  H72     -C37     -C38     : 108.811800
 H72     -C37     -H71     : 106.801961  C39     -C38     -C37     : 111.876742
 H73     -C38     -C37     : 110.408170  H73     -C38     -C39     : 109.748345
 H74     -C38     -C37     : 109.266553  H74     -C38     -C39     : 108.915409
 H74     -C38     -H73     : 106.464994  C38     -C39     -C28     : 110.521023
 H75     -C39     -C28     : 108.289004  H75     -C39     -C38     : 109.639871
 H76     -C39     -C28     : 111.800177  H76     -C39     -C38     : 110.107487
 H76     -C39     -H75     : 106.365687  C41     -C40     -C29     : 122.299402
 H77     -C40     -C29     : 119.344584  H77     -C40     -C41     : 118.351634
 C42     -C41     -C40     : 119.330698  H78     -C41     -C40     : 119.850413
 H78     -C41     -C42     : 120.818751  C43     -C42     -C41     : 119.109798
 H79     -C42     -C41     : 120.716591  H79     -C42     -C43     : 120.172212
 C44     -C43     -C42     : 122.260069  H80     -C43     -C42     : 119.927480
 H80     -C43     -C44     : 117.812434  C43     -C44     -C29     : 118.824988
[...]
    N3       Y    -0.00026  0.00030 -0.06612
    N3       Z    -0.00008  0.00009 -0.01431
    C4       X     0.00002  0.00007 -0.00003
    C4       Y     0.00002  0.00005 -0.00000
    C4       Z     0.00000  0.00001  0.00004
    C5       X    -0.00007 -0.00009  0.00003
    C5       Y    -0.00015 -0.00023  0.00005
    C5       Z    -0.00026 -0.00040  0.00003
    C6       X    -0.00100 -0.00245  0.00021
    C6       Y    -0.00083 -0.00199  0.00015
    C6       Z     0.00014  0.00032 -0.00002
    C7       X     0.00000  0.00003  0.00010
    C7       Y     0.00001  0.00005  0.00015
    C7       Z     0.00002  0.00002  0.00007
    C8       X    -0.00000 -0.00003  0.00014
    C8       Y    -0.00000 -0.00001  0.00011
    C8       Z    -0.00000  0.00002 -0.00004
    C9       X     0.00002  0.00011 -0.00004
    C9       Y     0.00001  0.00009 -0.00003
    C9       Z    -0.00001 -0.00005  0.00001
    F10      X    -0.00000 -0.00000  0.00002
    F10      Y    -0.00000 -0.00000 -0.00000
    F10      Z    -0.00000  0.00000 -0.00004
    H11      X     0.00089  0.00114 -0.00015
    H11      Y     0.00172  0.00246 -0.00033
    H11      Z     0.00257  0.00365 -0.00063
    H12      X     0.01151  0.02801 -0.00227
    H12      Y     0.00973  0.02362 -0.00129
    H12      Z    -0.00141 -0.00350  0.00092
    H13      X     0.00005  0.00014 -0.00073
    H13      Y     0.00008  0.00017 -0.00126
    H13      Z     0.00011  0.00020 -0.00160
    H14      X    -0.00017 -0.00117  0.00044
    H14      Y    -0.00015 -0.00101  0.00034
    H14      Z     0.00003  0.00020 -0.00020
    H15      X     0.00026  0.00013 -0.12696
    H15      Y     0.00326 -0.00348  0.92606
    H15      Z     0.00128 -0.00144  0.23123
    C16      X    -0.00002  0.00001 -0.00008
    C16      Y     0.00000 -0.00001  0.00007
    C16      Z    -0.00002  0.00001 -0.00008
    C17      X     0.00001 -0.00000 -0.00002
    C17      Y    -0.00000  0.00001 -0.00010
    C17      Z     0.00001 -0.00000  0.00013
    C18      X     0.00001  0.00000 -0.00004
    C18      Y     0.00003 -0.00002  0.00089
    C18      Z     0.00001  0.00000  0.00009
    C19      X     0.00002 -0.00001 -0.00061
    C19      Y    -0.00001 -0.00001 -0.00093
    C19      Z     0.00001  0.00001 -0.00255
    C20      X    -0.00006  0.00001 -0.00039
    C20      Y     0.00034 -0.00009  0.00040
    C20      Z     0.00003  0.00000 -0.00026
    C21      X     0.00002 -0.00001  0.00001
    C21      Y     0.00001 -0.00000 -0.00014
    C21      Z     0.00003 -0.00001  0.00021
    H22      X     0.00021 -0.00006  0.00063
    H22      Y    -0.00016  0.00004 -0.00010
    H22      Z     0.00018 -0.00005  0.00001
    H23      X    -0.00000  0.00001  0.00031
    H23      Y    -0.00002 -0.00005 -0.00013
    H23      Z    -0.00000 -0.00000  0.00025
    H24      X    -0.00021  0.00007 -0.00077
    H24      Y    -0.00025  0.00008 -0.00046
    H24      Z    -0.00026  0.00007 -0.00178
    H25      X     0.00052 -0.00014  0.00233
    H25      Y    -0.00368  0.00100  0.00131
    H25      Z    -0.00039  0.00006  0.00050
    H26      X    -0.00026  0.00010 -0.00025
    H26      Y    -0.00022  0.00009 -0.00018
    H26      Z    -0.00031  0.00010 -0.00033
    C27      X     0.00000  0.00001  0.00002
    C27      Y     0.00003  0.00001 -0.00004
    C27      Z    -0.00000  0.00001  0.00004
    C28      X    -0.00001  0.00001  0.00001
    C28      Y     0.00000 -0.00000 -0.00002
    C28      Z    -0.00000 -0.00000  0.00001
    C29      X     0.00003 -0.00001 -0.00004
    C29      Y    -0.00002  0.00002  0.00003
    C29      Z     0.00002 -0.00001  0.00004
    C30      X     0.00000 -0.00000 -0.00003
    C30      Y    -0.00001  0.00001  0.00002
    C30      Z     0.00000 -0.00000 -0.00001
    C31      X     0.00001 -0.00000  0.00001
    C31      Y     0.00002  0.00000  0.00002
    C31      Z     0.00000  0.00001  0.00000
    C32      X     0.00001 -0.00000  0.00001
    C32      Y     0.00001  0.00000  0.00001
    C32      Z    -0.00000  0.00000 -0.00000
    C33      X     0.00001 -0.00000  0.00001
    C33      Y     0.00005  0.00000  0.00001
    C33      Z     0.00000 -0.00000  0.00000
    C34      X     0.00000  0.00000 -0.00001
    C34      Y     0.00002  0.00001  0.00003
    C34      Z     0.00004  0.00001  0.00007
    C35      X     0.00002 -0.00001  0.00001
    C35      Y    -0.00000  0.00000  0.00001
    C35      Z    -0.00000 -0.00001 -0.00007
    C36      X     0.00000 -0.00000  0.00000
    C36      Y    -0.00001  0.00001 -0.00001
    C36      Z    -0.00000 -0.00000  0.00000
    C37      X    -0.00000  0.00000 -0.00001
    C37      Y    -0.00001  0.00000 -0.00001
    C37      Z    -0.00000 -0.00000 -0.00003
    C38      X    -0.00000  0.00001 -0.00001
    C38      Y    -0.00000  0.00000 -0.00001
    C38      Z    -0.00000 -0.00001  0.00001
    C39      X     0.00000 -0.00000 -0.00001
    C39      Y    -0.00001  0.00001  0.00004
    C39      Z     0.00001 -0.00002 -0.00012
    C40      X    -0.00001 -0.00000  0.00001
    C40      Y    -0.00014  0.00009 -0.00003
    C40      Z    -0.00006  0.00004 -0.00000
    C41      X    -0.00006  0.00003  0.00000
    C41      Y    -0.00002  0.00001 -0.00000
    C41      Z    -0.00010  0.00006 -0.00001
    C42      X    -0.00010  0.00005  0.00001
    C42      Y     0.00014 -0.00009 -0.00001
    C42      Z    -0.00008  0.00006  0.00002
    C43      X     0.00002 -0.00001 -0.00003
    C43      Y     0.00012 -0.00010  0.00000
    C43      Z     0.00008 -0.00007 -0.00005
    C44      X     0.00003  0.00006  0.00004
    C44      Y     0.00002  0.00001  0.00005
    C44      Z    -0.00006  0.00001  0.00009
    C45      X    -0.00053 -0.00026 -0.00008
    C45      Y    -0.00019 -0.00002 -0.00005
    C45      Z     0.00013  0.00032 -0.00000
    C46      X     0.00013  0.00169  0.00034
    C46      Y     0.00013  0.00116  0.00014
    C46      Z     0.00033  0.00269  0.00009
    C47      X     0.00433  0.04277  0.00047
    C47      Y     0.00019  0.00520 -0.00010
    C47      Z    -0.00920 -0.06987 -0.00026
    C48      X     0.00344 -0.00784  0.00006
    C48      Y     0.00398 -0.00508 -0.00035
    C48      Z     0.01429 -0.01156 -0.00051
    C49      X     0.07651 -0.00843 -0.00045
    C49      Y     0.02860 -0.00295 -0.00043
    C49      Z     0.00316  0.00070  0.00037
    C50      X    -0.00091  0.00002  0.00005
    C50      Y    -0.00094  0.00008 -0.00010
    C50      Z    -0.00323  0.00038  0.00043
    O51      X     0.00019 -0.00006  0.00010
    O51      Y     0.00011 -0.00002  0.00001
    O51      Z     0.00033  0.00002 -0.00018
    C52      X     0.00050  0.00001 -0.00012
    C52      Y     0.00084 -0.00002  0.00003
    C52      Z     0.00257 -0.00009 -0.00000
    O53      X    -0.00007 -0.00008 -0.00022
    O53      Y    -0.00003 -0.00009 -0.00012
    O53      Z    -0.00004 -0.00036 -0.00000
    C54      X    -0.00024 -0.00098  0.00009
    C54      Y    -0.00020 -0.00093  0.00005
    C54      Z    -0.00037 -0.00146 -0.00009
    H55      X     0.00004 -0.00007 -0.00010
    H55      Y    -0.00032 -0.00020  0.00054
    H55      Z     0.00001 -0.00003  0.00010
    H56      X    -0.00002 -0.00001  0.00000
    H56      Y    -0.00003 -0.00008 -0.00017
    H56      Z    -0.00000 -0.00002 -0.00005
    H57      X    -0.00008  0.00006  0.00011
    H57      Y     0.00006 -0.00004 -0.00005
    H57      Z    -0.00008  0.00006  0.00007
    H58      X    -0.00003 -0.00001 -0.00006
    H58      Y    -0.00023 -0.00002 -0.00022
    H58      Z    -0.00001  0.00000 -0.00001
    H59      X    -0.00002  0.00001 -0.00005
    H59      Y    -0.00002 -0.00001 -0.00001
    H59      Z    -0.00004 -0.00005  0.00007
    H60      X    -0.00002 -0.00001  0.00000
    H60      Y    -0.00016 -0.00004 -0.00009
    H60      Z    -0.00005 -0.00000 -0.00002
    H61      X    -0.00011  0.00005 -0.00011
    H61      Y    -0.00002  0.00001 -0.00002
    H61      Z     0.00004 -0.00002  0.00005
    H62      X    -0.00012 -0.00001 -0.00005
    H62      Y    -0.00051 -0.00002 -0.00013
    H62      Z    -0.00005 -0.00001 -0.00002
    H63      X    -0.00002  0.00007 -0.00003
    H63      Y    -0.00002 -0.00004  0.00000
    H63      Z     0.00001  0.00004 -0.00000
    H64      X     0.00005  0.00000  0.00009
    H64      Y    -0.00005 -0.00002 -0.00025
    H64      Z    -0.00041 -0.00011 -0.00043
    H65      X    -0.00006 -0.00001  0.00003
    H65      Y    -0.00024 -0.00012 -0.00020
    H65      Z    -0.00004 -0.00001 -0.00002
    H66      X     0.00002 -0.00002  0.00006
    H66      Y    -0.00001  0.00000  0.00016
    H66      Z     0.00003  0.00005  0.00044
    H67      X    -0.00015  0.00002 -0.00030
    H67      Y    -0.00000  0.00001  0.00003
    H67      Z     0.00007 -0.00001  0.00025
    H68      X     0.00000  0.00001  0.00021
    H68      Y    -0.00000  0.00000 -0.00024
    H68      Z    -0.00002  0.00008  0.00059
    H69      X    -0.00004  0.00003 -0.00006
    H69      Y     0.00008 -0.00007  0.00009
    H69      Z    -0.00002  0.00002 -0.00005
    H70      X     0.00000 -0.00000  0.00005
    H70      Y    -0.00000  0.00000  0.00006
    H70      Z     0.00002  0.00002  0.00020
    H71      X     0.00002 -0.00003  0.00008
    H71      Y     0.00005 -0.00005  0.00016
    H71      Z     0.00002 -0.00002  0.00009
    H72      X    -0.00000  0.00000 -0.00002
    H72      Y    -0.00000 -0.00000 -0.00007
    H72      Z    -0.00000  0.00007  0.00021
    H73      X     0.00002 -0.00013  0.00009
    H73      Y     0.00000 -0.00001  0.00001
    H73      Z    -0.00001  0.00004 -0.00007
    H74      X    -0.00000  0.00001  0.00006
    H74      Y    -0.00000  0.00000  0.00012
    H74      Z     0.00000  0.00006  0.00023
    H75      X     0.00000  0.00001 -0.00026
    H75      Y     0.00000 -0.00001 -0.00012
    H75      Z    -0.00006  0.00020  0.00112
    H76      X    -0.00008  0.00007  0.00028
    H76      Y     0.00009 -0.00005 -0.00031
    H76      Z    -0.00003  0.00001  0.00022
    H77      X     0.00003 -0.00004 -0.00009
    H77      Y     0.00168 -0.00113 -0.00015
    H77      Z     0.00088 -0.00060 -0.00023
    H78      X     0.00061 -0.00034  0.00003
    H78      Y     0.00020 -0.00012 -0.00005
    H78      Z     0.00110 -0.00066  0.00002
    H79      X     0.00100 -0.00068 -0.00011
    H79      Y    -0.00161  0.00107  0.00012
    H79      Z     0.00094 -0.00065 -0.00015
    H80      X    -0.00002  0.00007  0.00010
    H80      Y    -0.00112  0.00081 -0.00039
    H80      Z    -0.00064  0.00045 -0.00001
    H81      X    -0.06186 -0.48817 -0.00188
    H81      Y    -0.00777 -0.06371  0.00015
    H81      Z     0.10347  0.79562  0.00232
    H82      X    -0.05755  0.06039  0.00070
    H82      Y    -0.04647  0.04565  0.00098
    H82      Z    -0.13405  0.12498  0.00188
    H83      X    -0.87341  0.09063  0.00275
    H83      Y    -0.32423  0.03344  0.00158
    H83      Z    -0.03143  0.00206 -0.00023
    H84      X     0.00426 -0.00011  0.00021
    H84      Y    -0.00319  0.00016 -0.00005
    H84      Z    -0.02173  0.00100 -0.00053
    H85      X    -0.00733  0.00011  0.00042
    H85      Y     0.01008 -0.00024 -0.00024
    H85      Z    -0.01008  0.00037  0.00052
    H86      X    -0.00141 -0.00004  0.00011
    H86      Y    -0.01813  0.00051 -0.00015
    H86      Z    -0.00660  0.00036  0.00012
    H87      X     0.00143  0.00662 -0.00002
    H87      Y    -0.00182 -0.00663  0.00012
    H87      Z     0.00199  0.00816  0.00042
    H88      X     0.00292  0.01251 -0.00068
    H88      Y     0.00142  0.00628 -0.00027
    H88      Z     0.00144  0.00692 -0.00018
    H89      X    -0.00046 -0.00101  0.00009
    H89      Y     0.00327  0.01452 -0.00014
    H89      Z     0.00130  0.00595  0.00020
  
  Number of imaginary frequencies:   0
   
  Writing vibrational animation data to red_elim_N_trans_L1_PL145.vib
  Writing IR vibrational spectrum data to red_elim_N_trans_L1_PL145_vib.spm
  rotational symmetry number:  1

  rotational temperatures (K):      0.004045      0.002950      0.002880
   
  The Quasi-Harmonic approximation will be applied to compute
  vibrational constributions to thermodynamic properties.
  Frequencies will be adjusted to a minimum value of  100.00 cm^-1.

  vibrational temperatures:
       mode:      1        2        3        4        5        6
  temp. (K):   143.88   143.88   143.88   143.88   143.88   143.88
   
       mode:      7        8        9       10       11       12
  temp. (K):   143.88   143.88   143.88   143.88   143.88   143.88
   
       mode:     13       14       15       16       17       18
  temp. (K):   143.88   143.88   143.88   143.88   143.88   144.54
   
       mode:     19       20       21       22       23       24
  temp. (K):   158.77   181.48   189.78   201.23   216.41   227.00
   
       mode:     25       26       27       28       29       30
  temp. (K):   228.64   237.70   252.62   257.27   287.01   306.87
   
       mode:     31       32       33       34       35       36
  temp. (K):   313.56   321.34   331.73   357.19   364.76   373.37
   
       mode:     37       38       39       40       41       42
  temp. (K):   381.45   396.83   402.14   441.86   460.02   467.67
   
       mode:     43       44       45       46       47       48
  temp. (K):   471.06   476.73   487.97   495.49   540.78   561.39
   
       mode:     49       50       51       52       53       54
  temp. (K):   578.54   591.66   594.81   607.30   613.16   626.52
   
       mode:     55       56       57       58       59       60
  temp. (K):   639.47   646.20   676.23   689.64   693.61   707.28
   
       mode:     61       62       63       64       65       66
  temp. (K):   732.70   741.00   756.24   771.76   797.20   799.86
   
       mode:     67       68       69       70       71       72
  temp. (K):   826.59   839.02   856.86   870.27   894.54   907.65
   
       mode:     73       74       75       76       77       78
  temp. (K):   911.81   913.17   983.83  1012.93  1022.59  1046.20
   
       mode:     79       80       81       82       83       84
  temp. (K):  1055.37  1079.45  1097.37  1098.32  1115.03  1122.74
   
       mode:     85       86       87       88       89       90
  temp. (K):  1129.31  1131.94  1159.50  1162.60  1172.08  1173.50
   
       mode:     91       92       93       94       95       96
  temp. (K):  1189.70  1193.93  1204.41  1206.09  1216.35  1232.06
   
       mode:     97       98       99      100      101      102
  temp. (K):  1238.26  1257.84  1264.84  1286.24  1294.00  1309.36
   
       mode:    103      104      105      106      107      108
  temp. (K):  1317.90  1323.11  1330.27  1342.72  1352.59  1359.33
   
       mode:    109      110      111      112      113      114
  temp. (K):  1361.69  1375.92  1403.29  1408.22  1410.12  1428.65
   
       mode:    115      116      117      118      119      120
  temp. (K):  1448.77  1458.48  1471.91  1474.43  1476.61  1484.86
   
       mode:    121      122      123      124      125      126
  temp. (K):  1524.36  1525.06  1530.00  1543.20  1548.42  1551.98
   
       mode:    127      128      129      130      131      132
  temp. (K):  1557.72  1561.44  1594.48  1598.78  1603.08  1603.53
   
       mode:    133      134      135      136      137      138
  temp. (K):  1609.05  1612.69  1620.47  1635.09  1641.72  1665.62
   
       mode:    139      140      141      142      143      144
  temp. (K):  1676.36  1680.46  1697.41  1705.98  1718.63  1723.11
   
       mode:    145      146      147      148      149      150
  temp. (K):  1741.28  1741.62  1745.07  1751.26  1759.90  1760.04
   
       mode:    151      152      153      154      155      156
  temp. (K):  1770.01  1775.41  1814.31  1817.53  1838.09  1845.48
   
       mode:    157      158      159      160      161      162
  temp. (K):  1871.53  1874.02  1879.40  1880.76  1891.67  1896.48
   
       mode:    163      164      165      166      167      168
  temp. (K):  1901.40  1903.60  1906.61  1921.84  1936.40  1938.11
   
       mode:    169      170      171      172      173      174
  temp. (K):  1938.74  1941.72  1944.06  1977.14  1978.06  1980.90
   
       mode:    175      176      177      178      179      180
  temp. (K):  1984.82  1996.69  2003.35  2009.22  2009.43  2013.22
   
       mode:    181      182      183      184      185      186
  temp. (K):  2015.95  2019.94  2022.33  2024.04  2048.98  2127.71
   
       mode:    187      188      189      190      191      192
  temp. (K):  2133.08  2152.74  2157.25  2167.58  2169.87  2172.43
   
       mode:    193      194      195      196      197      198
  temp. (K):  2173.13  2174.38  2177.77  2179.47  2181.26  2182.53
   
       mode:    199      200      201      202      203      204
  temp. (K):  2189.45  2190.35  2196.29  2198.51  2200.60  2200.95
   
       mode:    205      206      207      208      209      210
  temp. (K):  2203.41  2207.38  2215.87  2226.39  2346.76  2347.34
   
       mode:    211      212      213      214      215      216
  temp. (K):  2360.82  2370.93  2375.01  2379.95  2389.00  2392.49
   
       mode:    217      218      219      220      221      222
  temp. (K):  4295.82  4345.74  4349.55  4354.69  4356.25  4357.18
   
       mode:    223      224      225      226      227      228
  temp. (K):  4358.38  4363.80  4366.52  4370.49  4372.14  4388.96
   
       mode:    229      230      231      232      233      234
  temp. (K):  4393.94  4410.33  4425.38  4431.31  4439.10  4439.90
   
       mode:    235      236      237      238      239      240
  temp. (K):  4441.50  4448.60  4450.91  4460.27  4477.83  4483.37
   
       mode:    241      242      243      244      245      246
  temp. (K):  4489.70  4507.62  4528.93  4550.15  4559.05  4564.50
   
       mode:    247      248      249      250      251      252
  temp. (K):  4565.84  4577.86  4581.77  4590.32  4593.98  4598.27
   
       mode:    253      254      255      256      257      258
  temp. (K):  4603.86  4608.58  4615.88  4624.59  4627.45  4636.96
   
       mode:    259      260      261
  temp. (K):  4654.43  4671.77  5058.40
   
   
  Thermodynamic properties calculated assuming an ideal gas

  In the table below, the units for temperature
  are kelvins, the units for U, H, and G are
  kcal/mol and the units for Cv and S are cal/(mol K)

  The zero point energy (ZPE):    475.221 kcal/mol
  is not included in U, H, or G in the table below
  
 
  =============================================================================
  Thermodynamic properties for P = 1.00E+00 atm, calculated at   1 temperatures


  T =   298.15 K, P = 1.00E+00 atm
   
                  U         Cv          S          H          G        ln(Q)
              =========  =========  =========  =========  =========  =========
  trans.          0.889      2.981     45.532      1.481    -12.094   20.41263
  rot.            0.889      2.981     38.178      0.889    -10.494   17.71176
  vib.           24.008    159.129    147.187     24.008    -19.876   33.54644
  elec.           0.000      0.000      0.000      0.000      0.000    0.00000
  ----------------------------------------------------------------------------
  total          25.786    165.091    230.897     26.378    -42.464   71.67083
   
   Total internal energy, Utot(SCFE + ZPE + U):   -2246.949319 hartrees
   Total enthalpy, Htot (Utot + nRT), with n=1:   -2246.948374 hartrees
    Total Gibbs free energy, Gtot (Htot - T*S):   -2247.058081 hartrees
   
  end of program freq
   
 Time(freq)  user:        2.6  user+sys:        2.6  wallclock:        6.8
  
  start of program post
  
  Writing input files for PBF
  end of program post
   
 Time(post)  user:        2.1  user+sys:        2.1  wallclock:        2.9

 Total cpu seconds     user:   69494.600   user+sys:   69494.600
  
 Total elapsed time:    70272 seconds

Job red_elim_N_trans_L1_PL145 completed on bp1-compute092.data.bp.acrc.priv at Wed Mar 20 17:22:13 2024
