Job enc_comp_L1_PL747 started on bp1-compute145.data.bp.acrc.priv at Mon Mar 24 06:07:15 2025
jobid: bp1-compute145-0-67e0f68d

  +--------------------------------------------------------------------+
  |  Jaguar version 12.5, release 138                                  |
  |                                                                    |
  |  Copyright Schrodinger, Inc.                                       |
  |  All Rights Reserved.                                              |
  |                                                                    |
  |  The following have contributed to Jaguar (listed alphabetically): |
  |  Ty Balduf, Mike Beachy, Chandler Bennett, Art Bochevarov,         |
  |  Dale Braden, Yixiang Cao, Alan Chien, Chris Cortis,               |
  |  Rich Friesner, Jim Furness, Bill Goddard, Hod Greeley,            |
  |  Tom Hughes, Leif Jacobson, Jean-Marc Langlois, Daniel Levine,     |
  |  Rob Murphy, Dean Philipp, Tom Pollard, Murco Ringnalda,           |
  |  Daniel Mainz, Pablo Videla, Mark Watson, Haoyu Yu.                |
  |                                                                    |
  |  Use of this program should be acknowledged in publications as:    |
  |                                                                    |
  |  Jaguar, version 12.5, Schrodinger, Inc., New York, NY, 2024.      |
  |                                                                    |
  |  A. D. Bochevarov, E. Harder, T. F. Hughes, J. R. Greenwood,       |
  |  D. A. Braden, D. M. Philipp, D. Rinaldo, M. D. Halls,             |
  |  J. Zhang, R. A. Friesner, "Jaguar: A High-Performance Quantum     |
  |  Chemistry Software Program with Strengths in Life and Materials   |
  |  Sciences", Int. J. Quantum Chem., 2013, 113(18), 2110-2142.       |
  +--------------------------------------------------------------------+
  
  start of program pre
  
  Job name: enc_comp_L1_PL747
  Executables used: /software/local/apps/schrodinger2024-3/jaguar-v12.5/bin/Linux-x86_64
  Temporary files : /tmp/ar21627/enc_comp_L1_PL747#bp1-compute145-0-67e0f68d
  Basis file : using default basis file from /software/local/apps/schrodinger2024-3
  Maestro file (input):  enc_comp_L1_PL747.mae
  Maestro file (output): enc_comp_L1_PL747.01.mae
  
 Contents of input file: &gen and (if present) &atomic sections only
 ----------------Contents start----------------
&gen
dftname=b3pw91-d3
basis=6-31G*
numd=5
ip11=2
iaccg=3
isolv=2
igeopt=1
solvent=benzene
ifreq=1
&
&atomic
atom basis
Pd2 lacv3p*
Br3 lacv3p*
&
 -----------------Contents end-----------------
 
  PS calculation requested. Using PS version of 6-31g*
  basis set:               non_standard                    
  net molecular charge:    0
  multiplicity:            1
  
  Using up to   4 threads per process
  
  This run will use ECP on            2  atoms
  number of basis functions....          548
  
  input atom labels were not unique
  original atom labels:
 P1       Pd2      Br3      C4       C5       C6       C7       C8      
 C9       F10      H11      H12      H13      H14      C6       C7      
 C8       C9       C10      C11      C12      C13      C14      C15     
 C16      C17      C18      C19      C20      C21      C22      C23     
 C24      C25      C26      C27      C28      H29      H30      H31     
 H32      H33      H34      H35      H36      H37      H38      H39     
 H40      H41      H42      H43      H44      H45      H46      H47     
 H48      H49      H50      H51      H52      H53      H54      H55     
 H56      H57      H58      H59     
  new atom labels:
 P1       Pd2      Br3      C4       C5       C6       C7       C8      
 C9       F10      H11      H12      H13      H14      C15      C16     
 C17      C18      C19      C20      C21      C22      C23      C24     
 C25      C26      C27      C28      C29      C30      C31      C32     
 C33      C34      C35      C36      C37      H38      H39      H40     
 H41      H42      H43      H44      H45      H46      H47      H48     
 H49      H50      H51      H52      H53      H54      H55      H56     
 H57      H58      H59      H60      H61      H62      H63      H64     
 H65      H66      H67      H68     
 
  
 Input geometry:
                                   angstroms
  atom               x                 y                 z
  P1            0.0000000000      0.0000000000      0.0000000000 
  Pd2           0.0000000000      0.0000000000      2.3304135331 
  Br3           3.8542814242      0.0000000000      5.4292064860 
  C4           -0.4549197086      1.3497693940      4.0153359349 
  C5           -0.2669344836      0.0058806450      4.4490366009 
  C6            1.0407983309     -0.3826452052      4.8592552538 
  C7            2.0537516852      0.5613053264      4.8924840041 
  C8            1.8506734706      1.9005134066      4.5247241645 
  C9            0.5965376026      2.2939392222      4.0848657340 
  F10          -1.7240847964      1.8372913075      3.9128173605 
  H11          -1.1259178029     -0.6226753472      4.6805948296 
  H12           1.2142790067     -1.4018616494      5.1904970608 
  H13           2.6689545036      2.6135377646      4.5613194024 
  H14           0.3946228406      3.3233536154      3.8042291155 
  C15           2.4859719890      0.0000000000     -1.6223129383 
  C16           1.8417756257      0.2769820460     -0.2399989394 
  C17           2.6663087097     -0.6082138621      0.7365118888 
  C18           2.2012755100      1.7300295336      0.1185451052 
  C19          -1.0442422168      1.0525620250     -1.2245682407 
  C20          -1.4860189141      2.4068635562     -0.6186336630 
  C21          -2.3367912708      0.3331721453     -1.7052096288 
  C22          -0.3250889897      1.4259492335     -2.5340722034 
  C23          -0.6347117209     -1.6922415293     -0.3828062666 
  C24          -1.6302748092     -2.3927843535      0.2399897583 
  C25           0.0498481859     -2.2307293172     -1.6154187915 
  C26          -2.5205641274     -1.8331540020      1.3175461603 
  C27          -3.2361967390     -2.6805096353      2.2022542455 
  C28          -4.0600273760     -2.2250561135      3.2408307573 
  C29          -4.2109305406     -0.8520848934      3.4784760050 
  C30          -3.5076587701      0.0284255940      2.6542490346 
  C31          -2.6925367435     -0.4708665801      1.6203982685 
  C32          -1.8623523873     -3.8259187935     -0.1349257984 
  C33          -3.1554951512     -4.4027058888     -0.0568525067 
  C34          -3.4421022397     -5.7330231762     -0.4105038771 
  C35          -2.4188354248     -6.5759441177     -0.8636145833 
  C36          -1.1216326943     -6.0523033683     -0.9583005987 
  C37          -0.8732314023     -4.7159716000     -0.6057184053 
  H38           2.0813719627      0.6072601128     -2.4483495804 
  H39           2.4311175010     -1.0725477374     -1.9263398058 
  H40           3.5745669595      0.2314293317     -1.6211068800 
  H41           2.4573412261     -0.3720653966      1.7972151899 
  H42           3.7578638055     -0.4604751279      0.6100969397 
  H43           2.4638157099     -1.6856423925      0.5552817953 
  H44           1.6519446043      2.4722168973     -0.4992230335 
  H45           3.2811668996      1.9419156510     -0.0149459428 
  H46           1.9871346933      1.9556400374      1.1879195070 
  H47          -0.6157427779      3.0122505336     -0.2973626647 
  H48          -2.1831377681      2.2877233763      0.2375526023 
  H49          -2.0479247989      3.0245050227     -1.3585909559 
  H50          -3.0368992754      0.0578162296     -0.8875143619 
  H51          -2.1139318149     -0.5972890217     -2.2671034618 
  H52          -2.9294144919      0.9726865205     -2.3898585036 
  H53           0.5506695379      2.0950297279     -2.3609297955 
  H54          -0.9761293915      2.0030120040     -3.2222182302 
  H55          -0.0026444036      0.5379374497     -3.1141278566 
  H56          -0.5594442697     -2.9507240190     -2.2036197206 
  H57           1.0543217752     -2.6543280660     -1.3763938799 
  H58           0.2089887201     -1.4238140282     -2.3645129156 
  H59          -3.1419181795     -3.7712210074      2.1619894233 
  H60          -4.5804963435     -2.9436655974      3.8935462111 
  H61          -4.8535231849     -0.4799595536      4.2930319729 
  H62          -3.5899332507      1.1152026592      2.8130272456 
  H63          -2.1961053731      0.2994317511      1.0380707185 
  H64          -4.0307812875     -3.7991870334      0.2351071833 
  H65          -4.4739698759     -6.1207038115     -0.3304170105 
  H66          -2.6247252347     -7.6205234697     -1.1315014316 
  H67          -0.3025493460     -6.7027232928     -1.3096642141 
  H68           0.1864454950     -4.4198743842     -0.6757991606 
   
  principal moments of inertia:
        amu*angstrom^2:              3891.47627              7432.02656              7785.15207
                g*cm^2:          6.46194757E-37          1.23411689E-36          1.29275475E-36
   
  rotational constants:
               cm^(-1):      0.00433194      0.00226824      0.00216536
                   GHz:      0.12986820      0.06800016      0.06491575
   
  Molecular weight:     618.07 amu
   
  Stoichiometry: PdC29PH35BrF
  Molecular Point Group: C1      
  Point Group used: C1
  
 
Number of optimization coordinates:   232
Number of independent coordinates:    232
Number of non-redundant coordinates:  198
Number of frozen coordinates:           0
Number of harmonic constraints:         0
 
Number of geometric degrees of freedom:   198
Maximum geometric degrees of freedom:     198
 " " " " " excluding dummy atoms:         198
 
 
  bond lengths (angstroms):
 
 P1      -Pd2     :   2.330414      P1      -C16     :   1.877886
 P1      -C19     :   1.922991      P1      -C23     :   1.847453
 Pd2     -C4      :   2.206308      Pd2     -C5      :   2.135381
 Br3     -C7      :   1.960878      C4      -C5      :   1.424595
 C4      -C9      :   1.414869      C4      -F10     :   1.363440
 C5      -C6      :   1.424569      C5      -H11     :   1.089291
 C6      -C7      :   1.384999      C6      -H12     :   1.085642
 C7      -C8      :   1.403555      C8      -C9      :   1.386043
 C8      -H13     :   1.085968      C9      -H14     :   1.085919
 C15     -C16     :   1.550000      C15     -H38     :   1.102181
 C15     -H39     :   1.116154      C15     -H40     :   1.112924
 C16     -C17     :   1.554670      C16     -C18     :   1.539201
 C17     -H41     :   1.106583      C17     -H42     :   1.108738
 C17     -H43     :   1.111171      C18     -H44     :   1.110965
 C18     -H45     :   1.108549      C18     -H46     :   1.113696
 C19     -C20     :   1.548049      C19     -C21     :   1.555385
 C19     -C22     :   1.539935      C20     -H47     :   1.107740
 C20     -H48     :   1.110506      C20     -H49     :   1.115686
 C21     -H50     :   1.111124      C21     -H51     :   1.109572
 C21     -H52     :   1.108569      C22     -H53     :   1.115616
 C22     -H54     :   1.109234      C22     -H55     :   1.108603
 C23     -C24     :   1.367399      C23     -C25     :   1.509280
 C24     -C26     :   1.505632      C24     -C32     :   1.499432
 C25     -H56     :   1.111580      C25     -H57     :   1.116036
 C25     -H58     :   1.112466      C26     -C27     :   1.418749
 C26     -C31     :   1.406101      C27     -C28     :   1.401705
 C27     -H59     :   1.095519      C28     -C29     :   1.401534
 C28     -H60     :   1.101510      C29     -C30     :   1.396152
 C29     -H61     :   1.102227      C30     -C31     :   1.408036
 C30     -H62     :   1.101392      C31     -H63     :   1.085776
 C32     -C33     :   1.418096      C32     -C37     :   1.411453
 C33     -C34     :   1.406043      C33     -H64     :   1.102543
 C34     -C35     :   1.401035      C34     -H65     :   1.105197
 C35     -C36     :   1.402106      C35     -H66     :   1.097862
 C36     -C37     :   1.404208      C36     -H67     :   1.103359
 C37     -H68     :   1.102497
 
  bond angles:
 
 C16     -P1      -Pd2     :  97.342638  C19     -P1      -Pd2     : 129.553898
 C19     -P1      -C16     : 111.744572  C23     -P1      -Pd2     : 101.958762
 C23     -P1      -C16     : 116.460285  C23     -P1      -C19     : 100.536212
 C4      -Pd2     -P1      : 139.790083  C5      -Pd2     -P1      : 172.817172
 C5      -Pd2     -C4      :  38.265372  C5      -C4      -Pd2     :  68.171301
 C9      -C4      -Pd2     : 107.010697  C9      -C4      -C5      : 121.097117
 F10     -C4      -Pd2     : 110.687033  F10     -C4      -C5      : 118.883777
 F10     -C4      -C9      : 117.183816  C4      -C5      -Pd2     :  73.563328
 C6      -C5      -Pd2     :  99.799198  C6      -C5      -C4      : 117.780247
 H11     -C5      -Pd2     : 107.932450  H11     -C5      -C4      : 120.331435
 H11     -C5      -C6      : 120.351769  C7      -C6      -C5      : 119.499655
 H12     -C6      -C5      : 119.379668  H12     -C6      -C7      : 121.041683
 C6      -C7      -Br3     : 118.884051  C8      -C7      -Br3     : 118.535581
 C8      -C7      -C6      : 122.561140  C9      -C8      -C7      : 119.006271
 H13     -C8      -C7      : 120.572301  H13     -C8      -C9      : 120.405679
 C8      -C9      -C4      : 119.907542  H14     -C9      -C4      : 118.797547
 H14     -C9      -C8      : 121.287651  H38     -C15     -C16     : 114.667671
 H39     -C15     -C16     : 113.216762  H39     -C15     -H38     : 107.893773
 H40     -C15     -C16     : 111.616907  H40     -C15     -H38     : 104.199965
 H40     -C15     -H39     : 104.370416  C15     -C16     -P1      : 119.685427
 C17     -C16     -P1      : 110.848869  C17     -C16     -C15     : 103.768090
 C18     -C16     -P1      : 109.788049  C18     -C16     -C15     : 106.222348
 C18     -C16     -C17     : 105.505012  H41     -C17     -C16     : 112.359211
 H42     -C17     -C16     : 112.002951  H42     -C17     -H41     : 105.472016
 H43     -C17     -C16     : 110.670603  H43     -C17     -H41     : 109.198763
 H43     -C17     -H42     : 106.858970  H44     -C18     -C16     : 112.683762
 H45     -C18     -C16     : 112.328328  H45     -C18     -H44     : 106.680106
 H46     -C18     -C16     : 111.715700  H46     -C18     -H44     : 107.669515
 H46     -C18     -H45     : 105.320351  C20     -C19     -P1      : 112.616616
 C21     -C19     -P1      : 113.259062  C21     -C19     -C20     : 106.764108
 C22     -C19     -P1      : 114.874709  C22     -C19     -C20     : 104.714106
 C22     -C19     -C21     : 103.736378  H47     -C20     -C19     : 111.557046
 H48     -C20     -C19     : 112.772054  H48     -C20     -H47     : 109.159948
 H49     -C20     -C19     : 111.619353  H49     -C20     -H47     : 106.587826
 H49     -C20     -H48     : 104.748381  H50     -C21     -C19     : 114.256512
 H51     -C21     -C19     : 112.174739  H51     -C21     -H50     : 106.942602
 H52     -C21     -C19     : 111.609504  H52     -C21     -H50     : 105.107199
 H52     -C21     -H51     : 106.163418  H53     -C22     -C19     : 112.336163
 H54     -C22     -C19     : 112.308433  H54     -C22     -H53     : 104.182669
 H55     -C22     -C19     : 112.739674  H55     -C22     -H53     : 109.468348
 H55     -C22     -H54     : 105.237954  C24     -C23     -P1      : 128.684936
 C25     -C23     -P1      : 109.889446  C25     -C23     -C24     : 121.292777
 C26     -C24     -C23     : 124.475500  C32     -C24     -C23     : 119.240168
 C32     -C24     -C26     : 116.275301  H56     -C25     -C23     : 114.496636
 H57     -C25     -C23     : 111.637587  H57     -C25     -H56     : 111.150763
 H58     -C25     -C23     : 110.856140  H58     -C25     -H56     : 101.064513
 H58     -C25     -H57     : 106.904158  C27     -C26     -C24     : 121.503772
 C31     -C26     -C24     : 125.914389  C31     -C26     -C27     : 112.497504
 C28     -C27     -C26     : 124.362798  H59     -C27     -C26     : 121.891101
 H59     -C27     -C28     : 113.660382  C29     -C28     -C27     : 120.478961
 H60     -C28     -C27     : 120.316905  H60     -C28     -C29     : 119.192149
 C30     -C29     -C28     : 117.611883  H61     -C29     -C28     : 121.252466
 H61     -C29     -C30     : 121.132845  C31     -C30     -C29     : 120.095366
 H62     -C30     -C29     : 119.971301  H62     -C30     -C31     : 119.933325
 C30     -C31     -C26     : 124.924857  H63     -C31     -C26     : 121.057891
 H63     -C31     -C30     : 114.010856  C33     -C32     -C24     : 121.072537
 C37     -C32     -C24     : 125.285237  C37     -C32     -C33     : 113.635329
 C34     -C33     -C32     : 123.838833  H64     -C33     -C32     : 121.055335
 H64     -C33     -C34     : 115.004393  C35     -C34     -C33     : 120.112978
 H65     -C34     -C33     : 120.263401  H65     -C34     -C35     : 119.623423
 C36     -C35     -C34     : 118.220572  H66     -C35     -C34     : 120.956461
 H66     -C35     -C36     : 120.821812  C37     -C36     -C35     : 120.140430
 H67     -C36     -C35     : 119.219895  H67     -C36     -C37     : 120.639506
 C36     -C37     -C32     : 124.048634  H68     -C37     -C32     : 121.695734
 H68     -C37     -C36     : 114.183109
 
  torsional angles:
 
 P1      -Pd2     -C4      -C5      : 169.055599
 P1      -Pd2     -C4      -C9      : -73.602749
 P1      -Pd2     -C4      -F10     :  55.167448
 P1      -Pd2     -C5      -C4      : -78.600628
 P1      -Pd2     -C5      -C6      : 165.156178
 P1      -Pd2     -C5      -H11     :  38.653112
 P1      -C16     -C15     -H38     :  60.423601
 P1      -C16     -C15     -H39     : -63.971781
 P1      -C16     -C15     -H40     : 178.610880
 P1      -C16     -C17     -H41     : -61.557565
 P1      -C16     -C17     -H42     : 179.931233
 P1      -C16     -C17     -H43     :  60.802319
 P1      -C16     -C18     -H44     : -59.094664
 P1      -C16     -C18     -H45     :-179.623589
 P1      -C16     -C18     -H46     :  62.275757
 P1      -C19     -C20     -H47     :  58.116114
 P1      -C19     -C20     -H48     : -65.152471
 P1      -C19     -C20     -H49     : 177.243530
 P1      -C19     -C21     -H50     :  59.561348
 P1      -C19     -C21     -H51     : -62.364252
 P1      -C19     -C21     -H52     : 178.637193
 P1      -C19     -C22     -H53     : -64.845351
 P1      -C19     -C22     -H54     : 178.096263
 P1      -C19     -C22     -H55     :  59.410745
 P1      -C23     -C24     -C26     :   6.457709
 P1      -C23     -C24     -C32     :-172.406568
 P1      -C23     -C25     -H56     :-151.247671
 P1      -C23     -C25     -H57     :  81.355884
 P1      -C23     -C25     -H58     : -37.714256
 Pd2     -P1      -C16     -C15     : 164.064689
 Pd2     -P1      -C16     -C17     :  43.384917
 Pd2     -P1      -C16     -C18     : -72.784384
 Pd2     -P1      -C19     -C20     :  26.616122
 Pd2     -P1      -C19     -C21     : -94.660115
 Pd2     -P1      -C19     -C22     : 146.381420
 Pd2     -P1      -C23     -C24     :  40.002308
 Pd2     -P1      -C23     -C25     :-144.206813
 Pd2     -C4      -C5      -C6      :  92.587904
 Pd2     -C4      -C5      -H11     :-101.496949
 Pd2     -C4      -C9      -C8      : -71.447828
 Pd2     -C4      -C9      -H14     : 109.519591
 Pd2     -C5      -C4      -C9      : -97.263592
 Pd2     -C5      -C4      -F10     : 102.336045
 Pd2     -C5      -C6      -C7      :  79.957824
 Pd2     -C5      -C6      -H12     :-103.239758
 Br3     -C7      -C6      -C5      :-178.920910
 Br3     -C7      -C6      -H12     :   4.331201
 Br3     -C7      -C8      -C9      : 177.060737
 Br3     -C7      -C8      -H13     :  -1.501514
 C4      -Pd2     -P1      -C16     : 100.073085
 C4      -Pd2     -P1      -C19     : -26.147036
 C4      -Pd2     -P1      -C23     :-140.814735
 C4      -Pd2     -C5      -C6      :-116.243194
 C4      -Pd2     -C5      -H11     : 117.253740
 C4      -C5      -C6      -C7      :   3.464907
 C4      -C5      -C6      -H12     :-179.732674
 C4      -C9      -C8      -C7      :   0.134173
 C4      -C9      -C8      -H13     : 178.698884
 C5      -Pd2     -P1      -C16     : 170.185422
 C5      -Pd2     -P1      -C19     :  43.965301
 C5      -Pd2     -P1      -C23     : -70.702397
 C5      -Pd2     -C4      -C9      : 117.341652
 C5      -Pd2     -C4      -F10     :-113.888151
 C5      -C4      -C9      -C8      :   2.913388
 C5      -C4      -C9      -H14     :-176.119193
 C5      -C6      -C7      -C8      :  -0.540470
 C6      -C5      -C4      -C9      :  -4.675688
 C6      -C5      -C4      -F10     :-165.076052
 C6      -C7      -C8      -C9      :  -1.325091
 C6      -C7      -C8      -H13     :-179.887342
 C7      -C6      -C5      -H11     :-162.447253
 C7      -C8      -C9      -H14     : 179.142122
 C8      -C7      -C6      -H12     :-177.288359
 C8      -C9      -C4      -F10     : 163.633244
 C9      -C4      -C5      -H11     : 161.239459
 F10     -C4      -C5      -H11     :   0.839096
 F10     -C4      -C9      -H14     : -15.399337
 H11     -C5      -C6      -H12     :  14.355165
 H13     -C8      -C9      -H14     :  -2.293167
 C15     -C16     -P1      -C19     : -57.977571
 C15     -C16     -P1      -C23     :  56.756994
 C15     -C16     -C17     -H41     : 168.730180
 C15     -C16     -C17     -H42     :  50.218977
 C15     -C16     -C17     -H43     : -68.909937
 C15     -C16     -C18     -H44     :  71.659901
 C15     -C16     -C18     -H45     : -48.869024
 C15     -C16     -C18     -H46     :-166.969678
 C16     -P1      -C19     -C20     : -93.906048
 C16     -P1      -C19     -C21     : 144.817715
 C16     -P1      -C19     -C22     :  25.859250
 C16     -P1      -C23     -C24     : 144.559309
 C16     -P1      -C23     -C25     : -39.649812
 C17     -C16     -P1      -C19     :-178.657343
 C17     -C16     -P1      -C23     : -63.922778
 C17     -C16     -C15     -H38     :-175.418780
 C17     -C16     -C15     -H39     :  60.185837
 C17     -C16     -C15     -H40     : -57.231501
 C17     -C16     -C18     -H44     :-178.588850
 C17     -C16     -C18     -H45     :  60.882225
 C17     -C16     -C18     -H46     : -57.218429
 C18     -C16     -P1      -C19     :  65.173356
 C18     -C16     -P1      -C23     : 179.907921
 C18     -C16     -C15     -H38     : -64.445286
 C18     -C16     -C15     -H39     : 171.159331
 C18     -C16     -C15     -H40     :  53.741993
 C18     -C16     -C17     -H41     :  57.232106
 C18     -C16     -C17     -H42     : -61.279096
 C18     -C16     -C17     -H43     : 179.591989
 C19     -P1      -C23     -C24     : -94.544224
 C19     -P1      -C23     -C25     :  81.246655
 C20     -C19     -P1      -C23     : 141.891313
 C20     -C19     -C21     -H50     : -64.954754
 C20     -C19     -C21     -H51     : 173.119646
 C20     -C19     -C21     -H52     :  54.121091
 C20     -C19     -C22     -H53     :  59.211664
 C20     -C19     -C22     -H54     : -57.846722
 C20     -C19     -C22     -H55     :-176.532241
 C21     -C19     -P1      -C23     :  20.615076
 C21     -C19     -C20     -H47     :-176.975318
 C21     -C19     -C20     -H48     :  59.756098
 C21     -C19     -C20     -H49     : -57.847901
 C21     -C19     -C22     -H53     : 171.000437
 C21     -C19     -C22     -H54     :  53.942051
 C21     -C19     -C22     -H55     : -64.743467
 C22     -C19     -P1      -C23     : -98.343389
 C22     -C19     -C20     -H47     : -67.371767
 C22     -C19     -C20     -H48     : 169.359648
 C22     -C19     -C20     -H49     :  51.755650
 C22     -C19     -C21     -H50     :-175.241344
 C22     -C19     -C21     -H51     :  62.833056
 C22     -C19     -C21     -H52     : -56.165499
 C23     -C24     -C26     -C27     :-160.235098
 C23     -C24     -C26     -C31     :  16.168980
 C23     -C24     -C32     -C33     :-149.696363
 C23     -C24     -C32     -C37     :  29.285990
 C24     -C23     -C25     -H56     :  24.907935
 C24     -C23     -C25     -H57     :-102.488509
 C24     -C23     -C25     -H58     : 138.441351
 C24     -C26     -C27     -C28     : 178.726145
 C24     -C26     -C27     -H59     :   2.308983
 C24     -C26     -C31     -C30     :-178.439997
 C24     -C26     -C31     -H63     :   2.536328
 C24     -C32     -C33     -C34     : 179.109877
 C24     -C32     -C33     -H64     :   2.957507
 C24     -C32     -C37     -C36     :-179.550474
 C24     -C32     -C37     -H68     :   3.728784
 C25     -C23     -C24     -C26     :-168.909534
 C25     -C23     -C24     -C32     :  12.226189
 C26     -C24     -C32     -C33     :  31.347763
 C26     -C24     -C32     -C37     :-149.669883
 C26     -C27     -C28     -C29     :  -0.866591
 C26     -C27     -C28     -H60     :-179.597121
 C26     -C31     -C30     -C29     :   0.617818
 C26     -C31     -C30     -H62     :-179.415086
 C27     -C26     -C24     -C32     :  18.659704
 C27     -C26     -C31     -C30     :  -1.758124
 C27     -C26     -C31     -H63     : 179.218201
 C27     -C28     -C29     -C30     :  -0.456317
 C27     -C28     -C29     -H61     :-179.853482
 C28     -C27     -C26     -C31     :   1.877878
 C28     -C29     -C30     -C31     :   0.577604
 C28     -C29     -C30     -H62     :-179.389480
 C29     -C28     -C27     -H59     : 175.812513
 C29     -C30     -C31     -H63     : 179.702229
 C30     -C29     -C28     -H60     : 178.288383
 C31     -C26     -C24     -C32     :-164.936218
 C31     -C26     -C27     -H59     :-174.539284
 C31     -C30     -C29     -H61     : 179.975530
 C32     -C33     -C34     -C35     :   0.421801
 C32     -C33     -C34     -H65     :-179.740833
 C32     -C37     -C36     -C35     :   0.549223
 C32     -C37     -C36     -H67     :-179.299700
 C33     -C32     -C37     -C36     :  -0.501907
 C33     -C32     -C37     -H68     :-177.222650
 C33     -C34     -C35     -C36     :  -0.381911
 C33     -C34     -C35     -H66     : 179.230315
 C34     -C33     -C32     -C37     :   0.016620
 C34     -C35     -C36     -C37     :  -0.075670
 C34     -C35     -C36     -H67     : 179.775393
 C35     -C34     -C33     -H64     : 176.785067
 C35     -C36     -C37     -H68     : 177.490866
 C36     -C35     -C34     -H65     : 179.779681
 C37     -C32     -C33     -H64     :-176.135750
 C37     -C36     -C35     -H66     :-179.688441
 H59     -C27     -C28     -H60     :  -2.918018
 H60     -C28     -C29     -H61     :  -1.108782
 H61     -C29     -C30     -H62     :   0.008447
 H62     -C30     -C31     -H63     :  -0.330674
 H64     -C33     -C34     -H65     :  -3.377567
 H65     -C34     -C35     -H66     :  -0.608094
 H66     -C35     -C36     -H67     :   0.162623
 H67     -C36     -C37     -H68     :  -2.358057
 
  nuclear repulsion energy.......          4082.423770314 hartrees
  
  Detected an organometallic with only one TM atom. 
  
  
 
  Will use High-Quality Initial guess for organometallics
       including d-d repulsion (iguess=30)
 
 Non-default options chosen:
   SCF calculation type: DFT(b3pw91-d3)              
   DFT=Becke_3_Parameter/HF+Slater+Becke88+PW91+PW-GGAIIC (B3PW91-D3)
   Geometry will be optimized in redundant internal coordinates
   Solvation energy will be computed using PBF
     -solute cavity energy will not be included
     -surface area terms will not be included
   Vibrational frequencies and related properties will be computed
      from analytic second derivatives
   IR intensities will be computed
   Thermochemical properties will be computed
   Maximum number of geometry steps: 100
   Scaling standard convergence criteria by a factor of   5.00
   Solvent: benzene                                                         
   Internal dielectric constant:    1.000
   Continuum dielectric constant:   2.283
   Solvent probe molecule radius:   2.600
  
 Non-default print settings:
     11=  2
  
 Temporary integer options set:
     21= -1  73=  2
  
  atom       vdw   vdw2    cov     mass  grid  daf  charge   basis
  P1        2.147  2.074  1.060   30.974    Y    Y      Y    ps_6-31g*
  Pd2       1.450  1.450  1.280  105.903    Y    Y      Y    lacv3p*
  Br3       2.095  2.095  1.140   78.918    Y    Y      Y    lav3p*
  C4        1.949  1.900  0.770   12.000    Y    Y      Y    ps_6-31g*
  C5        1.949  1.900  0.770   12.000    Y    Y      Y    ps_6-31g*
  C6        1.949  1.900  0.770   12.000    Y    Y      Y    ps_6-31g*
  C7        1.949  1.900  0.770   12.000    Y    Y      Y    ps_6-31g*
  C8        1.949  1.900  0.770   12.000    Y    Y      Y    ps_6-31g*
  C9        1.949  1.900  0.770   12.000    Y    Y      Y    ps_6-31g*
  F10       1.736  1.682  0.720   18.998    Y    Y      Y    ps_6-31g*
  H11       1.597  1.150  0.320    1.008    Y    Y      Y    ps_6-31g*
  H12       1.597  1.150  0.320    1.008    Y    Y      Y    ps_6-31g*
  H13       1.597  1.150  0.320    1.008    Y    Y      Y    ps_6-31g*
  H14       1.597  1.150  0.320    1.008    Y    Y      Y    ps_6-31g*
  C15       1.949  1.900  0.770   12.000    Y    Y      Y    ps_6-31g*
  C16       1.949  1.900  0.770   12.000    Y    Y      Y    ps_6-31g*
  C17       1.949  1.900  0.770   12.000    Y    Y      Y    ps_6-31g*
  C18       1.949  1.900  0.770   12.000    Y    Y      Y    ps_6-31g*
  C19       1.949  1.900  0.770   12.000    Y    Y      Y    ps_6-31g*
  C20       1.949  1.900  0.770   12.000    Y    Y      Y    ps_6-31g*
  C21       1.949  1.900  0.770   12.000    Y    Y      Y    ps_6-31g*
  C22       1.949  1.900  0.770   12.000    Y    Y      Y    ps_6-31g*
  C23       1.949  1.900  0.770   12.000    Y    Y      Y    ps_6-31g*
  C24       1.949  1.900  0.770   12.000    Y    Y      Y    ps_6-31g*
  C25       1.949  1.900  0.770   12.000    Y    Y      Y    ps_6-31g*
  C26       1.949  1.900  0.770   12.000    Y    Y      Y    ps_6-31g*
  C27       1.949  1.900  0.770   12.000    Y    Y      Y    ps_6-31g*
  C28       1.949  1.900  0.770   12.000    Y    Y      Y    ps_6-31g*
  C29       1.949  1.900  0.770   12.000    Y    Y      Y    ps_6-31g*
  C30       1.949  1.900  0.770   12.000    Y    Y      Y    ps_6-31g*
  C31       1.949  1.900  0.770   12.000    Y    Y      Y    ps_6-31g*
  C32       1.949  1.900  0.770   12.000    Y    Y      Y    ps_6-31g*
  C33       1.949  1.900  0.770   12.000    Y    Y      Y    ps_6-31g*
  C34       1.949  1.900  0.770   12.000    Y    Y      Y    ps_6-31g*
  C35       1.949  1.900  0.770   12.000    Y    Y      Y    ps_6-31g*
  C36       1.949  1.900  0.770   12.000    Y    Y      Y    ps_6-31g*
  C37       1.949  1.900  0.770   12.000    Y    Y      Y    ps_6-31g*
  H38       1.597  1.150  0.320    1.008    Y    Y      Y    ps_6-31g*
  H39       1.597  1.150  0.320    1.008    Y    Y      Y    ps_6-31g*
  H40       1.597  1.150  0.320    1.008    Y    Y      Y    ps_6-31g*
  H41       1.597  1.150  0.320    1.008    Y    Y      Y    ps_6-31g*
  H42       1.597  1.150  0.320    1.008    Y    Y      Y    ps_6-31g*
  H43       1.597  1.150  0.320    1.008    Y    Y      Y    ps_6-31g*
  H44       1.597  1.150  0.320    1.008    Y    Y      Y    ps_6-31g*
  H45       1.597  1.150  0.320    1.008    Y    Y      Y    ps_6-31g*
  H46       1.597  1.150  0.320    1.008    Y    Y      Y    ps_6-31g*
  H47       1.597  1.150  0.320    1.008    Y    Y      Y    ps_6-31g*
  H48       1.597  1.150  0.320    1.008    Y    Y      Y    ps_6-31g*
  H49       1.597  1.150  0.320    1.008    Y    Y      Y    ps_6-31g*
  H50       1.597  1.150  0.320    1.008    Y    Y      Y    ps_6-31g*
  H51       1.597  1.150  0.320    1.008    Y    Y      Y    ps_6-31g*
  H52       1.597  1.150  0.320    1.008    Y    Y      Y    ps_6-31g*
  H53       1.597  1.150  0.320    1.008    Y    Y      Y    ps_6-31g*
  H54       1.597  1.150  0.320    1.008    Y    Y      Y    ps_6-31g*
  H55       1.597  1.150  0.320    1.008    Y    Y      Y    ps_6-31g*
  H56       1.597  1.150  0.320    1.008    Y    Y      Y    ps_6-31g*
  H57       1.597  1.150  0.320    1.008    Y    Y      Y    ps_6-31g*
  H58       1.597  1.150  0.320    1.008    Y    Y      Y    ps_6-31g*
  H59       1.597  1.150  0.320    1.008    Y    Y      Y    ps_6-31g*
  H60       1.597  1.150  0.320    1.008    Y    Y      Y    ps_6-31g*
  H61       1.597  1.150  0.320    1.008    Y    Y      Y    ps_6-31g*
  H62       1.597  1.150  0.320    1.008    Y    Y      Y    ps_6-31g*
  H63       1.597  1.150  0.320    1.008    Y    Y      Y    ps_6-31g*
  H64       1.597  1.150  0.320    1.008    Y    Y      Y    ps_6-31g*
  H65       1.597  1.150  0.320    1.008    Y    Y      Y    ps_6-31g*
  H66       1.597  1.150  0.320    1.008    Y    Y      Y    ps_6-31g*
  H67       1.597  1.150  0.320    1.008    Y    Y      Y    ps_6-31g*
  H68       1.597  1.150  0.320    1.008    Y    Y      Y    ps_6-31g*
 
  atom      formal  2spin      esp    mulk    frag
  P1           0       0        Y    0.000       0
  Pd2          0       0        Y    0.000       0
  Br3          0       0        Y    0.000       0
  
  end of program pre
   
 Time(pre)  user:       1.102  user+sys:       1.102  wallclock:       1.126
  
  start of program onee
  
  smallest eigenvalue of S:    4.231E-04
  number of canonical orbitals.....          546
  end of program onee
   
 Time(onee)  user:       6.397  user+sys:       6.397  wallclock:       4.545
  
  start of program hfig
  
  initial wavefunction generated automatically from atomic wavefunctions
  Only one possible d-orb occupation 
  Skip d-d repulsion considerations 
 
  Irreducible     Total no   No of occupied orbitals 
  representation  orbitals   Shell_1  Shell_2    ...
  No Symm          546        129
  ------------------------
  Orbital occupation/shell    1.000
 
  end of program hfig
   
 Time(hfig)  user:       1.032  user+sys:       1.032  wallclock:       1.113
  
  start of program probe
  
  end of program probe
   
 Time(probe)  user:       0.548  user+sys:       0.548  wallclock:       0.463
  
  start of program grid
  
   grid     grid set  grid #  grid sym
  ------    --------  ------  --------
  coarse        0        0        1
  medium        2        1        1
  fine          0        0        1
  ultrafine     4        2        1
  charge       -1        3        1
  gradient      4        2        1
  density       0        0        1
  DFT-fine    -11        4        1
  DFT-med.    -10        5        1
  DFT-grad    -12        6        1
  DFT-der2     -8        7        1
  DFT-cphf     -9        8        1
  LMP2-enrg     4        2        1
  LMP2-grad     2        1        1
  DFT-cphf2   -15        9        1
  PBF-dens      0        0        1
  plotting      0        0        1
  Rel-grad    -17        0        1
  
  number of gridpoints: 
     atom           P1         Pd2         Br3          C4          C5          C6          C7
  grid # 1         607         370         513          80          92          95          93
  grid # 2         424         320         483         332         324         324         390
  grid # 3           7         258         444          21          21          27          35
  grid # 4        8714        8714        8714        8714        8714        8714        8714
  grid # 5        1192        1192        1192        1192        1192        1192        1192
  grid # 6        9132        9132        9132        5922        5922        5922        5922
  grid # 7       23034       32968       11582       13950       13950       13950       13950
  grid # 8         722        1150         694         748         748         748         748
  grid # 9         366        2198         358         394         394         394         394
   
  number of gridpoints: 
     atom           C8          C9         F10         H11         H12         H13         H14
  grid # 1          95          94         568         113         117         117         115
  grid # 2         323         324         546         457         467         466         465
  grid # 3          32          28         169         258         356         354         359
  grid # 4        8714        8714        8714        8714        8714        8714        8714
  grid # 5        1192        1192        1192        1192        1192        1192        1192
  grid # 6        5922        5922        5922        5922        5922        5922        5922
  grid # 7       13950       13950       23190       15206       15206       15206       15206
  grid # 8         748         748         770         786         786         786         786
  grid # 9         394         394         420         420         420         420         420
   
  number of gridpoints: 
     atom          C15         C16         C17         C18         C19         C20         C21
  grid # 1          82          88          80          82          88          80          82
  grid # 2         245         367         244         240         371         247         246
  grid # 3           6           6           6           6           6           6           6
  grid # 4        8714        8714        8714        8714        8714        8714        8714
  grid # 5        1192        1192        1192        1192        1192        1192        1192
  grid # 6        5922        5922        5922        5922        5922        5922        5922
  grid # 7       13950       13950       13950       13950       13950       13950       13950
  grid # 8         748         748         748         748         748         748         748
  grid # 9         394         394         394         394         394         394         394
   
  number of gridpoints: 
     atom          C22         C23         C24         C25         C26         C27         C28
  grid # 1          82          87          99          79          97          93          96
  grid # 2         245         389         362         241         364         324         324
  grid # 3           6           9          22           6          16          18          32
  grid # 4        8714        8714        8714        8714        8714        8714        8714
  grid # 5        1192        1192        1192        1192        1192        1192        1192
  grid # 6        5922        5922        5922        5922        5922        5922        5922
  grid # 7       13950       13950       13950       13950       13950       13950       13950
  grid # 8         748         748         748         748         748         748         748
  grid # 9         394         394         394         394         394         394         394
   
  number of gridpoints: 
     atom          C29         C30         C31         C32         C33         C34         C35
  grid # 1          96          96          93          97          94          96          97
  grid # 2         322         324         321         361         320         327         325
  grid # 3          30          26          15          20          25          44          52
  grid # 4        8714        8714        8714        8714        8714        8714        8714
  grid # 5        1192        1192        1192        1192        1192        1192        1192
  grid # 6        5922        5922        5922        5922        5922        5922        5922
  grid # 7       13950       13950       13950       13950       13950       13950       13950
  grid # 8         748         748         748         748         748         748         748
  grid # 9         394         394         394         394         394         394         394
   
  number of gridpoints: 
     atom          C36         C37         H38         H39         H40         H41         H42
  grid # 1          96          94         103         104         107         103         107
  grid # 2         327         324         431         430         440         435         445
  grid # 3          45          25         154         170         254          99         248
  grid # 4        8714        8714        8714        8714        8714        8714        8714
  grid # 5        1192        1192        1192        1192        1192        1192        1192
  grid # 6        5922        5922        5922        5922        5922        5922        5922
  grid # 7       13950       13950       15206       15206       15206       15206       15206
  grid # 8         748         748         786         786         786         786         786
  grid # 9         394         394         420         420         420         420         420
   
  number of gridpoints: 
     atom          H43         H44         H45         H46         H47         H48         H49
  grid # 1         105         101         107         103         106         103         107
  grid # 2         443         428         445         435         440         435         443
  grid # 3         209         145         268         140         195         180         269
  grid # 4        8714        8714        8714        8714        8714        8714        8714
  grid # 5        1192        1192        1192        1192        1192        1192        1192
  grid # 6        5922        5922        5922        5922        5922        5922        5922
  grid # 7       15206       15206       15206       15206       15206       15206       15206
  grid # 8         786         786         786         786         786         786         786
  grid # 9         420         420         420         420         420         420         420
   
  number of gridpoints: 
     atom          H50         H51         H52         H53         H54         H55         H56
  grid # 1         103         104         107         104         107         101         106
  grid # 2         433         432         444         426         443         425         437
  grid # 3         166         174         270         152         262         155         226
  grid # 4        8714        8714        8714        8714        8714        8714        8714
  grid # 5        1192        1192        1192        1192        1192        1192        1192
  grid # 6        5922        5922        5922        5922        5922        5922        5922
  grid # 7       15206       15206       15206       15206       15206       15206       15206
  grid # 8         786         786         786         786         786         786         786
  grid # 9         420         420         420         420         420         420         420
   
  number of gridpoints: 
     atom          H57         H58         H59         H60         H61         H62         H63
  grid # 1         100         100         108         118         117         109          93
  grid # 2         420         417         440         465         469         446         414
  grid # 3         131          92         230         405         416         248          20
  grid # 4        8714        8714        8714        8714        8714        8714        8714
  grid # 5        1192        1192        1192        1192        1192        1192        1192
  grid # 6        5922        5922        5922        5922        5922        5922        5922
  grid # 7       15206       15206       15206       15206       15206       15206       15206
  grid # 8         786         786         786         786         786         786         786
  grid # 9         420         420         420         420         420         420         420
   
  number of gridpoints: 
     atom          H64         H65         H66         H67         H68       total
  grid # 1         109         118         118         118         108        8447
  grid # 2         446         465         467         466         439       26449
  grid # 3         250         416         431         416         207        9800
  grid # 4        8714        8714        8714        8714        8714      592552
  grid # 5        1192        1192        1192        1192        1192       81056
  grid # 6        5922        5922        5922        5922        5922      412326
  grid # 7       15206       15206       15206       15206       15206     1027534
  grid # 8         786         786         786         786         786       52538
  grid # 9         420         420         420         420         420       29468
   
  end of program grid
   
 Time(grid)  user:     219.897  user+sys:     219.897  wallclock:     112.960
  
  start of program rwr
  
  end of program rwr
   
 Time(rwr)  user:      15.110  user+sys:      15.110  wallclock:      18.827
  
  start of program scf
  
 number of electrons..........        258
 number of alpha electrons....        129
 number of beta electrons.....        129
 number of orbitals, total....        546
 number of doubly-occ'd orbs..        129
 number of open shell orbs....          0
 number of occupied orbitals..        129
 number of virtual orbitals...        417
 number of hamiltonians.......          1
 number of shells.............          1
 SCF type: DFT=Becke_3_Parameter/HF+Slater+Becke88+PW91+PW-GGAIIC (B3PW91-D3)
 Energy computed using pseudospectral method.
 Convergence Criterion:
    Energy (econv):       1.00E-05
    RMS density (dconv):  5.00E-06
  
       i  u  d  i  g                   
       t  p  i  c  r                                 RMS    maximum
       e  d  i  u  i                       energy  density   DIIS  
       r  t  s  t  d       total energy    change  change    error 
  
etot    1  N  N  5  M   -1702.93686532014           2.3E-03  2.1E-01
etot    2  Y  Y  6  M   -1705.69198834140  2.8E+00  3.3E-03  1.6E-01
etot    3  Y  Y  6  M   -1706.15903939799  4.7E-01  1.7E-03  5.8E-02
etot    4  N  Y  2  U   -1706.65629128558  5.0E-01  1.1E-03  4.1E-02
etot    5  Y  Y  6  M   -1706.75119842315  9.5E-02  6.1E-04  2.3E-02
etot    6  N  Y  2  U   -1706.75817324265  7.0E-03  4.7E-04  9.8E-03
etot    7  Y  Y  6  M   -1706.76076246761  2.6E-03  1.2E-04  3.2E-03
etot    8  Y  Y  6  M   -1706.76384764692  3.1E-03  2.7E-05  7.2E-04
etot    9  N  Y  2  U   -1706.76488365133  1.0E-03  9.3E-06  1.7E-04
etot   10  N  Y  2  U   -1706.76489102699  7.4E-06  4.5E-06  7.1E-05
etot   11  N  N  2  U   -1706.76489285740  1.8E-06  0.0E+00  0.0E+00
 
  Computing the dispersion energy correction and its gradients...
  
  
 Energy components, in hartrees:
   (A)  Nuclear repulsion............    4082.42377031390
   (E)  Total one-electron terms.....  -10511.37530870994
   (F)    Electron-nuclear...........  -12119.33743641299
   (H)    Kinetic....................    1607.96212770304
   (I)  Total two-electron terms.....    4722.18664553864
   (J)    Coulomb....................    4941.21808490253
   (K)    Exchange+Correlation.......    -219.03143936389
   (L)  Electronic energy............   -5789.18866317130  (E+I)
   (N0) D3 correction................      -0.11664179718
   (N)  Total energy.................   -1706.88153465459  (A+L+N0)
   (O)  Gas phase energy.............   -1706.88153465459
  
 SCFE: SCF energy: DFT(b3pw91-d3)     -1706.88153465459 hartrees   iterations:  11
  
 
 HOMO energy:    -0.16757
 LUMO energy:    -0.05894
 
  Orbital energies (hartrees): 
   -77.06597   -24.68235   -10.26406   -10.22312   -10.20878   -10.20440
   -10.20337   -10.19488   -10.19330   -10.18987   -10.18985   -10.18507
   -10.18109   -10.18106   -10.18048   -10.18014   -10.17950   -10.17917
   -10.17874   -10.17239   -10.17208   -10.17190   -10.17116   -10.17069
   -10.17024   -10.16823   -10.16610   -10.16433   -10.16375   -10.16071
   -10.15940    -6.56689    -4.72502    -4.72467    -4.72109    -3.27167
    -2.01031    -1.99167    -1.98408    -1.21153    -0.87266    -0.87166
    -0.85142    -0.83342    -0.81310    -0.81191    -0.79178    -0.76372
    -0.76283    -0.74959    -0.74442    -0.73682    -0.71579    -0.69438
    -0.68948    -0.68799    -0.68413    -0.67927    -0.65757    -0.62976
    -0.61544    -0.60562    -0.60153    -0.59692    -0.59128    -0.56158
    -0.55007    -0.54226    -0.52711    -0.51293    -0.49356    -0.48985
    -0.47446    -0.47371    -0.46929    -0.46449    -0.46354    -0.45386
    -0.45161    -0.44737    -0.44610    -0.44429    -0.43976    -0.43595
    -0.43253    -0.42800    -0.42415    -0.42023    -0.41740    -0.40628
    -0.40542    -0.39778    -0.39399    -0.39179    -0.38726    -0.38158
    -0.38009    -0.37483    -0.37176    -0.36681    -0.36520    -0.36288
    -0.36010    -0.35971    -0.35338    -0.35116    -0.34190    -0.33732
    -0.33629    -0.33204    -0.32982    -0.32762    -0.31758    -0.31159
    -0.30949    -0.29833    -0.29310    -0.28096    -0.26073    -0.25689
    -0.25341    -0.25186    -0.24761    -0.22239    -0.21690    -0.20929
    -0.20593    -0.18699    -0.16757    -0.05894    -0.01913    -0.01639
    -0.01231    -0.00505     0.00257     0.00455     0.02637     0.04251
     0.04910
 
  end of program scf
   
 Time(scf)  user:     324.240  user+sys:     324.240  wallclock:     177.425
  
  start of program der1a
  
  end of program der1a
   
 Time(der1a)  user:      19.905  user+sys:      19.905  wallclock:      10.573
  
  start of program rwr
  
  end of program rwr
   
 Time(rwr)  user:      16.219  user+sys:      16.219  wallclock:      21.534
  
  start of program der1b
  
   
  forces (hartrees/bohr) : total     
   
 atom  label           x              y              z
 ---- --------   -------------  -------------  -------------
    1 P1         -1.459368E-02   5.082616E-03   2.520678E-02
    2 Pd2        -1.289301E-02   4.821912E-03  -1.102902E-03
    3 Br3        -1.709169E-03   5.142664E-04  -4.372162E-04
    4 C4         -5.965268E-04   3.614129E-03   6.351927E-03
    5 C5          8.310368E-04   3.888943E-05   5.043263E-03
    6 C6         -2.188774E-03   1.178489E-03  -8.333849E-04
    7 C7          3.263361E-03   1.149593E-03  -4.264876E-04
    8 C8          8.340898E-04  -2.458946E-03   3.524731E-04
    9 C9         -2.761652E-03  -8.795224E-04  -1.261967E-03
   10 F10         7.019701E-03   1.204814E-03   1.492026E-03
   11 H11         2.268908E-04   7.213819E-04  -1.846713E-03
   12 H12         6.903844E-05   7.876115E-04  -2.604682E-04
   13 H13        -7.539738E-04  -8.373806E-04   6.085775E-04
   14 H14        -4.904977E-04  -4.922211E-04   3.031367E-04
   15 C15         6.668833E-03  -8.849950E-03  -1.823568E-02
   16 C16         4.279254E-02  -7.151517E-03  -2.215954E-02
   17 C17        -5.958682E-03  -1.184988E-02   5.934975E-03
   18 C18        -1.151667E-02   1.930612E-02   1.008749E-02
   19 C19        -1.777454E-02   1.918959E-02  -2.303997E-02
   20 C20        -2.971676E-03   6.761358E-03   1.164299E-02
   21 C21        -8.851320E-03  -1.564687E-02   5.495677E-03
   22 C22         1.827874E-02   3.928143E-03  -1.020457E-02
   23 C23         1.442463E-02  -6.661387E-04  -1.955068E-02
   24 C24        -3.460827E-03   2.172575E-03   1.209137E-02
   25 C25         4.185444E-03   9.553410E-04  -2.226746E-02
   26 C26        -4.767634E-03  -1.046684E-02   1.553125E-02
   27 C27        -4.801927E-04  -1.351653E-02   1.349038E-02
   28 C28         1.258301E-03   3.731844E-03   9.137910E-04
   29 C29         7.708463E-04   1.250932E-03  -1.264216E-03
   30 C30        -5.288668E-03  -2.872592E-03  -3.356235E-04
   31 C31         4.051092E-04   2.060715E-02  -3.341356E-03
   32 C32        -1.531259E-02  -1.304302E-02  -5.639163E-03
   33 C33        -1.831314E-02  -4.043431E-04  -9.031572E-03
   34 C34         3.497611E-03   5.273532E-04   7.014163E-04
   35 C35         1.495294E-03   2.768786E-03   1.281337E-03
   36 C36        -6.956401E-03  -3.353798E-04   1.031196E-03
   37 C37         2.217997E-02  -7.339212E-03   3.169885E-03
   38 H38        -8.469403E-04  -4.969215E-03   6.396929E-03
   39 H39        -1.950351E-03   1.356242E-02   4.400272E-03
   40 H40        -8.768342E-03  -3.667168E-04   6.126746E-03
   41 H41        -3.653742E-03  -3.146563E-03  -4.809371E-03
   42 H42        -8.401596E-03   2.414592E-03  -4.819802E-03
   43 H43         1.235167E-03   7.853374E-03   4.414617E-03
   44 H44         4.734120E-03  -5.770200E-03   5.217713E-03
   45 H45        -6.541531E-03  -7.533820E-03  -2.978772E-03
   46 H46        -2.368251E-03  -2.936518E-03  -1.030932E-02
   47 H47        -6.931037E-03  -5.027083E-03   1.059493E-03
   48 H48         9.750501E-03  -3.618459E-04  -3.434599E-03
   49 H49         7.141064E-03  -9.490556E-03   3.050684E-03
   50 H50         9.364715E-03   1.676779E-03  -6.106537E-03
   51 H51        -1.045159E-03   7.457351E-03   5.291634E-03
   52 H52         8.912510E-03   7.952466E-04   4.601439E-03
   53 H53        -7.211238E-03  -1.072421E-02  -1.550569E-03
   54 H54        -1.672478E-03  -4.600903E-03   8.788113E-03
   55 H55         8.301561E-05   7.193933E-03   5.843939E-03
   56 H56         7.498696E-03   3.843790E-05   1.217816E-02
   57 H57        -1.142007E-02   2.173105E-03  -6.875969E-03
   58 H58         3.015910E-03  -2.968259E-03   1.157882E-02
   59 H59         3.888957E-03   8.229781E-03  -3.191705E-03
   60 H60         5.732182E-03   3.773953E-03  -7.336647E-03
   61 H61         5.519117E-03  -3.356333E-03  -7.577819E-03
   62 H62         2.144531E-03  -1.261645E-02  -4.511117E-03
   63 H63        -4.766778E-03  -5.017907E-03  -1.408598E-03
   64 H64         1.179875E-02  -2.768496E-03  -3.875126E-03
   65 H65         1.039491E-02   6.472237E-03  -5.338276E-04
   66 H66         1.193436E-03   6.949456E-03   1.399459E-03
   67 H67        -6.016852E-03   8.886642E-03   4.133948E-03
   68 H68        -1.351814E-02   4.493865E-04   4.495136E-03
 -------------   -------------  -------------  -------------
     total       -2.143111E-03  -2.258368E-04  -8.516915E-04
   
  end of program der1b
   
 Time(der1b)  user:     123.802  user+sys:     123.802  wallclock:      66.168
  
  start of program geopt
  
 ----------------------------------------------------------------------------
  Geometry optimization step  1
  Total energy:     -1706.88153465459 hartrees
 ----------------------------------------------------------------------------
  
  
  Level shifts adjusted to satisfy step-size constraints
   Step size:    0.3000648
   Cos(theta):   0.8948267
   Final level shift:  -2.3209925E-01
  
  gradient maximum:        4.4569E-02 .  (  2.2500E-03 )
  gradient rms:            1.0519E-02 .  (  1.5000E-03 )
  displacement maximum:    1.0266E-01 .  (  9.0000E-03 )
  displacement rms:        1.9698E-02 .  (  6.0000E-03 )
  
  predicted energy change:  -3.1956E-02
  step size:     0.30003
  trust radius:  0.30000
  
  molecular structure not yet converged...
  
  center of mass moved by:
     x:    -8.1962E-03     y:     6.2631E-02     z:     1.6295E-02
  
  new geometry: 
                                   angstroms
  atom               x                 y                 z
  P1           -0.0330125116     -0.0138202615      0.0303588954 
  Pd2          -0.0302273627      0.0413114314      2.3693348442 
  Br3           3.8678182787      0.0949380845      5.4230734998 
  C4           -0.4525034328      1.4291059064      4.0419908130 
  C5           -0.2653019630      0.0924264005      4.4959449819 
  C6            1.0476334600     -0.2884658666      4.8938176011 
  C7            2.0647127609      0.6521517109      4.8996625359 
  C8            1.8600150688      1.9813194553      4.5094500011 
  C9            0.6009051156      2.3688877679      4.0786115756 
  F10          -1.7099957366      1.9354024919      3.9437440481 
  H11          -1.1246547586     -0.5265261585      4.7466120515 
  H12           1.2254324560     -1.3005985057      5.2416625867 
  H13           2.6795464627      2.6922360650      4.5253530330 
  H14           0.3960199160      3.3930227893      3.7828386209 
  C15           2.3640511990     -0.2015705335     -1.7266431883 
  C16           1.8153081954      0.1429780786     -0.3193208578 
  C17           2.5627618698     -0.7928247147      0.6613964026 
  C18           2.2125446203      1.5937587006      0.0052936854 
  C19          -1.0295416187      1.1081552535     -1.1622583078 
  C20          -1.3401832107      2.4471975848     -0.4610092762 
  C21          -2.3601371952      0.4455763099     -1.5908261666 
  C22          -0.2847313154      1.4466913558     -2.4680768931 
  C23          -0.6239821570     -1.7155570811     -0.4017143232 
  C24          -1.6059925394     -2.4502536415      0.2243377589 
  C25           0.0662628540     -2.2021175413     -1.6598892596 
  C26          -2.5243261590     -1.9275473184      1.2872994993 
  C27          -3.1728155278     -2.8054595839      2.1877704521 
  C28          -4.0217115998     -2.3732224139      3.2024472692 
  C29          -4.2636217527     -1.0106266566      3.3910473167 
  C30          -3.6272502913     -0.1111486851      2.5434928628 
  C31          -2.7815959461     -0.5666504591      1.5302717078 
  C32          -1.8258070117     -3.8835447054     -0.1526438747 
  C33          -3.1277856684     -4.4265337220     -0.2024810823 
  C34          -3.3855743225     -5.7487641044     -0.5531239248 
  C35          -2.3345337785     -6.6074023840     -0.8685419159 
  C36          -1.0324894766     -6.1091062740     -0.8392954225 
  C37          -0.7955131467     -4.7796075741     -0.4930090902 
  H38           1.9475193829      0.4104493258     -2.5339303310 
  H39           2.2234512467     -1.2614153298     -1.9955498764 
  H40           3.4546706490     -0.0303856860     -1.7632133527 
  H41           2.3849563745     -0.5166670466      1.7134983885 
  H42           3.6503654453     -0.7313865063      0.4969240229 
  H43           2.2651074954     -1.8450362361      0.5173853151 
  H44           1.6674731519      2.3334232746     -0.6035371944 
  H45           3.2879588790      1.7518778122     -0.1726459906 
  H46           2.0198845137      1.8356893879      1.0650481090 
  H47          -0.4220080666      2.9651440943     -0.1460612220 
  H48          -1.9863890269      2.3218888937      0.4229493734 
  H49          -1.8777442519      3.1260707231     -1.1476239013 
  H50          -3.0280632401      0.2043196545     -0.7498623389 
  H51          -2.1976582454     -0.4856252625     -2.1549212112 
  H52          -2.9238333654      1.1266009943     -2.2482513339 
  H53           0.6238798316      2.0477753584     -2.2915346460 
  H54          -0.9186804795      2.0640291621     -3.1259828175 
  H55          -0.0138800609      0.5534415076     -3.0504409076 
  H56          -0.5287001507     -2.9197759313     -2.2465478385 
  H57           1.0725829512     -2.6105145613     -1.4624665078 
  H58           0.2079926614     -1.3616667712     -2.3604407669 
  H59          -2.9844372835     -3.8769588224      2.1574473979 
  H60          -4.4848436612     -3.1055778384      3.8678498374 
  H61          -4.9267604004     -0.6590203860      4.1853383199 
  H62          -3.7796431431      0.9609608624      2.6606919243 
  H63          -2.3520451670      0.2014145863      0.9020711656 
  H64          -3.9966620255     -3.7919494243     -0.0198273800 
  H65          -4.4170790412     -6.1116033685     -0.5793423323 
  H66          -2.5239300148     -7.6489690102     -1.1327440795 
  H67          -0.1926663256     -6.7657983529     -1.0798780508 
  H68           0.2503950886     -4.4780729499     -0.4338301883 
   
 
  bond lengths (angstroms):
 
 P1      -Pd2     :   2.339627      P1      -C16     :   1.887631
 P1      -C19     :   1.916829      P1      -C23     :   1.852523
 Pd2     -C4      :   2.214062      Pd2     -C5      :   2.140174
 Br3     -C7      :   1.958478      C4      -C5      :   1.424019
 C4      -C9      :   1.412162      C4      -F10     :   1.359145
 C5      -C6      :   1.423791      C5      -H11     :   1.088312
 C6      -C7      :   1.385369      C6      -H12     :   1.084906
 C7      -C8      :   1.400305      C8      -C9      :   1.386070
 C8      -H13     :   1.085029      C9      -H14     :   1.085501
 C15     -C16     :   1.549319      C15     -H38     :   1.095345
 C15     -H39     :   1.102429      C15     -H40     :   1.104578
 C16     -C17     :   1.547973      C16     -C18     :   1.538810
 C17     -H41     :   1.102178      C17     -H42     :   1.101684
 C17     -H43     :   1.102944      C18     -H44     :   1.102217
 C18     -H45     :   1.101445      C18     -H46     :   1.103960
 C19     -C20     :   1.543141      C19     -C21     :   1.546986
 C19     -C22     :   1.540945      C20     -H47     :   1.100230
 C20     -H48     :   1.102119      C20     -H49     :   1.105115
 C21     -H50     :   1.100704      C21     -H51     :   1.100790
 C21     -H52     :   1.101706      C22     -H53     :   1.103650
 C22     -H54     :   1.102650      C22     -H55     :   1.100183
 C23     -C24     :   1.376977      C23     -C25     :   1.515316
 C24     -C26     :   1.498815      C24     -C32     :   1.498251
 C25     -H56     :   1.101446      C25     -H57     :   1.103832
 C25     -H58     :   1.103276      C26     -C27     :   1.414962
 C26     -C31     :   1.406152      C27     -C28     :   1.391770
 C27     -H59     :   1.088355      C28     -C29     :   1.396695
 C28     -H60     :   1.092518      C29     -C30     :   1.390100
 C29     -H61     :   1.092830      C30     -C31     :   1.396148
 C30     -H62     :   1.089210      C31     -H63     :   1.081237
 C32     -C33     :   1.411549      C32     -C37     :   1.407225
 C33     -C34     :   1.392012      C33     -H64     :   1.091332
 C34     -C35     :   1.393354      C34     -H65     :   1.093774
 C35     -C36     :   1.394444      C35     -H66     :   1.091116
 C36     -C37     :   1.394144      C36     -H67     :   1.092899
 C37     -H68     :   1.090114
 
  bond angles:
 
 C16     -P1      -Pd2     : 100.490549  C19     -P1      -Pd2     : 127.505316
 C19     -P1      -C16     : 110.192684  C23     -P1      -Pd2     : 104.785209
 C23     -P1      -C16     : 110.210082  C23     -P1      -C19     : 103.104284
 C4      -Pd2     -P1      : 140.336154  C5      -Pd2     -P1      : 173.625702
 C5      -Pd2     -C4      :  38.130998  C5      -C4      -Pd2     :  68.123553
 C9      -C4      -Pd2     : 107.124898  C9      -C4      -C5      : 121.221298
 F10     -C4      -Pd2     : 110.814514  F10     -C4      -C5      : 119.625912
 F10     -C4      -C9      : 116.368004  C4      -C5      -Pd2     :  73.745449
 C6      -C5      -Pd2     :  99.787736  C6      -C5      -C4      : 117.478727
 H11     -C5      -Pd2     : 107.578642  H11     -C5      -C4      : 120.229581
 H11     -C5      -C6      : 120.772520  C7      -C6      -C5      : 119.771289
 H12     -C6      -C5      : 119.360035  H12     -C6      -C7      : 120.780619
 C6      -C7      -Br3     : 118.938296  C8      -C7      -Br3     : 118.627778
 C8      -C7      -C6      : 122.410252  C9      -C8      -C7      : 119.000745
 H13     -C8      -C7      : 120.492415  H13     -C8      -C9      : 120.495726
 C8      -C9      -C4      : 119.973909  H14     -C9      -C4      : 118.685869
 H14     -C9      -C8      : 121.329763  H38     -C15     -C16     : 114.237717
 H39     -C15     -C16     : 112.966435  H39     -C15     -H38     : 107.992341
 H40     -C15     -C16     : 110.201089  H40     -C15     -H38     : 105.335760
 H40     -C15     -H39     : 105.476330  C15     -C16     -P1      : 119.775601
 C17     -C16     -P1      : 107.771635  C17     -C16     -C15     : 105.665602
 C18     -C16     -P1      : 106.978045  C18     -C16     -C15     : 108.050329
 C18     -C16     -C17     : 108.159002  H41     -C17     -C16     : 112.048982
 H42     -C17     -C16     : 110.388948  H42     -C17     -H41     : 106.726060
 H43     -C17     -C16     : 111.327248  H43     -C17     -H41     : 108.670929
 H43     -C17     -H42     : 107.465575  H44     -C18     -C16     : 112.861118
 H45     -C18     -C16     : 110.689835  H45     -C18     -H44     : 107.293336
 H46     -C18     -C16     : 111.350068  H46     -C18     -H44     : 107.270581
 H46     -C18     -H45     : 107.098490  C20     -C19     -P1      : 109.258416
 C21     -C19     -P1      : 111.643532  C21     -C19     -C20     : 108.929293
 C22     -C19     -P1      : 113.863246  C22     -C19     -C20     : 106.962960
 C22     -C19     -C21     : 105.966157  H47     -C20     -C19     : 111.751812
 H48     -C20     -C19     : 112.572241  H48     -C20     -H47     : 108.254703
 H49     -C20     -C19     : 110.403729  H49     -C20     -H47     : 107.133774
 H49     -C20     -H48     : 106.436751  H50     -C21     -C19     : 113.838046
 H51     -C21     -C19     : 112.168245  H51     -C21     -H50     : 107.197813
 H52     -C21     -C19     : 109.916211  H52     -C21     -H50     : 106.315457
 H52     -C21     -H51     : 107.016641  H53     -C22     -C19     : 112.459293
 H54     -C22     -C19     : 110.531666  H54     -C22     -H53     : 105.298629
 H55     -C22     -C19     : 112.903919  H55     -C22     -H53     : 108.916231
 H55     -C22     -H54     : 106.276400  C24     -C23     -P1      : 127.704705
 C25     -C23     -P1      : 110.078282  C25     -C23     -C24     : 122.075500
 C26     -C24     -C23     : 124.982581  C32     -C24     -C23     : 120.043478
 C32     -C24     -C26     : 114.972194  H56     -C25     -C23     : 113.916375
 H57     -C25     -C23     : 112.679122  H57     -C25     -H56     : 110.282184
 H58     -C25     -C23     : 109.946079  H58     -C25     -H56     : 103.151788
 H58     -C25     -H57     : 106.158506  C27     -C26     -C24     : 121.048249
 C31     -C26     -C24     : 124.901537  C31     -C26     -C27     : 113.995520
 C28     -C27     -C26     : 123.422961  H59     -C27     -C26     : 120.916154
 H59     -C27     -C28     : 115.571742  C29     -C28     -C27     : 120.469099
 H60     -C28     -C27     : 119.630904  H60     -C28     -C29     : 119.888005
 C30     -C29     -C28     : 118.011054  H61     -C29     -C28     : 121.139875
 H61     -C29     -C30     : 120.847381  C31     -C30     -C29     : 120.574494
 H62     -C30     -C29     : 120.480621  H62     -C30     -C31     : 118.944821
 C30     -C31     -C26     : 123.502656  H63     -C31     -C26     : 120.958510
 H63     -C31     -C30     : 115.500717  C33     -C32     -C24     : 120.810935
 C37     -C32     -C24     : 124.235271  C37     -C32     -C33     : 114.950065
 C34     -C33     -C32     : 123.031628  H64     -C33     -C32     : 120.316132
 H64     -C33     -C34     : 116.554207  C35     -C34     -C33     : 120.177108
 H65     -C34     -C33     : 119.721727  H65     -C34     -C35     : 120.101147
 C36     -C35     -C34     : 118.645163  H66     -C35     -C34     : 120.805951
 H66     -C35     -C36     : 120.548876  C37     -C36     -C35     : 120.311446
 H67     -C36     -C35     : 119.879853  H67     -C36     -C37     : 119.806279
 C36     -C37     -C32     : 122.878525  H68     -C37     -C32     : 120.876736
 H68     -C37     -C36     : 116.126402
 
  torsional angles:
 
 P1      -Pd2     -C4      -C5      : 170.137531
 P1      -Pd2     -C4      -C9      : -72.425933
 P1      -Pd2     -C4      -F10     :  55.476539
 P1      -Pd2     -C5      -C4      : -79.973109
 P1      -Pd2     -C5      -C6      : 164.086638
 P1      -Pd2     -C5      -H11     :  37.268832
 P1      -C16     -C15     -H38     :  60.204846
 P1      -C16     -C15     -H39     : -63.761458
 P1      -C16     -C15     -H40     : 178.545162
 P1      -C16     -C17     -H41     : -60.951567
 P1      -C16     -C17     -H42     :-179.754347
 P1      -C16     -C17     -H43     :  60.980830
 P1      -C16     -C18     -H44     : -60.078434
 P1      -C16     -C18     -H45     : 179.651587
 P1      -C16     -C18     -H46     :  60.634667
 P1      -C19     -C20     -H47     :  58.461383
 P1      -C19     -C20     -H48     : -63.617924
 P1      -C19     -C20     -H49     : 177.594207
 P1      -C19     -C21     -H50     :  59.050364
 P1      -C19     -C21     -H51     : -62.892782
 P1      -C19     -C21     -H52     : 178.177599
 P1      -C19     -C22     -H53     : -64.541259
 P1      -C19     -C22     -H54     : 178.091732
 P1      -C19     -C22     -H55     :  59.201775
 P1      -C23     -C24     -C26     :   8.591557
 P1      -C23     -C24     -C32     :-171.914244
 P1      -C23     -C25     -H56     :-151.690636
 P1      -C23     -C25     -H57     :  81.703794
 P1      -C23     -C25     -H58     : -36.493906
 Pd2     -P1      -C16     -C15     : 164.517120
 Pd2     -P1      -C16     -C17     :  43.848975
 Pd2     -P1      -C16     -C18     : -72.257719
 Pd2     -P1      -C19     -C20     :  25.611229
 Pd2     -P1      -C19     -C21     : -94.941553
 Pd2     -P1      -C19     -C22     : 145.115771
 Pd2     -P1      -C23     -C24     :  38.679251
 Pd2     -P1      -C23     -C25     :-145.620250
 Pd2     -C4      -C5      -C6      :  92.748720
 Pd2     -C4      -C5      -H11     :-101.198491
 Pd2     -C4      -C9      -C8      : -71.636648
 Pd2     -C4      -C9      -H14     : 109.523994
 Pd2     -C5      -C4      -C9      : -97.334924
 Pd2     -C5      -C4      -F10     : 102.249492
 Pd2     -C5      -C6      -C7      :  80.264710
 Pd2     -C5      -C6      -H12     :-103.120156
 Br3     -C7      -C6      -C5      :-179.006827
 Br3     -C7      -C6      -H12     :   4.427042
 Br3     -C7      -C8      -C9      : 177.052448
 Br3     -C7      -C8      -H13     :  -1.740837
 C4      -Pd2     -P1      -C16     : 102.372333
 C4      -Pd2     -P1      -C19     : -23.404344
 C4      -Pd2     -P1      -C23     :-143.282056
 C4      -Pd2     -C5      -C6      :-115.940253
 C4      -Pd2     -C5      -H11     : 117.241941
 C4      -C5      -C6      -C7      :   3.587566
 C4      -C5      -C6      -H12     :-179.797301
 C4      -C9      -C8      -C7      :   0.184719
 C4      -C9      -C8      -H13     : 178.977962
 C5      -Pd2     -P1      -C16     : 174.661605
 C5      -Pd2     -P1      -C19     :  48.884928
 C5      -Pd2     -P1      -C23     : -70.992785
 C5      -Pd2     -C4      -C9      : 117.436536
 C5      -Pd2     -C4      -F10     :-114.660992
 C5      -C4      -C9      -C8      :   2.748797
 C5      -C4      -C9      -H14     :-176.090560
 C5      -C6      -C7      -C8      :  -0.802077
 C6      -C5      -C4      -C9      :  -4.586205
 C6      -C5      -C4      -F10     :-165.001788
 C6      -C7      -C8      -C9      :  -1.157641
 C6      -C7      -C8      -H13     :-179.950926
 C7      -C6      -C5      -H11     :-162.385557
 C7      -C8      -C9      -H14     : 178.992717
 C8      -C7      -C6      -H12     :-177.368208
 C8      -C9      -C4      -F10     : 163.770458
 C9      -C4      -C5      -H11     : 161.466585
 F10     -C4      -C5      -H11     :   1.051001
 F10     -C4      -C9      -H14     : -15.068900
 H11     -C5      -C6      -H12     :  14.229576
 H13     -C8      -C9      -H14     :  -2.214039
 C15     -C16     -P1      -C19     : -58.777617
 C15     -C16     -P1      -C23     :  54.351971
 C15     -C16     -C17     -H41     : 169.887977
 C15     -C16     -C17     -H42     :  51.085198
 C15     -C16     -C17     -H43     : -68.179625
 C15     -C16     -C18     -H44     :  70.132972
 C15     -C16     -C18     -H45     : -50.137007
 C15     -C16     -C18     -H46     :-169.153927
 C16     -P1      -C19     -C20     : -96.178912
 C16     -P1      -C19     -C21     : 143.268307
 C16     -P1      -C19     -C22     :  23.325630
 C16     -P1      -C23     -C24     : 146.006247
 C16     -P1      -C23     -C25     : -38.293254
 C17     -C16     -P1      -C19     :-179.445762
 C17     -C16     -P1      -C23     : -66.316174
 C17     -C16     -C15     -H38     :-178.082011
 C17     -C16     -C15     -H39     :  57.951684
 C17     -C16     -C15     -H40     : -59.741695
 C17     -C16     -C18     -H44     :-175.927347
 C17     -C16     -C18     -H45     :  63.802674
 C17     -C16     -C18     -H46     : -55.214246
 C18     -C16     -P1      -C19     :  64.447545
 C18     -C16     -P1      -C23     : 177.577133
 C18     -C16     -C15     -H38     : -62.498529
 C18     -C16     -C15     -H39     : 173.535166
 C18     -C16     -C15     -H40     :  55.841787
 C18     -C16     -C17     -H41     :  54.378831
 C18     -C16     -C17     -H42     : -64.423949
 C18     -C16     -C17     -H43     : 176.311228
 C19     -P1      -C23     -C24     : -96.389991
 C19     -P1      -C23     -C25     :  79.310508
 C20     -C19     -P1      -C23     : 146.205085
 C20     -C19     -C21     -H50     : -61.694688
 C20     -C19     -C21     -H51     : 176.362166
 C20     -C19     -C21     -H52     :  57.432548
 C20     -C19     -C22     -H53     :  56.255860
 C20     -C19     -C22     -H54     : -61.111149
 C20     -C19     -C22     -H55     : 179.998894
 C21     -C19     -P1      -C23     :  25.652304
 C21     -C19     -C20     -H47     :-179.340397
 C21     -C19     -C20     -H48     :  58.580296
 C21     -C19     -C20     -H49     : -60.207574
 C21     -C19     -C22     -H53     : 172.361907
 C21     -C19     -C22     -H54     :  54.994898
 C21     -C19     -C22     -H55     : -63.895059
 C22     -C19     -P1      -C23     : -94.290372
 C22     -C19     -C20     -H47     : -65.221587
 C22     -C19     -C20     -H48     : 172.699105
 C22     -C19     -C20     -H49     :  53.911236
 C22     -C19     -C21     -H50     :-176.461650
 C22     -C19     -C21     -H51     :  61.595204
 C22     -C19     -C21     -H52     : -57.334415
 C23     -C24     -C26     -C27     :-158.154110
 C23     -C24     -C26     -C31     :  18.991260
 C23     -C24     -C32     -C33     :-142.591931
 C23     -C24     -C32     -C37     :  36.669427
 C24     -C23     -C25     -H56     :  24.295386
 C24     -C23     -C25     -H57     :-102.310184
 C24     -C23     -C25     -H58     : 139.492116
 C24     -C26     -C27     -C28     : 179.192719
 C24     -C26     -C27     -H59     :   2.779924
 C24     -C26     -C31     -C30     :-178.945069
 C24     -C26     -C31     -H63     :   3.402971
 C24     -C32     -C33     -C34     : 179.666249
 C24     -C32     -C33     -H64     :   3.392322
 C24     -C32     -C37     -C36     : 179.979774
 C24     -C32     -C37     -H68     :   4.089441
 C25     -C23     -C24     -C26     :-166.641735
 C25     -C23     -C24     -C32     :  12.852464
 C26     -C24     -C32     -C33     :  36.950916
 C26     -C24     -C32     -C37     :-143.787726
 C26     -C27     -C28     -C29     :  -0.832574
 C26     -C27     -C28     -H60     :-179.571583
 C26     -C31     -C30     -C29     :   0.566654
 C26     -C31     -C30     -H62     :-179.524779
 C27     -C26     -C24     -C32     :  22.328888
 C27     -C26     -C31     -C30     :  -1.621947
 C27     -C26     -C31     -H63     :-179.273907
 C27     -C28     -C29     -C30     :  -0.362228
 C27     -C28     -C29     -H61     :-179.893059
 C28     -C27     -C26     -C31     :   1.755171
 C28     -C29     -C30     -C31     :   0.491976
 C28     -C29     -C30     -H62     :-179.415182
 C29     -C28     -C27     -H59     : 175.755910
 C29     -C30     -C31     -H63     : 178.335845
 C30     -C29     -C28     -H60     : 178.373541
 C31     -C26     -C24     -C32     :-160.525742
 C31     -C26     -C27     -H59     :-174.657624
 C31     -C30     -C29     -H61     :-179.975757
 C32     -C33     -C34     -C35     :   0.374517
 C32     -C33     -C34     -H65     :-179.674058
 C32     -C37     -C36     -C35     :   0.389313
 C32     -C37     -C36     -H67     :-179.043977
 C33     -C32     -C37     -C36     :  -0.719914
 C33     -C32     -C37     -H68     :-176.610247
 C33     -C34     -C35     -C36     :  -0.726862
 C33     -C34     -C35     -H66     : 179.236565
 C34     -C33     -C32     -C37     :   0.339762
 C34     -C35     -C36     -C37     :   0.360740
 C34     -C35     -C36     -H67     : 179.793612
 C35     -C34     -C33     -H64     : 176.778825
 C35     -C36     -C37     -H68     : 176.460978
 C36     -C35     -C34     -H65     : 179.321898
 C37     -C32     -C33     -H64     :-175.934165
 C37     -C36     -C35     -H66     :-179.602785
 H59     -C27     -C28     -H60     :  -2.983100
 H60     -C28     -C29     -H61     :  -1.157289
 H61     -C29     -C30     -H62     :   0.117085
 H62     -C30     -C31     -H63     :  -1.755588
 H64     -C33     -C34     -H65     :  -3.269750
 H65     -C34     -C35     -H66     :  -0.714674
 H66     -C35     -C36     -H67     :  -0.169913
 H67     -C36     -C37     -H68     :  -2.972312
 
  nuclear repulsion energy.......          4078.946275444 hartrees
 -------------------------------------------------
   end of geometry optimization iteration  1
 -------------------------------------------------
   
  end of program geopt
   
 Time(geopt)  user:       0.714  user+sys:       0.714  wallclock:       0.791
  
  start of program onee
  
  smallest eigenvalue of S:    4.150E-04
  number of canonical orbitals.....          546
  end of program onee
   
 Time(onee)  user:       6.545  user+sys:       6.545  wallclock:       5.040
  
  start of program probe
  
  end of program probe
   
 Time(probe)  user:       0.537  user+sys:       0.537  wallclock:       0.492
  
  start of program grid
  
  end of program grid
   
 Time(grid)  user:     220.391  user+sys:     220.391  wallclock:     112.816
  
  start of program rwr
  
  end of program rwr
   
 Time(rwr)  user:      15.251  user+sys:      15.251  wallclock:      19.395
  
  start of program scf
  
 Energy computed using pseudospectral method.
 Convergence Criterion:
    Energy (econv):       1.00E-05
    RMS density (dconv):  5.00E-06
  
       i  u  d  i  g                   
       t  p  i  c  r                                 RMS    maximum
       e  d  i  u  i                       energy  density   DIIS  
       r  t  s  t  d       total energy    change  change    error 
  
etot    1  N  N  2  U   -1706.74270505637           4.7E-04  1.7E-02
etot    2  Y  Y  6  M   -1706.78928498364  4.7E-02  1.2E-04  3.1E-03
etot    3  N  Y  2  U   -1706.79006964614  7.8E-04  6.4E-05  2.3E-03
etot    4  Y  Y  6  M   -1706.79095952617  8.9E-04  2.4E-05  1.3E-03
etot    5  N  Y  2  U   -1706.79103431528  7.5E-05  1.1E-05  2.3E-04
etot    6  N  Y  2  U   -1706.79104973147  1.5E-05  4.6E-06  1.1E-04
etot    7  N  N  2  U   -1706.79105294972  3.2E-06  0.0E+00  0.0E+00
 
  Computing the dispersion energy correction and its gradients...
  
  
 Energy components, in hartrees:
   (A)  Nuclear repulsion............    4078.94627544445
   (E)  Total one-electron terms.....  -10504.41597203929
   (F)    Electron-nuclear...........  -12112.94969680250
   (H)    Kinetic....................    1608.53372476321
   (I)  Total two-electron terms.....    4718.67864364511
   (J)    Coulomb....................    4937.86383261204
   (K)    Exchange+Correlation.......    -219.18518896693
   (L)  Electronic energy............   -5785.73732839418  (E+I)
   (N0) D3 correction................      -0.11688542789
   (N)  Total energy.................   -1706.90793837762  (A+L+N0)
   (O)  Gas phase energy.............   -1706.90793837762
  
 SCFE: SCF energy: DFT(b3pw91-d3)     -1706.90793837762 hartrees   iterations:   7
  
 
 HOMO energy:    -0.16955
 LUMO energy:    -0.05668
 
  Orbital energies (hartrees): 
   -77.06163   -24.68152   -10.26315   -10.22209   -10.20607   -10.20219
   -10.19862   -10.19170   -10.19159   -10.18951   -10.18832   -10.18531
   -10.18003   -10.17912   -10.17839   -10.17768   -10.17664   -10.17642
   -10.17585   -10.17195   -10.17166   -10.17046   -10.16987   -10.16807
   -10.16800   -10.16787   -10.16307   -10.16149   -10.15950   -10.15644
   -10.15556    -6.56234    -4.72040    -4.72014    -4.71659    -3.26947
    -2.00804    -1.98923    -1.98187    -1.21168    -0.87405    -0.87262
    -0.85558    -0.83441    -0.81274    -0.81036    -0.79184    -0.76351
    -0.76294    -0.75132    -0.74836    -0.74144    -0.71543    -0.69955
    -0.69423    -0.69081    -0.68515    -0.68090    -0.65370    -0.62995
    -0.61711    -0.60782    -0.60070    -0.59848    -0.59401    -0.55836
[...]
    H12      Z    -0.00011  -0.00023  -0.00725  -0.00331   0.21234  -0.01177
    H13      X     0.00005  -0.00005  -0.24484  -0.04465  -0.03544  -0.44748
    H13      Y     0.00009  -0.00008  -0.38643  -0.07046  -0.05461  -0.69403
    H13      Z     0.00000   0.00001   0.03657   0.00666   0.00507   0.06606
    H14      X     0.00018  -0.00007  -0.38637  -0.07284  -0.00258   0.22320
    H14      Y    -0.00031   0.00013   0.71642   0.13513   0.00541  -0.40604
    H14      Z     0.00003  -0.00000  -0.07381  -0.01396  -0.00060   0.04154
    C15      X    -0.00001   0.00005   0.00002  -0.00004   0.00001  -0.00000
    C15      Y    -0.00000   0.00009   0.00001  -0.00001  -0.00000   0.00001
    C15      Z    -0.00001  -0.00002   0.00001  -0.00001  -0.00001  -0.00001
    C16      X     0.00001   0.00001   0.00001  -0.00000  -0.00000  -0.00000
    C16      Y    -0.00000  -0.00002  -0.00000   0.00002   0.00002  -0.00000
    C16      Z     0.00001  -0.00000  -0.00001   0.00000  -0.00000  -0.00000
    C17      X    -0.00007   0.00003  -0.00000   0.00001   0.00011  -0.00001
    C17      Y    -0.00011   0.00000   0.00002  -0.00002  -0.00027   0.00001
    C17      Z    -0.00006   0.00001   0.00002  -0.00005  -0.00035   0.00001
    C18      X     0.00001   0.00002  -0.00002  -0.00001   0.00008  -0.00008
    C18      Y    -0.00001   0.00001   0.00001  -0.00001  -0.00003   0.00006
    C18      Z     0.00000  -0.00002   0.00006   0.00001  -0.00013   0.00005
    C19      X     0.00000  -0.00001  -0.00001   0.00000  -0.00001  -0.00000
    C19      Y     0.00000  -0.00000  -0.00000   0.00001   0.00001   0.00001
    C19      Z     0.00001  -0.00002   0.00001  -0.00000   0.00002   0.00000
    C20      X     0.00003   0.00001   0.00025   0.00006   0.00004   0.00001
    C20      Y     0.00000   0.00002   0.00000  -0.00001   0.00001  -0.00004
    C20      Z    -0.00001  -0.00000  -0.00002  -0.00003   0.00003   0.00017
    C21      X     0.00005  -0.00001  -0.00002   0.00015   0.00001   0.00000
    C21      Y    -0.00000   0.00003  -0.00000  -0.00015  -0.00001   0.00002
    C21      Z    -0.00015  -0.00003   0.00005  -0.00049  -0.00007   0.00001
    C22      X     0.00002   0.00000   0.00002  -0.00001   0.00002   0.00000
    C22      Y    -0.00001   0.00003  -0.00001  -0.00003  -0.00001   0.00002
    C22      Z     0.00001  -0.00001   0.00000   0.00000  -0.00000   0.00001
    C23      X    -0.00004  -0.00007  -0.00001   0.00001   0.00000  -0.00000
    C23      Y     0.00005  -0.00016   0.00000   0.00000   0.00000  -0.00000
    C23      Z     0.00002  -0.00008   0.00001  -0.00009  -0.00000   0.00000
    C24      X     0.00037  -0.00005  -0.00001   0.00005  -0.00000   0.00000
    C24      Y    -0.00014   0.00008  -0.00001   0.00003   0.00000  -0.00000
    C24      Z    -0.00022   0.00009  -0.00001   0.00007   0.00001  -0.00000
    C25      X     0.00024  -0.00002   0.00000   0.00000   0.00000  -0.00000
    C25      Y    -0.00075  -0.00025  -0.00002   0.00007  -0.00001   0.00001
    C25      Z    -0.00000  -0.00009  -0.00000   0.00002  -0.00000  -0.00000
    C26      X    -0.00036   0.00002   0.00017  -0.00101  -0.00005  -0.00001
    C26      Y     0.00036  -0.00005  -0.00009   0.00044  -0.00002  -0.00000
    C26      Z    -0.00033   0.00005  -0.00017   0.00088   0.00001   0.00000
    C27      X     0.00860  -0.00048   0.00202  -0.01032   0.00004  -0.00004
    C27      Y    -0.00737   0.00044  -0.00171   0.00868   0.00002   0.00003
    C27      Z    -0.00207   0.00007  -0.00055   0.00275  -0.00006   0.00001
    C28      X     0.00284  -0.00019   0.00139  -0.00722  -0.00012  -0.00001
    C28      Y    -0.00620   0.00035  -0.00261   0.01353   0.00014   0.00003
    C28      Z     0.00786  -0.00039   0.00294  -0.01516  -0.00005  -0.00005
    C29      X    -0.00262   0.00048  -0.00350   0.01838   0.00003   0.00004
    C29      Y     0.00047   0.00002  -0.00020   0.00111  -0.00005   0.00000
    C29      Z     0.00369  -0.00089   0.00664  -0.03486  -0.00011  -0.00006
    C30      X     0.00411   0.00127  -0.00913   0.04897   0.00043   0.00011
    C30      Y    -0.00315  -0.00102   0.00737  -0.03962  -0.00029  -0.00008
    C30      Z    -0.00103  -0.00017   0.00131  -0.00732   0.00002  -0.00003
    C31      X     0.00170   0.00021  -0.00169   0.00913   0.00025   0.00001
    C31      Y    -0.00295  -0.00033   0.00292  -0.01615  -0.00031  -0.00005
    C31      Z     0.00436   0.00057  -0.00458   0.02513   0.00040   0.00006
    C32      X    -0.00272   0.00066   0.00000  -0.00001   0.00000  -0.00000
    C32      Y     0.00042   0.00149   0.00001  -0.00003  -0.00000  -0.00000
    C32      Z     0.00090   0.00030   0.00001  -0.00005  -0.00000  -0.00000
    C33      X     0.03509  -0.02083  -0.00014   0.00065  -0.00003  -0.00000
    C33      Y    -0.03547   0.02214   0.00015  -0.00071   0.00003  -0.00000
    C33      Z    -0.02270   0.01383   0.00009  -0.00045   0.00002  -0.00000
    C34      X     0.02684  -0.03827  -0.00019   0.00109  -0.00004   0.00000
    C34      Y     0.01031  -0.01043  -0.00006   0.00031  -0.00001  -0.00000
    C34      Z    -0.00321   0.00615   0.00003  -0.00017   0.00001  -0.00000
    C35      X    -0.00600  -0.01481  -0.00005   0.00033  -0.00001   0.00000
    C35      Y    -0.00993  -0.04756  -0.00018   0.00110  -0.00004   0.00001
    C35      Z    -0.00198  -0.01293  -0.00005   0.00030  -0.00001  -0.00000
    C36      X     0.02334   0.02649   0.00010  -0.00060   0.00002  -0.00001
    C36      Y    -0.02392  -0.02379  -0.00009   0.00053  -0.00002   0.00000
    C36      Z    -0.01406  -0.01480  -0.00006   0.00034  -0.00001   0.00000
    C37      X     0.03759   0.02441   0.00009  -0.00048   0.00001  -0.00000
    C37      Y     0.01278   0.00857   0.00003  -0.00018   0.00001  -0.00000
    C37      Z    -0.00457  -0.00282  -0.00001   0.00005  -0.00000  -0.00000
    H38      X     0.00002   0.00012  -0.00001  -0.00000   0.00006   0.00002
    H38      Y    -0.00010  -0.00027   0.00006  -0.00004  -0.00013  -0.00006
    H38      Z     0.00007   0.00034  -0.00008   0.00006   0.00024   0.00011
    H39      X     0.00002  -0.00023  -0.00006   0.00003   0.00001  -0.00004
    H39      Y     0.00012  -0.00077  -0.00021   0.00021   0.00001  -0.00011
    H39      Z     0.00005  -0.00013  -0.00004   0.00002  -0.00001  -0.00003
    H40      X    -0.00006  -0.00050  -0.00013   0.00036  -0.00017   0.00008
    H40      Y     0.00002   0.00002   0.00001  -0.00001   0.00002  -0.00001
    H40      Z     0.00004  -0.00003  -0.00001   0.00003  -0.00002  -0.00001
    H41      X    -0.00011   0.00003   0.00004  -0.00015  -0.00079  -0.00002
    H41      Y     0.00018  -0.00004  -0.00004   0.00033   0.00120  -0.00002
    H41      Z     0.00051  -0.00007  -0.00020   0.00064   0.00369  -0.00010
    H42      X     0.00013  -0.00033  -0.00000   0.00002  -0.00118   0.00018
    H42      Y     0.00001   0.00010   0.00001  -0.00001   0.00033  -0.00007
    H42      Z    -0.00001  -0.00000  -0.00001   0.00002   0.00011  -0.00001
    H43      X     0.00066  -0.00004  -0.00007  -0.00001   0.00090  -0.00004
    H43      Y     0.00098  -0.00016  -0.00013  -0.00001   0.00140  -0.00006
    H43      Z     0.00019   0.00000  -0.00002  -0.00006   0.00041   0.00000
    H44      X     0.00002   0.00001   0.00002  -0.00001   0.00000  -0.00003
    H44      Y     0.00015  -0.00014   0.00019   0.00009  -0.00046  -0.00016
    H44      Z    -0.00015   0.00017  -0.00023  -0.00012   0.00056   0.00027
    H45      X    -0.00014  -0.00031  -0.00004   0.00021  -0.00027   0.00057
    H45      Y     0.00001   0.00002  -0.00001  -0.00001   0.00008  -0.00017
    H45      Z    -0.00003  -0.00007  -0.00000   0.00005  -0.00010   0.00010
    H46      X    -0.00003  -0.00003   0.00027  -0.00002  -0.00063   0.00045
    H46      Y     0.00005   0.00005  -0.00020  -0.00000   0.00077  -0.00042
    H46      Z     0.00010   0.00010  -0.00043  -0.00001   0.00124  -0.00101
    H47      X    -0.00028  -0.00016  -0.00257  -0.00046  -0.00069  -0.00097
    H47      Y    -0.00005  -0.00000  -0.00034  -0.00006  -0.00009  -0.00009
    H47      Z    -0.00005  -0.00003  -0.00023  -0.00002  -0.00003  -0.00001
    H48      X    -0.00009  -0.00004  -0.00019  -0.00018   0.00022   0.00096
    H48      Y     0.00001   0.00002  -0.00024  -0.00009   0.00012   0.00027
    H48      Z     0.00020   0.00006   0.00084   0.00050  -0.00026  -0.00189
    H49      X    -0.00002   0.00012  -0.00020  -0.00010   0.00001  -0.00016
    H49      Y     0.00010  -0.00035   0.00054   0.00031  -0.00004   0.00026
    H49      Z    -0.00003   0.00016  -0.00045  -0.00020   0.00005  -0.00011
    H50      X    -0.00090  -0.00014   0.00037  -0.00296  -0.00035   0.00003
    H50      Y    -0.00012  -0.00000   0.00009  -0.00090  -0.00002   0.00004
    H50      Z     0.00165   0.00022  -0.00060   0.00506   0.00047  -0.00006
    H51      X     0.00018  -0.00002  -0.00005   0.00067   0.00010  -0.00013
    H51      Y     0.00036   0.00011  -0.00010   0.00205   0.00033  -0.00031
    H51      Z     0.00016   0.00001  -0.00006   0.00142   0.00022  -0.00021
    H52      X     0.00007   0.00015  -0.00009   0.00011   0.00008   0.00005
    H52      Y    -0.00024  -0.00041   0.00017  -0.00009  -0.00023  -0.00010
    H52      Z     0.00011   0.00022  -0.00012  -0.00008   0.00015   0.00009
    H53      X    -0.00028  -0.00010  -0.00028   0.00017  -0.00023  -0.00006
    H53      Y    -0.00004  -0.00000  -0.00004   0.00001  -0.00002   0.00001
    H53      Z    -0.00002  -0.00002  -0.00002   0.00002  -0.00003   0.00000
    H54      X    -0.00004   0.00013  -0.00003  -0.00008  -0.00001   0.00003
    H54      Y     0.00011  -0.00032   0.00008   0.00016  -0.00005  -0.00007
    H54      Z    -0.00004   0.00020  -0.00005  -0.00010   0.00009   0.00007
    H55      X    -0.00002  -0.00002   0.00001   0.00001   0.00001  -0.00004
    H55      Y    -0.00009  -0.00008   0.00006   0.00013   0.00005  -0.00029
    H55      Z    -0.00002  -0.00010   0.00006   0.00013   0.00003  -0.00024
    H56      X     0.00384   0.00232   0.00005  -0.00034   0.00007  -0.00003
    H56      Y     0.00315   0.00229   0.00005  -0.00036   0.00008  -0.00003
    H56      Z     0.00133   0.00062   0.00001  -0.00011   0.00004  -0.00001
    H57      X    -0.00564  -0.00207  -0.00012   0.00055  -0.00003   0.00000
    H57      Y     0.00119   0.00051   0.00005  -0.00019  -0.00000   0.00000
    H57      Z     0.00169   0.00066   0.00007  -0.00029  -0.00000   0.00000
    H58      X    -0.00136  -0.00025  -0.00001  -0.00003  -0.00001   0.00002
    H58      Y     0.00505   0.00050   0.00007  -0.00006   0.00003  -0.00005
    H58      Z    -0.00277  -0.00014  -0.00002  -0.00015  -0.00004   0.00004
    H59      X    -0.09582   0.00542  -0.02196   0.11140  -0.00008   0.00042
    H59      Y     0.08365  -0.00470   0.01911  -0.09694   0.00000  -0.00037
    H59      Z     0.01938  -0.00101   0.00456  -0.02309   0.00001  -0.00009
    H60      X    -0.03315   0.00172  -0.01336   0.06891   0.00052   0.00018
    H60      Y     0.06947  -0.00356   0.02740  -0.14131  -0.00109  -0.00041
    H60      Z    -0.08468   0.00426  -0.03286   0.16946   0.00122   0.00048
    H61      X     0.02515  -0.00532   0.03970  -0.20857  -0.00014  -0.00044
    H61      Y    -0.00068  -0.00003   0.00013  -0.00092   0.00015  -0.00003
    H61      Z    -0.04308   0.00944  -0.07066   0.37128   0.00054   0.00075
    H62      X    -0.04646  -0.01410   0.10133  -0.54413  -0.00445  -0.00115
    H62      Y     0.03739   0.01139  -0.08198   0.44005   0.00354   0.00091
    H62      Z     0.00814   0.00225  -0.01638   0.08810   0.00071   0.00018
    H63      X    -0.02172  -0.00255   0.02129  -0.11664  -0.00235  -0.00023
    H63      Y     0.03372   0.00414  -0.03340   0.18324   0.00356   0.00040
    H63      Z    -0.04838  -0.00591   0.04831  -0.26488  -0.00516  -0.00055
    H64      X    -0.40635   0.24133   0.00162  -0.00745   0.00034   0.00000
    H64      Y     0.39320  -0.23497  -0.00157   0.00732  -0.00033   0.00000
    H64      Z     0.25703  -0.15314  -0.00106   0.00498  -0.00021  -0.00000
    H65      X    -0.30150   0.41338   0.00206  -0.01186   0.00038  -0.00005
    H65      Y    -0.09172   0.11995   0.00061  -0.00349   0.00011  -0.00002
    H65      Z     0.04540  -0.06414  -0.00031   0.00181  -0.00006   0.00000
    H66      X     0.04066   0.16302   0.00062  -0.00376   0.00012  -0.00002
    H66      Y     0.11759   0.52162   0.00198  -0.01205   0.00038  -0.00008
    H66      Z     0.03079   0.14157   0.00054  -0.00328   0.00010  -0.00002
    H67      X    -0.26582  -0.27999  -0.00106   0.00629  -0.00025   0.00005
    H67      Y     0.25686   0.26605   0.00101  -0.00600   0.00024  -0.00005
    H67      Z     0.15446   0.16100   0.00061  -0.00363   0.00015  -0.00004
    H68      X    -0.42700  -0.27120  -0.00096   0.00506  -0.00015   0.00003
    H68      Y    -0.12903  -0.08249  -0.00030   0.00159  -0.00006   0.00001
    H68      Z     0.05786   0.03638   0.00013  -0.00070   0.00002  -0.00001
  
  Number of imaginary frequencies:   2
   
  Writing vibrational animation data to enc_comp_L1_PL747.vib
  Writing IR vibrational spectrum data to enc_comp_L1_PL747_vib.spm
  rotational symmetry number:  1

  rotational temperatures (K):      0.007133      0.003745      0.003250
   
  The Quasi-Harmonic approximation will be applied to compute
  vibrational constributions to thermodynamic properties.
  Frequencies will be adjusted to a minimum value of  100.00 cm^-1.

    2 vibrational frequencies below    0.0 cm-1 not included in zero-point
  energy or thermochemical analysis.  Set freqcut to change the frequency
  cutoff value.

  vibrational temperatures:
       mode:      3        4        5        6        7        8
  temp. (K):   143.88   143.88   143.88   143.88   143.88   143.88
   
       mode:      9       10       11       12       13       14
  temp. (K):   143.88   143.88   143.88   143.88   148.23   159.97
   
       mode:     15       16       17       18       19       20
  temp. (K):   163.89   183.07   186.17   211.30   211.61   219.04
   
       mode:     21       22       23       24       25       26
  temp. (K):   279.69   301.43   322.40   331.38   342.74   364.41
   
       mode:     27       28       29       30       31       32
  temp. (K):   365.91   368.54   370.35   385.54   398.88   399.52
   
       mode:     33       34       35       36       37       38
  temp. (K):   421.44   427.10   441.33   451.20   461.42   482.80
   
       mode:     39       40       41       42       43       44
  temp. (K):   511.81   513.95   533.92   553.47   570.83   577.47
   
       mode:     45       46       47       48       49       50
  temp. (K):   590.79   597.22   599.67   601.30   611.17   644.63
   
       mode:     51       52       53       54       55       56
  temp. (K):   661.22   682.47   707.16   738.88   770.67   788.49
   
       mode:     57       58       59       60       61       62
  temp. (K):   838.63   847.34   885.41   891.13   895.04   902.41
   
       mode:     63       64       65       66       67       68
  temp. (K):   908.41   959.21   965.99   993.16  1031.41  1041.70
   
       mode:     69       70       71       72       73       74
  temp. (K):  1087.68  1107.34  1148.94  1155.59  1168.76  1189.73
   
       mode:     75       76       77       78       79       80
  temp. (K):  1201.49  1201.78  1231.51  1254.36  1306.08  1315.25
   
       mode:     81       82       83       84       85       86
  temp. (K):  1323.88  1333.45  1370.55  1372.17  1380.12  1385.92
   
       mode:     87       88       89       90       91       92
  temp. (K):  1391.83  1405.52  1410.43  1417.84  1437.32  1440.59
   
       mode:     93       94       95       96       97       98
  temp. (K):  1451.08  1454.73  1462.35  1466.42  1473.95  1499.79
   
       mode:     99      100      101      102      103      104
  temp. (K):  1508.07  1511.06  1514.72  1521.58  1524.70  1525.36
   
       mode:    105      106      107      108      109      110
  temp. (K):  1535.35  1591.09  1597.04  1614.02  1669.05  1689.55
   
       mode:    111      112      113      114      115      116
  temp. (K):  1727.48  1731.20  1732.28  1750.24  1750.79  1756.78
   
       mode:    117      118      119      120      121      122
  temp. (K):  1764.37  1769.88  1780.87  1797.92  1800.35  1806.69
   
       mode:    123      124      125      126      127      128
  temp. (K):  1864.54  1880.27  1917.81  1942.80  1973.35  1982.67
   
       mode:    129      130      131      132      133      134
  temp. (K):  1996.59  2025.18  2041.01  2045.47  2047.30  2052.67
   
       mode:    135      136      137      138      139      140
  temp. (K):  2068.31  2087.63  2101.40  2125.65  2143.73  2153.07
   
       mode:    141      142      143      144      145      146
  temp. (K):  2155.78  2158.68  2160.62  2170.30  2170.96  2176.62
   
       mode:    147      148      149      150      151      152
  temp. (K):  2183.61  2189.53  2193.28  2196.39  2208.53  2212.49
   
       mode:    153      154      155      156      157      158
  temp. (K):  2215.86  2217.89  2229.41  2232.99  2279.50  2328.40
   
       mode:    159      160      161      162      163      164
  temp. (K):  2354.56  2354.92  2369.03  2373.22  2401.40  4365.65
   
       mode:    165      166      167      168      169      170
  temp. (K):  4367.87  4375.08  4377.49  4380.56  4383.68  4424.97
   
       mode:    171      172      173      174      175      176
  temp. (K):  4471.40  4473.81  4478.84  4483.62  4486.04  4490.02
   
       mode:    177      178      179      180      181      182
  temp. (K):  4516.58  4518.44  4522.98  4536.02  4537.61  4543.53
   
       mode:    183      184      185      186      187      188
  temp. (K):  4546.34  4551.21  4576.16  4580.80  4581.55  4592.00
   
       mode:    189      190      191      192      193      194
  temp. (K):  4595.19  4603.94  4608.18  4615.58  4616.53  4626.47
   
       mode:    195      196      197      198
  temp. (K):  4629.52  4630.08  4639.92  4652.50
   
   
  Thermodynamic properties calculated assuming an ideal gas

  In the table below, the units for temperature
  are kelvins, the units for U, H, and G are
  kcal/mol and the units for Cv and S are cal/(mol K)

  The zero point energy (ZPE):    356.141 kcal/mol
  is not included in U, H, or G in the table below
  
 
  =============================================================================
  Thermodynamic properties for P = 1.00E+00 atm, calculated at   1 temperatures


  T =   298.15 K, P = 1.00E+00 atm
   
                  U         Cv          S          H          G        ln(Q)
              =========  =========  =========  =========  =========  =========
  trans.          0.889      2.981     45.147      1.481    -11.979   20.21902
  rot.            0.889      2.981     37.257      0.889    -10.220   17.24853
  vib.           18.927    125.816    113.827     18.927    -15.010   25.33400
  elec.           0.000      0.000      0.000      0.000      0.000    0.00000
  ----------------------------------------------------------------------------
  total          20.705    131.778    196.231     21.297    -37.209   62.80155
   
   Total internal energy, Utot(SCFE + ZPE + U):   -1706.362774 hartrees
   Total enthalpy, Htot (Utot + nRT), with n=1:   -1706.361829 hartrees
    Total Gibbs free energy, Gtot (Htot - T*S):   -1706.455065 hartrees
   
  end of program freq
   
 Time(freq)  user:       0.378  user+sys:       0.378  wallclock:       0.425
  
  start of program post
  
  Writing input files for PBF
  end of program post
   
 Time(post)  user:       0.195  user+sys:       0.195  wallclock:       0.118

 Total cpu seconds     user:   84815.191   user+sys:   84815.191
  
 Total elapsed time:    49538 seconds

Job enc_comp_L1_PL747 completed on bp1-compute145.data.bp.acrc.priv at Mon Mar 24 19:52:53 2025
