Job L1_NaOtBu_PL747 started on bp1-compute156 at Fri Nov 28 11:55:22 2025
jobid: bp1-compute156-0-69298da2

  +--------------------------------------------------------------------+
  |  Jaguar version 12.5, release 138                                  |
  |                                                                    |
  |  Copyright Schrodinger, Inc.                                       |
  |  All Rights Reserved.                                              |
  |                                                                    |
  |  The following have contributed to Jaguar (listed alphabetically): |
  |  Ty Balduf, Mike Beachy, Chandler Bennett, Art Bochevarov,         |
  |  Dale Braden, Yixiang Cao, Alan Chien, Chris Cortis,               |
  |  Rich Friesner, Jim Furness, Bill Goddard, Hod Greeley,            |
  |  Tom Hughes, Leif Jacobson, Jean-Marc Langlois, Daniel Levine,     |
  |  Rob Murphy, Dean Philipp, Tom Pollard, Murco Ringnalda,           |
  |  Daniel Mainz, Pablo Videla, Mark Watson, Haoyu Yu.                |
  |                                                                    |
  |  Use of this program should be acknowledged in publications as:    |
  |                                                                    |
  |  Jaguar, version 12.5, Schrodinger, Inc., New York, NY, 2024.      |
  |                                                                    |
  |  A. D. Bochevarov, E. Harder, T. F. Hughes, J. R. Greenwood,       |
  |  D. A. Braden, D. M. Philipp, D. Rinaldo, M. D. Halls,             |
  |  J. Zhang, R. A. Friesner, "Jaguar: A High-Performance Quantum     |
  |  Chemistry Software Program with Strengths in Life and Materials   |
  |  Sciences", Int. J. Quantum Chem., 2013, 113(18), 2110-2142.       |
  +--------------------------------------------------------------------+
  
  start of program pre
  
  Job name: L1_NaOtBu_PL747
  Executables used: /software/local/apps/schrodinger2024-3/jaguar-v12.5/bin/Linux-x86_64
  Temporary files : /tmp/ar21627/L1_NaOtBu_PL747#bp1-compute156-0-69298da2
  Basis file : using default basis file from /software/local/apps/schrodinger2024-3
  Maestro file (input):  L1_NaOtBu_PL747.mae
  Maestro file (output): L1_NaOtBu_PL747.01.mae
  
 Contents of input file: &gen and (if present) &atomic sections only
 ----------------Contents start----------------
&gen
dftname=b3pw91-d3
basis=6-31G*
numd=5
ip11=2
iaccg=3
isolv=2
igeopt=1
solvent=benzene
ifreq=1
&
&atomic
atom basis
Pd2 lacv3p*
&
 -----------------Contents end-----------------
 
  PS calculation requested. Using PS version of 6-31g*
  basis set:               non_standard                    
  net molecular charge:    0
  multiplicity:            1
  
  Using up to  18 threads per process
  
  This run will use ECP on 1 atom
  number of basis functions....          539
  
 Input geometry:
                                   angstroms
  atom               x                 y                 z
  P1            0.0000000000      0.0000000000      0.0000000000 
  Pd2           0.0000000000      0.0000000000      2.2949796155 
  C6            1.8513592690      0.0000000000     -2.2874839878 
  C7            1.6786523773      0.4054442622     -0.8189254614 
  C8            2.7192128229     -0.3654026028      0.0129790453 
  C9            1.9435974327      1.9083374564     -0.6619273748 
  C10          -1.4157429433      1.0377917168     -0.7463986076 
  C11          -1.3892908686      2.4092490282     -0.0438313486 
  C12          -2.7175343505      0.3440088309     -0.3059485116 
  C13          -1.4039195028      1.2779489371     -2.2611666303 
  C14          -0.2561704462     -1.7766229079     -0.5426240425 
  C15           0.1092281577     -2.7988180212      0.2904996970 
  C16          -0.7944278418     -2.0671009729     -1.9272779717 
  C17           0.4205022623     -2.6380956858      1.7375586171 
  C18           1.6459181638     -3.0293847097      2.2647655720 
  C19           1.9777533439     -2.7553387201      3.6048387237 
  C20           1.0745313065     -2.0990564432      4.4297329727 
  C21          -0.2131281068     -1.7566831768      3.9516110568 
  C22          -0.5556023590     -2.0478615286      2.6041969590 
  C23           0.2683768201     -4.1988462166     -0.1980238170 
  C24          -0.3187906127     -5.2682452326      0.4956499681 
  C25          -0.1427383607     -6.5797286416      0.0615745728 
  C26           0.6453881409     -6.8513036064     -1.0585389700 
  C27           1.2584263804     -5.7992489942     -1.7395146322 
  C28           1.0710887893     -4.4864039060     -1.3113958910 
  H29           1.0930580882      0.4335005544     -2.9451169492 
  H30           1.8327297980     -1.0883199451     -2.4040221624 
  H31           2.8332297749      0.3448288503     -2.6424511514 
  H32           2.6829265213     -0.0788515692      1.0700921142 
  H33           3.7259811202     -0.1538674290     -0.3734688899 
  H34           2.5555347612     -1.4469630747     -0.0414020024 
  H35           1.3311777614      2.5101827514     -1.3414300241 
  H36           2.9954159254      2.1209603483     -0.8965813431 
  H37           1.7535867012      2.2405250261      0.3655845355 
  H38          -0.5040688290      2.9973735124     -0.2977199618 
  H39          -1.4128388801      2.2894573153      1.0449439095 
  H40          -2.2713069514      2.9898061548     -0.3490007536 
  H41          -2.7197963522      0.1907844070      0.7796704910 
  H42          -2.8727379313     -0.6283687897     -0.7792420196 
  H43          -3.5764644941      0.9788288164     -0.5612248210 
  H44          -0.5399712204      1.8792507836     -2.5638344731 
  H45          -2.3037289929      1.8421640449     -2.5449805267 
  H46          -1.3966334917      0.3567284224     -2.8471819821 
  H47          -0.9626235874     -3.1370132330     -2.0764531824 
  H48          -0.1379816762     -1.7165448769     -2.7303262132 
  H49          -1.7565029431     -1.5698432891     -2.0778063799 
  H50           2.3734108453     -3.5086115364      1.6129680414 
  H51           2.9527458202     -3.0491268942      3.9874601884 
  H52           1.3362286561     -1.8804582700      5.4630392896 
  H53          -0.9831323491     -1.4310179814      4.6478193440 
  H54          -1.5963719469     -2.0369437023      2.2799023722 
  H55          -0.9164081231     -5.0630329169      1.3805331373 
  H56          -0.6160766926     -7.3959178329      0.6034700937 
  H57           0.7886704652     -7.8770094454     -1.3915931891 
  H58           1.8887156982     -5.9997466431     -2.6032538079 
  H59           1.5587136514     -3.6677359255     -1.8362515346 
  O93          -0.2610182888      0.3756536901      4.3268105840 
  Na94         -2.4036750726      0.4071968375      3.9355313367 
  C95           0.7335334792      1.1656858664      4.9127225565 
  C96           0.6877310934      2.6042428260      4.3662233271 
  H97           1.4695203456      3.2440544727      4.8004121123 
  H98          -0.2885786425      3.0626173815      4.5792340436 
  H99           0.8146299579      2.5721732086      3.2780220657 
  C100          2.1313393073      0.5843984203      4.6322797678 
  H101          2.9276184189      1.1708421933      5.1150291483 
  H102          2.3093073223      0.5641291994      3.5483400489 
  H103          2.1890979031     -0.4492244285      4.9888506929 
  C104          0.5082617132      1.2051455380      6.4338209921 
  H105         -0.4907718230      1.6056339343      6.6499896840 
  H106          1.2472151223      1.8355737404      6.9481776932 
  H107          0.5693759630      0.1948592588      6.8527044579 
   
  principal moments of inertia:
        amu*angstrom^2:              2936.15730              4641.05227              5947.17115
                g*cm^2:          4.87560329E-37          7.70664765E-37          9.87550881E-37
   
  rotational constants:
               cm^(-1):      0.00574139      0.00363229      0.00283456
                   GHz:      0.17212259      0.10889319      0.08497805
   
  Molecular weight:     540.17 amu
   
  Stoichiometry: NaPdC27PH40O
  Molecular Point Group: C1      
  Point Group used: C1
  
 
Number of optimization coordinates:   241
Number of independent coordinates:    241
Number of non-redundant coordinates:  207
Number of frozen coordinates:           0
Number of harmonic constraints:         0
 
Number of geometric degrees of freedom:   207
Maximum geometric degrees of freedom:     207
 " " " " " excluding dummy atoms:         207
 
 
  bond lengths (angstroms):
 
 P1      -Pd2     :   2.294980      P1      -C7      :   1.911256
 P1      -C10     :   1.907472      P1      -C14     :   1.875221
 Pd2     -C21     :   2.424002      Pd2     -C22     :   2.144306
 Pd2     -O93     :   2.082687      Pd2     -Na94    :   2.938515
 C6      -C7      :   1.533257      C6      -H29     :   1.093355
 C6      -H30     :   1.094700      C6      -H31     :   1.099535
 C7      -C8      :   1.539167      C7      -C9      :   1.534123
 C8      -H32     :   1.095863      C8      -H33     :   1.098941
 C8      -H34     :   1.095226      C9      -H35     :   1.094988
 C9      -H36     :   1.098450      C9      -H37     :   1.096464
 C10     -C11     :   1.541167      C10     -C12     :   1.539478
 C10     -C13     :   1.533733      C11     -H38     :   1.092688
 C11     -H39     :   1.095599      C11     -H40     :   1.099148
 C12     -H41     :   1.096381      C12     -H42     :   1.092526
 C12     -H43     :   1.098145      C13     -H44     :   1.095253
 C13     -H45     :   1.099339      C13     -H46     :   1.091840
 C14     -C15     :   1.368391      C14     -C16     :   1.513726
 C15     -C17     :   1.488860      C15     -C23     :   1.491329
 C16     -H47     :   1.093277      C16     -H48     :   1.094851
 C16     -H49     :   1.093395      C17     -C18     :   1.390215
 C17     -C22     :   1.432557      C18     -C19     :   1.407484
 C18     -H50     :   1.088000      C19     -C20     :   1.388152
 C19     -H51     :   1.087806      C20     -C21     :   1.415587
 C20     -H52     :   1.088114      C21     -C22     :   1.420422
 C21     -H53     :   1.087966      C22     -H54     :   1.090178
 C23     -C24     :   1.403411      C23     -C28     :   1.402367
 C24     -C25     :   1.392625      C24     -H55     :   1.087326
 C25     -C26     :   1.396263      C25     -H56     :   1.088055
 C26     -C27     :   1.395121      C26     -H57     :   1.087900
 C27     -C28     :   1.393536      C27     -H58     :   1.087892
 C28     -H59     :   1.087873      O93     -Na94    :   2.178319
 O93     -C95     :   1.398777      C95     -C96     :   1.539547
 C95     -C100    :   1.539612      C95     -C104    :   1.538195
 C96     -H97     :   1.099579      C96     -H98     :   1.099391
 C96     -H99     :   1.096045      C100    -H101    :   1.100465
 C100    -H102    :   1.098640      C100    -H103    :   1.094922
 C104    -H105    :   1.097810      C104    -H106    :   1.099115
 C104    -H107    :   1.095389
 
  bond angles:
 
 C7      -P1      -Pd2     : 115.370827  C10     -P1      -Pd2     : 113.035567
 C10     -P1      -C7      : 111.641743  C14     -P1      -Pd2     : 106.819968
 C14     -P1      -C7      : 101.360292  C14     -P1      -C10     : 107.507979
 C21     -Pd2     -P1      : 133.112116  C22     -Pd2     -P1      :  98.291185
 C22     -Pd2     -C21     :  35.566258  O93     -Pd2     -P1      : 167.312304
 O93     -Pd2     -C21     :  56.835495  O93     -Pd2     -C22     :  89.948515
 Na94    -Pd2     -P1      : 123.937808  Na94    -Pd2     -C21     :  69.326015
 Na94    -Pd2     -C22     :  80.786473  Na94    -Pd2     -O93     :  47.765142
 H29     -C6      -C7      : 113.149683  H30     -C6      -C7      : 111.280851
 H30     -C6      -H29     : 108.562638  H31     -C6      -C7      : 109.078781
 H31     -C6      -H29     : 107.506435  H31     -C6      -H30     : 107.014535
 C6      -C7      -P1      : 116.951190  C8      -C7      -P1      : 104.829827
 C8      -C7      -C6      : 108.004896  C9      -C7      -P1      : 108.400117
 C9      -C7      -C6      : 109.731712  C9      -C7      -C8      : 108.575737
 H32     -C8      -C7      : 111.594526  H33     -C8      -C7      : 109.443780
 H33     -C8      -H32     : 108.615874  H34     -C8      -C7      : 111.512281
 H34     -C8      -H32     : 107.527897  H34     -C8      -H33     : 108.031485
 H35     -C9      -C7      : 112.231557  H36     -C9      -C7      : 109.459112
 H36     -C9      -H35     : 107.253139  H37     -C9      -C7      : 111.270346
 H37     -C9      -H35     : 108.547531  H37     -C9      -H36     : 107.907603
 C11     -C10     -P1      : 107.039698  C12     -C10     -P1      : 105.692446
 C12     -C10     -C11     : 106.566257  C13     -C10     -P1      : 117.770688
 C13     -C10     -C11     : 108.104854  C13     -C10     -C12     : 111.078740
 H38     -C11     -C10     : 112.764854  H39     -C11     -C10     : 110.815520
 H39     -C11     -H38     : 107.888634  H40     -C11     -C10     : 109.249629
 H40     -C11     -H38     : 107.535292  H40     -C11     -H39     : 108.446364
 H41     -C12     -C10     : 110.366369  H42     -C12     -C10     : 113.408488
 H42     -C12     -H41     : 107.714812  H43     -C12     -C10     : 109.534524
 H43     -C12     -H41     : 108.020404  H43     -C12     -H42     : 107.619344
 H44     -C13     -C10     : 111.406013  H45     -C13     -C10     : 109.209862
 H45     -C13     -H44     : 107.009586  H46     -C13     -C10     : 113.454643
 H46     -C13     -H44     : 108.036972  H46     -C13     -H45     : 107.453231
 C15     -C14     -P1      : 119.674644  C16     -C14     -P1      : 119.674632
 C16     -C14     -C15     : 120.565586  C17     -C15     -C14     : 124.536364
 C23     -C15     -C14     : 122.027699  C23     -C15     -C17     : 113.416314
 H47     -C16     -C14     : 111.550013  H48     -C16     -C14     : 113.346654
 H48     -C16     -H47     : 107.788494  H49     -C16     -C14     : 110.581446
 H49     -C16     -H47     : 106.912490  H49     -C16     -H48     : 106.318201
 C18     -C17     -C15     : 121.498862  C22     -C17     -C15     : 119.340439
 C22     -C17     -C18     : 119.153399  C19     -C18     -C17     : 120.935891
 H50     -C18     -C17     : 119.089444  H50     -C18     -C19     : 119.901005
 C20     -C19     -C18     : 120.293274  H51     -C19     -C18     : 119.578780
 H51     -C19     -C20     : 120.122773  C21     -C20     -C19     : 120.364643
 H52     -C20     -C19     : 120.185255  H52     -C20     -C21     : 119.401374
 C20     -C21     -Pd2     : 109.034027  C22     -C21     -Pd2     :  61.409801
 C22     -C21     -C20     : 119.349363  H53     -C21     -Pd2     : 106.417654
 H53     -C21     -C20     : 120.003197  H53     -C21     -C22     : 119.850934
 C17     -C22     -Pd2     :  97.452156  C21     -C22     -Pd2     :  83.023941
 C21     -C22     -C17     : 119.606585  H54     -C22     -Pd2     : 101.239023
 H54     -C22     -C17     : 118.337289  H54     -C22     -C21     : 120.684289
 C24     -C23     -C15     : 120.583103  C28     -C23     -C15     : 120.907421
 C28     -C23     -C24     : 118.401805  C25     -C24     -C23     : 120.706887
 H55     -C24     -C23     : 119.234897  H55     -C24     -C25     : 120.058215
 C26     -C25     -C24     : 120.303136  H56     -C25     -C24     : 119.748653
 H56     -C25     -C26     : 119.946562  C27     -C26     -C25     : 119.533483
 H57     -C26     -C25     : 120.219826  H57     -C26     -C27     : 120.243657
 C28     -C27     -C26     : 120.092786  H58     -C27     -C26     : 120.208223
 H58     -C27     -C28     : 119.698188  C27     -C28     -C23     : 120.932966
 H59     -C28     -C23     : 119.031914  H59     -C28     -C27     : 120.032198
 Na94    -O93     -Pd2     :  87.171272  C95     -O93     -Pd2     : 114.923615
 C95     -O93     -Na94    : 140.034958  O93     -Na94    -Pd2     :  45.063585
 C96     -C95     -O93     : 110.971894  C100    -C95     -O93     : 110.853821
 C100    -C95     -C96     : 108.369222  C104    -C95     -O93     : 108.940018
 C104    -C95     -C96     : 108.826351  C104    -C95     -C100    : 108.830862
 H97     -C96     -C95     : 112.481207  H98     -C96     -C95     : 110.317828
 H98     -C96     -H97     : 108.196843  H99     -C96     -C95     : 108.762694
 H99     -C96     -H97     : 109.071641  H99     -C96     -H98     : 107.901590
 H101    -C100    -C95     : 112.075727  H102    -C100    -C95     : 109.496514
 H102    -C100    -H101    : 108.991436  H103    -C100    -C95     : 110.181214
 H103    -C100    -H101    : 108.786421  H103    -C100    -H102    : 107.177907
 H105    -C104    -C95     : 109.715720  H106    -C104    -C95     : 112.273233
 H106    -C104    -H105    : 108.085199  H107    -C104    -C95     : 110.262682
 H107    -C104    -H105    : 108.176014  H107    -C104    -H106    : 108.212951
 
  torsional angles:
 
 P1      -Pd2     -C21     -C20     :  99.581581
 P1      -Pd2     -C21     -C22     : -14.150653
 P1      -Pd2     -C21     -H53     :-129.642198
 P1      -Pd2     -C22     -C17     :  50.534140
 P1      -Pd2     -C22     -C21     : 169.609607
 P1      -Pd2     -C22     -H54     : -70.400277
 P1      -Pd2     -O93     -Na94    :  53.176620
 P1      -Pd2     -O93     -C95     : -92.231318
 P1      -Pd2     -Na94    -O93     :-167.765239
 P1      -C7      -C6      -H29     :  57.074689
 P1      -C7      -C6      -H30     : -65.478908
 P1      -C7      -C6      -H31     : 176.681773
 P1      -C7      -C8      -H32     : -57.636815
 P1      -C7      -C8      -H33     :-177.889366
 P1      -C7      -C8      -H34     :  62.639597
 P1      -C7      -C9      -H35     : -74.943797
 P1      -C7      -C9      -H36     : 166.093772
 P1      -C7      -C9      -H37     :  46.917982
 P1      -C10     -C11     -H38     :  67.953792
 P1      -C10     -C11     -H39     : -53.104824
 P1      -C10     -C11     -H40     :-172.532086
 P1      -C10     -C12     -H41     :  51.964933
 P1      -C10     -C12     -H42     : -68.991680
 P1      -C10     -C12     -H43     : 170.771151
 P1      -C10     -C13     -H44     : -64.958504
 P1      -C10     -C13     -H45     : 177.051107
 P1      -C10     -C13     -H46     :  57.223516
 P1      -C14     -C15     -C17     :  14.558904
 P1      -C14     -C15     -C23     :-163.722218
 P1      -C14     -C16     -H47     :-175.685163
 P1      -C14     -C16     -H48     :  62.429792
 P1      -C14     -C16     -H49     : -56.843330
 Pd2     -P1      -C7      -C6      : 161.456305
 Pd2     -P1      -C7      -C8      :  41.896656
 Pd2     -P1      -C7      -C9      : -73.911995
 Pd2     -P1      -C10     -C11     :  49.576529
 Pd2     -P1      -C10     -C12     : -63.743529
 Pd2     -P1      -C10     -C13     : 171.496041
 Pd2     -P1      -C14     -C15     : -25.270261
 Pd2     -P1      -C14     -C16     : 158.065322
 Pd2     -C21     -C20     -C19     : -69.506013
 Pd2     -C21     -C20     -H52     : 113.027850
 Pd2     -C21     -C22     -C17     :  94.632158
 Pd2     -C21     -C22     -H54     : -98.958330
 Pd2     -C22     -C17     -C15     : -86.920054
 Pd2     -C22     -C17     -C18     :  92.112015
 Pd2     -C22     -C21     -C20     : -96.872251
 Pd2     -C22     -C21     -H53     :  93.345699
 Pd2     -O93     -C95     -C96     :  67.440549
 Pd2     -O93     -C95     -C100    : -53.034937
 Pd2     -O93     -C95     -C104    :-172.763740
 Pd2     -Na94    -O93     -C95     : 126.720794
 C6      -C7      -P1      -C10     : -67.694756
 C6      -C7      -P1      -C14     :  46.499922
 C6      -C7      -C8      -H32     : 176.979877
 C6      -C7      -C8      -H33     :  56.727327
 C6      -C7      -C8      -H34     : -62.743711
 C6      -C7      -C9      -H35     :  53.867900
 C6      -C7      -C9      -H36     : -65.094531
 C6      -C7      -C9      -H37     : 175.729679
 C7      -P1      -Pd2     -C21     :-110.496125
 C7      -P1      -Pd2     -C22     :-118.758004
 C7      -P1      -Pd2     -O93     : 111.214452
 C7      -P1      -Pd2     -Na94    : 156.806467
 C7      -P1      -C10     -C11     : -82.461326
 C7      -P1      -C10     -C12     : 164.218616
 C7      -P1      -C10     -C13     :  39.458186
 C7      -P1      -C14     -C15     :  95.881473
 C7      -P1      -C14     -C16     : -80.782944
 C8      -C7      -P1      -C10     : 172.745595
 C8      -C7      -P1      -C14     : -73.059727
 C8      -C7      -C6      -H29     : 174.925642
 C8      -C7      -C6      -H30     :  52.372044
 C8      -C7      -C6      -H31     : -65.467274
 C8      -C7      -C9      -H35     : 171.705434
 C8      -C7      -C9      -H36     :  52.743003
 C8      -C7      -C9      -H37     : -66.432787
 C9      -C7      -P1      -C10     :  56.936945
 C9      -C7      -P1      -C14     : 171.131623
 C9      -C7      -C6      -H29     : -66.882188
 C9      -C7      -C6      -H30     : 170.564215
 C9      -C7      -C6      -H31     :  52.724896
 C9      -C7      -C8      -H32     :  58.050083
 C9      -C7      -C8      -H33     : -62.202468
 C9      -C7      -C8      -H34     : 178.326494
 C10     -P1      -Pd2     -C21     : 119.325235
 C10     -P1      -Pd2     -C22     : 111.063356
 C10     -P1      -Pd2     -O93     : -18.964187
 C10     -P1      -Pd2     -Na94    :  26.627828
 C10     -P1      -C14     -C15     :-146.871794
 C10     -P1      -C14     -C16     :  36.463790
 C11     -C10     -P1      -C14     : 167.211992
 C11     -C10     -C12     -H41     : -61.684170
 C11     -C10     -C12     -H42     : 177.359217
 C11     -C10     -C12     -H43     :  57.122048
 C11     -C10     -C13     -H44     :  56.413673
 C11     -C10     -C13     -H45     : -61.576716
 C11     -C10     -C13     -H46     : 178.595693
 C12     -C10     -P1      -C14     :  53.891935
 C12     -C10     -C11     -H38     :-179.320819
 C12     -C10     -C11     -H39     :  59.620565
 C12     -C10     -C11     -H40     : -59.806698
 C12     -C10     -C13     -H44     : 172.997425
 C12     -C10     -C13     -H45     :  55.007035
 C12     -C10     -C13     -H46     : -64.820556
 C13     -C10     -P1      -C14     : -70.868495
 C13     -C10     -C11     -H38     : -59.846855
 C13     -C10     -C11     -H39     : 179.094529
 C13     -C10     -C11     -H40     :  59.667267
 C13     -C10     -C12     -H41     :-179.208343
 C13     -C10     -C12     -H42     :  59.835044
 C13     -C10     -C12     -H43     : -60.402125
 C14     -P1      -Pd2     -C21     :   1.287349
 C14     -P1      -Pd2     -C22     :  -6.974530
 C14     -P1      -Pd2     -O93     :-137.002074
 C14     -P1      -Pd2     -Na94    : -91.410059
 C14     -C15     -C17     -C18     :-122.781947
 C14     -C15     -C17     -C22     :  56.226657
 C14     -C15     -C23     -C24     :-132.024840
 C14     -C15     -C23     -C28     :  51.808092
 C15     -C14     -C16     -H47     :   7.680683
 C15     -C14     -C16     -H48     :-114.204362
 C15     -C14     -C16     -H49     : 126.522517
 C15     -C17     -C18     -C19     : 173.807208
 C15     -C17     -C18     -H50     :  -3.068533
 C15     -C17     -C22     -C21     :-173.103810
 C15     -C17     -C22     -H54     :  20.169373
 C15     -C23     -C24     -C25     :-178.309383
 C15     -C23     -C24     -H55     :   1.702237
 C15     -C23     -C28     -C27     : 177.692521
 C15     -C23     -C28     -H59     :  -1.685809
 C16     -C14     -C15     -C17     :-168.806942
 C16     -C14     -C15     -C23     :  12.911935
 C17     -C15     -C23     -C24     :  49.518150
 C17     -C15     -C23     -C28     :-126.648917
 C17     -C18     -C19     -C20     :   0.721503
 C17     -C18     -C19     -H51     :-178.452126
 C17     -C22     -Pd2     -C21     :-119.075467
 C17     -C22     -Pd2     -O93     :-139.148090
 C17     -C22     -Pd2     -Na94    : 173.758964
 C17     -C22     -C21     -C20     :  -2.240093
 C17     -C22     -C21     -H53     :-172.022142
 C18     -C17     -C15     -C23     :  55.630049
 C18     -C17     -C22     -C21     :   5.928259
 C18     -C17     -C22     -H54     :-160.798558
 C18     -C19     -C20     -C21     :   3.081712
 C18     -C19     -C20     -H52     :-179.472091
 C19     -C18     -C17     -C22     :  -5.203207
 C19     -C20     -C21     -C22     :  -2.259676
 C19     -C20     -C21     -H53     : 167.506561
 C20     -C19     -C18     -H50     : 177.572085
 C20     -C21     -Pd2     -C22     : 113.732233
 C20     -C21     -Pd2     -O93     : -90.472482
 C20     -C21     -Pd2     -Na94    :-142.764119
 C20     -C21     -C22     -H54     : 164.169418
 C21     -Pd2     -C22     -H54     : 119.990115
 C21     -Pd2     -O93     -Na94    : -91.355138
 C21     -Pd2     -O93     -C95     : 123.236924
 C21     -Pd2     -Na94    -O93     :  63.440318
 C21     -C20     -C19     -H51     :-177.749174
 C21     -C22     -Pd2     -O93     : -20.072622
 C21     -C22     -Pd2     -Na94    : -67.165569
 C22     -Pd2     -C21     -H53     :-115.491545
 C22     -Pd2     -O93     -Na94    : -77.558702
 C22     -Pd2     -O93     -C95     : 137.033359
 C22     -Pd2     -Na94    -O93     :  98.396969
 C22     -C17     -C15     -C23     :-125.361347
 C22     -C17     -C18     -H50     : 177.921053
 C22     -C21     -Pd2     -O93     : 155.795285
 C22     -C21     -Pd2     -Na94    : 103.503648
 C22     -C21     -C20     -H52     :-179.725813
 C23     -C24     -C25     -C26     :   1.285718
 C23     -C24     -C25     -H56     :-179.181601
 C23     -C28     -C27     -C26     :  -0.069808
 C23     -C28     -C27     -H58     :-179.744514
 C24     -C23     -C28     -C27     :   1.443671
 C24     -C23     -C28     -H59     :-177.934659
 C24     -C25     -C26     -C27     :   0.127452
 C24     -C25     -C26     -H57     : 179.495373
 C25     -C24     -C23     -C28     :  -2.047906
 C25     -C26     -C27     -C28     :  -0.730520
 C25     -C26     -C27     -H58     : 178.942514
 C26     -C25     -C24     -H55     :-178.725998
 C26     -C27     -C28     -H59     : 179.302343
 C27     -C26     -C25     -H56     :-179.404302
 C28     -C23     -C24     -H55     : 177.963714
 C28     -C27     -C26     -H57     : 179.901713
 H50     -C18     -C19     -H51     :  -1.601544
 H51     -C19     -C20     -H52     :  -0.302977
 H52     -C20     -C21     -H53     :  -9.959576
 H53     -C21     -Pd2     -O93     :  40.303739
 H53     -C21     -Pd2     -Na94    : -11.987898
 H53     -C21     -C22     -H54     :  -5.612631
 H54     -C22     -Pd2     -O93     :  99.917493
 H54     -C22     -Pd2     -Na94    :  52.824546
 H55     -C24     -C25     -H56     :   0.806683
 H56     -C25     -C26     -H57     :  -0.036381
 H57     -C26     -C27     -H58     :  -0.425253
 H58     -C27     -C28     -H59     :  -0.372363
 O93     -C95     -C96     -H97     :-179.186993
 O93     -C95     -C96     -H98     :  59.908020
 O93     -C95     -C96     -H99     : -58.253096
 O93     -C95     -C100    -H101    :-177.946050
 O93     -C95     -C100    -H102    :  60.981440
 O93     -C95     -C100    -H103    : -56.659576
 O93     -C95     -C104    -H105    : -58.290236
 O93     -C95     -C104    -H106    :-178.497519
 O93     -C95     -C104    -H107    :  60.756190
 Na94    -Pd2     -O93     -C95     :-145.407938
 Na94    -O93     -C95     -C96     : -50.577886
 Na94    -O93     -C95     -C100    :-171.053372
 Na94    -O93     -C95     -C104    :  69.217825
 C96     -C95     -C100    -H101    :  60.044610
 C96     -C95     -C100    -H102    : -61.027900
 C96     -C95     -C100    -H103    :-178.668916
 C96     -C95     -C104    -H105    :  62.826352
 C96     -C95     -C104    -H106    : -57.380931
 C96     -C95     -C104    -H107    :-178.127222
 H97     -C96     -C95     -C100    : -57.249933
 H97     -C96     -C95     -C104    :  60.949489
 H98     -C96     -C95     -C100    :-178.154920
 H98     -C96     -C95     -C104    : -59.955498
 H99     -C96     -C95     -C100    :  63.683964
 H99     -C96     -C95     -C104    :-178.116614
 C100    -C95     -C104    -H105    :-179.265756
 C100    -C95     -C104    -H106    :  60.526961
 C100    -C95     -C104    -H107    : -60.219330
 H101    -C100    -C95     -C104    : -58.151943
 H102    -C100    -C95     -C104    :-179.224454
 H103    -C100    -C95     -C104    :  63.134531
 
  nuclear repulsion energy.......          4053.455572627 hartrees
  
  Detected an organometallic with only one TM atom. 
  
  
 
  Will use High-Quality Initial guess for organometallics
       including d-d repulsion (iguess=30)
 
 Non-default options chosen:
   SCF calculation type: DFT(b3pw91-d3)              
   DFT=Becke_3_Parameter/HF+Slater+Becke88+PW91+PW-GGAIIC (B3PW91-D3)
   Geometry will be optimized in redundant internal coordinates
   Solvation energy will be computed using PBF
     -solute cavity energy will not be included
     -surface area terms will not be included
   Vibrational frequencies and related properties will be computed
      from analytic second derivatives
   IR intensities will be computed
   Thermochemical properties will be computed
   Maximum number of geometry steps: 100
   Scaling standard convergence criteria by a factor of   5.00
   Solvent: benzene                                                         
   Internal dielectric constant:    1.000
   Continuum dielectric constant:   2.283
   Solvent probe molecule radius:   2.600
  
 Non-default print settings:
     11=  2
  
 Temporary integer options set:
     21= -1  73=  2
  
  atom       vdw   vdw2    cov     mass  grid  daf  charge   basis
  P1        2.147  2.074  1.060   30.974    Y    Y      Y    ps_6-31g*
  Pd2       1.450  1.450  1.280  105.903    Y    Y      Y    lacv3p*
  C6        1.949  1.900  0.770   12.000    Y    Y      Y    ps_6-31g*
  C7        1.949  1.900  0.770   12.000    Y    Y      Y    ps_6-31g*
  C8        1.949  1.900  0.770   12.000    Y    Y      Y    ps_6-31g*
  C9        1.949  1.900  0.770   12.000    Y    Y      Y    ps_6-31g*
  C10       1.949  1.900  0.770   12.000    Y    Y      Y    ps_6-31g*
  C11       1.949  1.900  0.770   12.000    Y    Y      Y    ps_6-31g*
  C12       1.949  1.900  0.770   12.000    Y    Y      Y    ps_6-31g*
  C13       1.949  1.900  0.770   12.000    Y    Y      Y    ps_6-31g*
  C14       1.949  1.900  0.770   12.000    Y    Y      Y    ps_6-31g*
  C15       1.949  1.900  0.770   12.000    Y    Y      Y    ps_6-31g*
  C16       1.949  1.900  0.770   12.000    Y    Y      Y    ps_6-31g*
  C17       1.949  1.900  0.770   12.000    Y    Y      Y    ps_6-31g*
  C18       1.949  1.900  0.770   12.000    Y    Y      Y    ps_6-31g*
  C19       1.949  1.900  0.770   12.000    Y    Y      Y    ps_6-31g*
  C20       1.949  1.900  0.770   12.000    Y    Y      Y    ps_6-31g*
  C21       1.949  1.900  0.770   12.000    Y    Y      Y    ps_6-31g*
  C22       1.949  1.900  0.770   12.000    Y    Y      Y    ps_6-31g*
  C23       1.949  1.900  0.770   12.000    Y    Y      Y    ps_6-31g*
  C24       1.949  1.900  0.770   12.000    Y    Y      Y    ps_6-31g*
  C25       1.949  1.900  0.770   12.000    Y    Y      Y    ps_6-31g*
  C26       1.949  1.900  0.770   12.000    Y    Y      Y    ps_6-31g*
  C27       1.949  1.900  0.770   12.000    Y    Y      Y    ps_6-31g*
  C28       1.949  1.900  0.770   12.000    Y    Y      Y    ps_6-31g*
  H29       1.597  1.150  0.320    1.008    Y    Y      Y    ps_6-31g*
  H30       1.597  1.150  0.320    1.008    Y    Y      Y    ps_6-31g*
  H31       1.597  1.150  0.320    1.008    Y    Y      Y    ps_6-31g*
  H32       1.597  1.150  0.320    1.008    Y    Y      Y    ps_6-31g*
  H33       1.597  1.150  0.320    1.008    Y    Y      Y    ps_6-31g*
  H34       1.597  1.150  0.320    1.008    Y    Y      Y    ps_6-31g*
  H35       1.597  1.150  0.320    1.008    Y    Y      Y    ps_6-31g*
  H36       1.597  1.150  0.320    1.008    Y    Y      Y    ps_6-31g*
  H37       1.597  1.150  0.320    1.008    Y    Y      Y    ps_6-31g*
  H38       1.597  1.150  0.320    1.008    Y    Y      Y    ps_6-31g*
  H39       1.597  1.150  0.320    1.008    Y    Y      Y    ps_6-31g*
  H40       1.597  1.150  0.320    1.008    Y    Y      Y    ps_6-31g*
  H41       1.597  1.150  0.320    1.008    Y    Y      Y    ps_6-31g*
  H42       1.597  1.150  0.320    1.008    Y    Y      Y    ps_6-31g*
  H43       1.597  1.150  0.320    1.008    Y    Y      Y    ps_6-31g*
  H44       1.597  1.150  0.320    1.008    Y    Y      Y    ps_6-31g*
  H45       1.597  1.150  0.320    1.008    Y    Y      Y    ps_6-31g*
  H46       1.597  1.150  0.320    1.008    Y    Y      Y    ps_6-31g*
  H47       1.597  1.150  0.320    1.008    Y    Y      Y    ps_6-31g*
  H48       1.597  1.150  0.320    1.008    Y    Y      Y    ps_6-31g*
  H49       1.597  1.150  0.320    1.008    Y    Y      Y    ps_6-31g*
  H50       1.597  1.150  0.320    1.008    Y    Y      Y    ps_6-31g*
  H51       1.597  1.150  0.320    1.008    Y    Y      Y    ps_6-31g*
  H52       1.597  1.150  0.320    1.008    Y    Y      Y    ps_6-31g*
  H53       1.597  1.150  0.320    1.008    Y    Y      Y    ps_6-31g*
  H54       1.597  1.150  0.320    1.008    Y    Y      Y    ps_6-31g*
  H55       1.597  1.150  0.320    1.008    Y    Y      Y    ps_6-31g*
  H56       1.597  1.150  0.320    1.008    Y    Y      Y    ps_6-31g*
  H57       1.597  1.150  0.320    1.008    Y    Y      Y    ps_6-31g*
  H58       1.597  1.150  0.320    1.008    Y    Y      Y    ps_6-31g*
  H59       1.597  1.150  0.320    1.008    Y    Y      Y    ps_6-31g*
  O93       1.702  1.600  0.730   15.995    Y    Y      Y    ps_6-31g*
  Na94      2.308  1.492  1.540   22.990    Y    Y      Y    ps_6-31g*
  C95       1.949  1.900  0.770   12.000    Y    Y      Y    ps_6-31g*
  C96       1.949  1.900  0.770   12.000    Y    Y      Y    ps_6-31g*
  H97       1.597  1.150  0.320    1.008    Y    Y      Y    ps_6-31g*
  H98       1.597  1.150  0.320    1.008    Y    Y      Y    ps_6-31g*
  H99       1.597  1.150  0.320    1.008    Y    Y      Y    ps_6-31g*
  C100      1.949  1.900  0.770   12.000    Y    Y      Y    ps_6-31g*
  H101      1.597  1.150  0.320    1.008    Y    Y      Y    ps_6-31g*
  H102      1.597  1.150  0.320    1.008    Y    Y      Y    ps_6-31g*
  H103      1.597  1.150  0.320    1.008    Y    Y      Y    ps_6-31g*
  C104      1.949  1.900  0.770   12.000    Y    Y      Y    ps_6-31g*
  H105      1.597  1.150  0.320    1.008    Y    Y      Y    ps_6-31g*
  H106      1.597  1.150  0.320    1.008    Y    Y      Y    ps_6-31g*
  H107      1.597  1.150  0.320    1.008    Y    Y      Y    ps_6-31g*
 
  atom      formal  2spin      esp    mulk    frag
  P1           0       0        Y    0.000       0
  Pd2          0       0        Y    0.000       0
  O93          0       0        Y    0.000       0
  
  end of program pre
   
 Time(pre)  user:       3.078  user+sys:       3.078  wallclock:       1.197
  
  start of program onee
  
  smallest eigenvalue of S:    4.525E-04
  number of canonical orbitals.....          537
  end of program onee
   
 Time(onee)  user:       4.702  user+sys:       4.702  wallclock:       0.901
  
  start of program hfig
  
  initial wavefunction generated automatically from atomic wavefunctions
  Only one possible d-orb occupation 
  Skip d-d repulsion considerations 
 
  Irreducible     Total no   No of occupied orbitals 
  representation  orbitals   Shell_1  Shell_2    ...
  No Symm          537        127
  ------------------------
  Orbital occupation/shell    1.000
 
  end of program hfig
   
 Time(hfig)  user:       1.713  user+sys:       1.713  wallclock:       0.862
  
  start of program probe
  
  end of program probe
   
 Time(probe)  user:       1.022  user+sys:       1.022  wallclock:       0.362
  
  start of program grid
  
   grid     grid set  grid #  grid sym
  ------    --------  ------  --------
  coarse        0        0        1
  medium        2        1        1
  fine          0        0        1
  ultrafine     4        2        1
  charge       -1        3        1
  gradient      4        2        1
  density       0        0        1
  DFT-fine    -11        4        1
  DFT-med.    -10        5        1
  DFT-grad    -12        6        1
  DFT-der2     -8        7        1
  DFT-cphf     -9        8        1
  LMP2-enrg     4        2        1
  LMP2-grad     2        1        1
  DFT-cphf2   -15        9        1
  PBF-dens      0        0        1
  plotting      0        0        1
  Rel-grad    -17        0        1
  
  number of gridpoints: 
     atom           P1         Pd2          C6          C7          C8          C9         C10
  grid # 1         609         351          81          88          80          80          88
  grid # 2         424         314         237         362         237         239         368
  grid # 3           6         194           6           6           6           6           6
  grid # 4        8582        8582        8582        8582        8582        8582        8582
  grid # 5        1192        1192        1192        1192        1192        1192        1192
  grid # 6        9488        9488        6164        6164        6164        6164        6164
  grid # 7       23054       32756       14018       14018       14018       14018       14018
  grid # 8         724        1144         750         750         750         750         750
  grid # 9         380        2168         406         406         406         406         406
   
  number of gridpoints: 
     atom          C11         C12         C13         C14         C15         C16         C17
  grid # 1          79          80          79          86          99          79          98
  grid # 2         240         238         239         387         353         242         356
  grid # 3           6           6           6           8          11           6           7
  grid # 4        8582        8582        8582        8582        8582        8582        8582
  grid # 5        1192        1192        1192        1192        1192        1192        1192
  grid # 6        6164        6164        6164        6164        6164        6164        6164
  grid # 7       14018       14018       14018       14018       14018       14018       14018
  grid # 8         750         750         750         750         750         750         750
  grid # 9         406         406         406         406         406         406         406
   
  number of gridpoints: 
     atom          C18         C19         C20         C21         C22         C23         C24
  grid # 1          94          95          94          93          90         100          95
  grid # 2         325         324         322         318         322         355         326
  grid # 3          17          29          28          20          13          10          27
  grid # 4        8582        8582        8582        8582        8582        8582        8582
  grid # 5        1192        1192        1192        1192        1192        1192        1192
  grid # 6        6164        6164        6164        6164        6164        6164        6164
  grid # 7       14018       14018       14018       14018       14018       14018       14018
  grid # 8         750         750         750         750         750         750         750
  grid # 9         406         406         406         406         406         406         406
   
  number of gridpoints: 
     atom          C25         C26         C27         C28         H29         H30         H31
  grid # 1          97          97          96          95         103         101         109
  grid # 2         324         324         324         323         427         422         447
  grid # 3          48          50          39          17         146         131         273
  grid # 4        8582        8582        8582        8582        8582        8582        8582
  grid # 5        1192        1192        1192        1192        1192        1192        1192
  grid # 6        6164        6164        6164        6164        6164        6164        6164
  grid # 7       14018       14018       14018       14018       15170       15170       15170
  grid # 8         750         750         750         750         792         792         792
  grid # 9         406         406         406         406         420         420         420
   
  number of gridpoints: 
     atom          H32         H33         H34         H35         H36         H37         H38
  grid # 1         103         108         103         102         108         105         105
  grid # 2         430         448         433         429         446         438         432
  grid # 3         121         274         101         164         274         149         164
  grid # 4        8582        8582        8582        8582        8582        8582        8582
  grid # 5        1192        1192        1192        1192        1192        1192        1192
  grid # 6        6164        6164        6164        6164        6164        6164        6164
  grid # 7       15170       15170       15170       15170       15170       15170       15170
  grid # 8         792         792         792         792         792         792         792
  grid # 9         420         420         420         420         420         420         420
   
  number of gridpoints: 
     atom          H39         H40         H41         H42         H43         H44         H45
  grid # 1         102         107         101         103         108         104         109
  grid # 2         437         443         432         431         447         428         446
  grid # 3         110         276          92         184         270         160         274
  grid # 4        8582        8582        8582        8582        8582        8582        8582
  grid # 5        1192        1192        1192        1192        1192        1192        1192
  grid # 6        6164        6164        6164        6164        6164        6164        6164
  grid # 7       15170       15170       15170       15170       15170       15170       15170
  grid # 8         792         792         792         792         792         792         792
  grid # 9         420         420         420         420         420         420         420
   
  number of gridpoints: 
     atom          H46         H47         H48         H49         H50         H51         H52
  grid # 1         103         107         103          98         112         116         106
  grid # 2         429         439         424         419         452         464         436
  grid # 3         145         235         142         140         256         385         219
  grid # 4        8582        8582        8582        8582        8582        8582        8582
  grid # 5        1192        1192        1192        1192        1192        1192        1192
  grid # 6        6164        6164        6164        6164        6164        6164        6164
  grid # 7       15170       15170       15170       15170       15170       15170       15170
  grid # 8         792         792         792         792         792         792         792
  grid # 9         420         420         420         420         420         420         420
   
  number of gridpoints: 
     atom          H53         H54         H55         H56         H57         H58         H59
  grid # 1         102         109         113         118         118         118         110
  grid # 2         435         446         458         467         467         467         441
  grid # 3         198         181         309         420         420         420         180
  grid # 4        8582        8582        8582        8582        8582        8582        8582
  grid # 5        1192        1192        1192        1192        1192        1192        1192
  grid # 6        6164        6164        6164        6164        6164        6164        6164
  grid # 7       15170       15170       15170       15170       15170       15170       15170
  grid # 8         792         792         792         792         792         792         792
  grid # 9         420         420         420         420         420         420         420
   
  number of gridpoints: 
     atom          O93        Na94         C95         C96         H97         H98         H99
  grid # 1         111         707          91          81         108         109         104
  grid # 2         460         650         322         236         452         451         437
  grid # 3           9         300           6           6         294         237         143
  grid # 4        8582        8582        8582        8582        8582        8582        8582
  grid # 5        1192        1192        1192        1192        1192        1192        1192
  grid # 6        6164        9488        6164        6164        6164        6164        6164
  grid # 7       23358       21102       14018       14018       15170       15170       15170
  grid # 8         774         642         750         750         792         792         792
  grid # 9         412         338         406         406         420         420         420
   
  number of gridpoints: 
     atom         C100        H101        H102        H103        C104        H105        H106
  grid # 1          81         109         102          99          80         109         109
  grid # 2         239         451         429         416         238         452         449
  grid # 3           6         291         119          97           6         242         289
  grid # 4        8582        8582        8582        8582        8582        8582        8582
  grid # 5        1192        1192        1192        1192        1192        1192        1192
  grid # 6        6164        6164        6164        6164        6164        6164        6164
  grid # 7       14018       15170       15170       15170       14018       15170       15170
  grid # 8         750         792         792         792         750         792         792
  grid # 9         406         420         420         420         406         420         420
   
  number of gridpoints: 
     atom         H107       total
  grid # 1         107        8444
  grid # 2         446       27611
  grid # 3         234        9670
  grid # 4        8582      609322
  grid # 5        1192       84632
  grid # 6        6164      447616
  grid # 7       15170     1085556
  grid # 8         792       55214
  grid # 9         420       31060
   
  end of program grid
   
 Time(grid)  user:     256.319  user+sys:     256.319  wallclock:      19.138
  
  start of program rwr
  
  end of program rwr
   
 Time(rwr)  user:      52.436  user+sys:      52.436  wallclock:      12.540
  
  start of program scf
  
 number of electrons..........        254
 number of alpha electrons....        127
 number of beta electrons.....        127
 number of orbitals, total....        537
 number of doubly-occ'd orbs..        127
 number of open shell orbs....          0
 number of occupied orbitals..        127
 number of virtual orbitals...        410
 number of hamiltonians.......          1
 number of shells.............          1
 SCF type: DFT=Becke_3_Parameter/HF+Slater+Becke88+PW91+PW-GGAIIC (B3PW91-D3)
 Energy computed using pseudospectral method.
 Convergence Criterion:
    Energy (econv):       1.00E-05
    RMS density (dconv):  5.00E-06
  
       i  u  d  i  g                   
       t  p  i  c  r                                 RMS    maximum
       e  d  i  u  i                       energy  density   DIIS  
       r  t  s  t  d       total energy    change  change    error 
  
etot    1  N  N  5  M   -1754.06668693384           2.4E-03  1.7E-01
etot    2  Y  Y  6  M   -1756.88007285213  2.8E+00  3.4E-03  1.0E-01
etot    3  Y  Y  6  M   -1757.52726558425  6.5E-01  1.9E-03  5.4E-02
etot    4  N  Y  2  U   -1757.97117625150  4.4E-01  1.1E-03  4.7E-02
etot    5  Y  Y  6  M   -1758.07729992015  1.1E-01  7.2E-04  2.6E-02
etot    6  N  Y  2  U   -1758.08424127972  6.9E-03  4.2E-04  7.7E-03
etot    7  Y  Y  6  M   -1758.08768432474  3.4E-03  1.1E-04  2.5E-03
etot    8  Y  Y  6  M   -1758.08999758719  2.3E-03  3.0E-05  5.3E-04
etot    9  N  Y  2  U   -1758.09071514830  7.2E-04  1.9E-05  1.9E-04
etot   10  N  Y  2  U   -1758.09074275630  2.8E-05  1.4E-05  1.7E-04
etot   11  N  Y  2  U   -1758.09076096368  1.8E-05  1.2E-05  1.1E-04
etot   12  N  Y  2  U   -1758.09076967637  8.7E-06  8.5E-06  7.7E-05
etot   13  N  Y  2  U   -1758.09077441360  4.7E-06  5.5E-06  5.5E-05
etot   14  N  Y  2  U   -1758.09077613665  1.7E-06  4.6E-06  3.1E-05
etot   15  N  N  2  U   -1758.09077702772  8.9E-07  0.0E+00  0.0E+00
 
  Computing the dispersion energy correction and its gradients...
  
  
 Energy components, in hartrees:
   (A)  Nuclear repulsion............    4053.45557262686
   (E)  Total one-electron terms.....  -10530.52785959963
   (F)    Electron-nuclear...........  -12199.44584405697
   (H)    Kinetic....................    1668.91798445734
   (I)  Total two-electron terms.....    4718.98150994504
   (J)    Coulomb....................    4939.39183401788
   (K)    Exchange+Correlation.......    -220.41032407284
   (L)  Electronic energy............   -5811.54634965459  (E+I)
   (N0) D3 correction................      -0.12809997849
   (N)  Total energy.................   -1758.21887700621  (A+L+N0)
   (O)  Gas phase energy.............   -1758.21887700621
  
 SCFE: SCF energy: DFT(b3pw91-d3)     -1758.21887700621 hartrees   iterations:  15
  
 
 HOMO energy:    -0.11269
 LUMO energy:    -0.05502
 
  Orbital energies (hartrees): 
   -77.04183   -38.49394   -19.04574   -10.18670   -10.18040   -10.17804
   -10.17610   -10.17339   -10.17139   -10.16618   -10.16571   -10.16500
   -10.16473   -10.16321   -10.15923   -10.15834   -10.15784   -10.15391
   -10.15388   -10.14920   -10.14756   -10.14439   -10.14415   -10.13786
   -10.13661   -10.13617   -10.13501   -10.12636   -10.11767   -10.10834
    -6.54095    -4.69905    -4.69885    -4.69528    -3.25234    -2.25547
    -1.98272    -1.97480    -1.96838    -1.18462    -1.18332    -1.18117
    -0.92699    -0.85877    -0.83286    -0.81859    -0.79978    -0.79391
    -0.74413    -0.74070    -0.73748    -0.72712    -0.72023    -0.69157
    -0.68400    -0.67581    -0.67291    -0.66686    -0.65945    -0.65109
    -0.63350    -0.60048    -0.59282    -0.58159    -0.57477    -0.54282
    -0.53195    -0.51509    -0.50594    -0.49622    -0.47589    -0.45944
    -0.45876    -0.45052    -0.44364    -0.44047    -0.43345    -0.43175
    -0.42459    -0.42352    -0.42107    -0.41791    -0.41422    -0.41404
    -0.41227    -0.40758    -0.40557    -0.40044    -0.39563    -0.38668
    -0.38460    -0.37506    -0.37186    -0.37116    -0.36729    -0.36437
    -0.35999    -0.35566    -0.35318    -0.35121    -0.34759    -0.33855
    -0.33667    -0.33475    -0.32959    -0.32697    -0.32312    -0.31789
    -0.31742    -0.31620    -0.30954    -0.30073    -0.29275    -0.28608
    -0.27503    -0.26265    -0.25665    -0.25162    -0.24531    -0.22599
    -0.22045    -0.19590    -0.18673    -0.17844    -0.17613    -0.16056
    -0.11269    -0.05502    -0.02436     0.00086     0.00557     0.00620
     0.01219     0.02839     0.03128     0.04596     0.05559
 
  end of program scf
   
 Time(scf)  user:     603.265  user+sys:     603.265  wallclock:      59.456
  
  start of program der1a
  
  end of program der1a
   
 Time(der1a)  user:      12.471  user+sys:      12.471  wallclock:       1.390
  
  start of program rwr
  
  end of program rwr
   
 Time(rwr)  user:      29.637  user+sys:      29.637  wallclock:      12.777
  
  start of program der1b
  
   
  forces (hartrees/bohr) : total     
   
 atom  label           x              y              z
 ---- --------   -------------  -------------  -------------
    1 P1          2.320962E-03  -8.136172E-03   1.360966E-02
    2 Pd2        -3.035940E-03   2.069360E-02  -4.503076E-02
    3 C6          2.339992E-04   1.081134E-04   2.465982E-04
    4 C7          1.983488E-05   4.600760E-04  -5.497074E-04
    5 C8         -9.875899E-04   5.532927E-05   2.666391E-04
    6 C9          3.090869E-04   1.012040E-04   6.030227E-04
    7 C10         2.973943E-04   3.143605E-04   1.459574E-03
    8 C11        -2.042791E-03   4.309681E-04  -7.650826E-05
    9 C12        -8.084023E-04   1.132480E-03  -3.078956E-03
   10 C13        -9.186301E-04  -3.161162E-04   4.907615E-05
   11 C14        -6.896457E-04   1.277981E-03  -5.080778E-03
   12 C15         5.087655E-04   6.886447E-04   3.100007E-03
   13 C16         3.241564E-04  -1.742688E-03   3.080307E-04
   14 C17        -7.349021E-03   2.812626E-03  -2.317569E-03
   15 C18         6.915363E-03   1.484724E-03   5.970717E-03
   16 C19        -1.712357E-03  -2.793546E-03  -8.732163E-03
   17 C20        -1.944684E-02  -1.494333E-02   8.637355E-04
   18 C21         4.946437E-03  -5.122319E-02   6.289012E-04
   19 C22         5.052744E-03  -1.362650E-02   6.797940E-03
   20 C23        -2.789179E-04   3.963596E-04  -2.799849E-04
   21 C24         5.044471E-04  -5.210040E-04  -1.285570E-03
   22 C25         7.749480E-05   6.374298E-04  -2.399660E-04
   23 C26         1.848914E-04   1.325034E-03   2.210965E-05
   24 C27        -5.427621E-04  -1.952252E-04   7.277149E-04
   25 C28        -9.509188E-05  -8.582161E-04  -6.077244E-05
   26 H29         4.451175E-05  -3.810259E-05  -1.362411E-04
   27 H30        -1.306190E-04  -7.864122E-05   1.093198E-04
   28 H31        -1.846245E-04  -1.579626E-04  -1.724982E-04
   29 H32         1.120625E-05  -7.292885E-05  -4.196867E-05
   30 H33         5.532348E-05   2.180602E-04  -1.173558E-04
   31 H34        -1.049514E-04   4.051619E-05   2.390981E-04
   32 H35        -2.343414E-04   1.911121E-04  -4.600288E-04
   33 H36         2.435549E-04  -5.402871E-05  -2.554174E-04
   34 H37        -3.433426E-04  -4.193975E-04   2.485489E-04
   35 H38         1.586351E-04  -6.814440E-05   4.299525E-04
   36 H39         1.904397E-03  -4.171109E-04   2.113907E-04
   37 H40        -5.120612E-04   3.587893E-04  -1.293809E-03
   38 H41         1.209804E-03  -3.393422E-04   1.164184E-03
   39 H42        -5.232523E-05  -7.012637E-04   7.934626E-05
   40 H43        -5.866769E-04   5.171385E-04  -3.683409E-04
   41 H44        -1.056724E-04  -2.080434E-04   4.080673E-04
   42 H45         1.166809E-04   8.100815E-05  -4.099680E-04
   43 H46         9.221981E-05  -1.438427E-04   3.199796E-05
   44 H47        -7.009821E-05   1.466351E-04  -4.276354E-04
   45 H48        -1.070984E-04   6.027863E-05   4.430555E-05
   46 H49        -6.823496E-04   2.079329E-04  -3.492203E-04
   47 H50        -1.613070E-04  -1.097192E-04   9.586944E-05
   48 H51        -2.861066E-04   2.282310E-04  -7.370955E-05
   49 H52        -4.794667E-03  -5.462806E-03  -9.321225E-04
   50 H53         3.391550E-03  -1.106269E-02  -6.943412E-04
   51 H54        -9.223033E-04  -1.564127E-03  -1.556512E-03
   52 H55         4.507211E-04   5.691462E-04   1.232186E-04
   53 H56         1.012184E-04   3.145923E-04  -8.475736E-05
   54 H57         2.834687E-05   3.391998E-04   1.311984E-04
   55 H58        -5.810856E-05  -1.136802E-04   2.111714E-04
   56 H59        -2.554443E-04  -1.402173E-04   4.292603E-04
   57 O93        -1.583181E-03   5.075835E-02   3.572883E-02
   58 Na94        1.214575E-02   3.872361E-03  -3.867832E-03
   59 C95         1.645534E-03   1.184666E-02   5.254463E-03
   60 C96        -1.974931E-04  -1.775976E-04   8.474346E-04
   61 H97        -6.974558E-04  -7.765211E-04  -7.247443E-04
   62 H98        -4.206203E-04   4.879408E-05   4.704179E-04
   63 H99        -1.535178E-04   6.206262E-04  -1.527361E-03
   64 C100        4.451094E-03   2.925122E-03   2.524910E-03
   65 H101       -2.000240E-03   1.036466E-03  -1.155026E-03
   66 H102        6.667839E-04  -2.238583E-04   3.449323E-04
   67 H103        5.299436E-03   1.293135E-02  -1.880125E-03
   68 C104        4.574267E-05  -2.892453E-04  -9.093558E-04
   69 H105       -8.169426E-04   3.052284E-04   6.865887E-04
   70 H106       -8.112036E-04  -9.368120E-04  -6.725114E-04
   71 H107       -5.604416E-04  -1.252405E-03   4.505078E-04
 -------------   -------------  -------------  -------------
     total       -9.831027E-04   3.720546E-04   7.512136E-05
   
  end of program der1b
   
 Time(der1b)  user:     143.033  user+sys:     143.033  wallclock:      13.381
  
  start of program geopt
  
 ----------------------------------------------------------------------------
  Geometry optimization step  1
  Total energy:     -1758.21887700621 hartrees
 ----------------------------------------------------------------------------
  
  
  Level shifts adjusted to satisfy step-size constraints
   Step size:    0.3007961
   Cos(theta):   0.9498574
   Final level shift:  -3.7465591E-01
  
  gradient maximum:        1.0962E-01 .  (  2.2500E-03 )
  gradient rms:            1.5924E-02 .  (  1.5000E-03 )
  displacement maximum:    1.2089E-01 .  (  9.0000E-03 )
  displacement rms:        1.8413E-02 .  (  6.0000E-03 )
  
  predicted energy change:  -5.0534E-02
  step size:     0.28584
  trust radius:  0.30000
  
  molecular structure not yet converged...
  
  center of mass moved by:
     x:     2.5048E-02     y:    -5.5827E-02     z:     1.9205E-02
  
  new geometry: 
                                   angstroms
  atom               x                 y                 z
  P1            0.0236618007     -0.0206030806      0.0521817160 
  Pd2           0.0349057648     -0.0520694657      2.3413149098 
  C6            1.8686530249      0.0005446438     -2.2391017544 
  C7            1.7011233255      0.3890966882     -0.7653741714 
  C8            2.7380363868     -0.3949835161      0.0577379293 
  C9            1.9710635543      1.8888502922     -0.5893810284 
  C10          -1.3861038752      1.0382635669     -0.6800665620 
  C11          -1.3488553849      2.4036701408      0.0335762468 
  C12          -2.6948125620      0.3528206869     -0.2492006652 
  C13          -1.3762111887      1.2903281114     -2.1927508870 
  C14          -0.2505935612     -1.7706213035     -0.5531994626 
  C15           0.1012643656     -2.8201795167      0.2463015526 
  C16          -0.7941491712     -2.0117756712     -1.9459592713 
  C17           0.4175896482     -2.7172757462      1.6941015628 
  C18           1.6348195809     -3.1665861543      2.1999215024 
  C19           1.9644709118     -2.9791583567      3.5493895440 
  C20           1.0708838879     -2.3475957344      4.4045965262 
  C21          -0.1886009243     -1.9337059846      3.9369943518 
  C22          -0.5382126271     -2.1378791293      2.5881990434 
  C23           0.2265894342     -4.2089903813     -0.2813585256 
  C24          -0.3849595863     -5.2810968766      0.3840478354 
  C25          -0.2407642289     -6.5836433260     -0.0843570727 
  C26           0.5400725849     -6.8439202883     -1.2115247323 
  C27           1.1775183081     -5.7902410558     -1.8649508663 
  C28           1.0215515089     -4.4857170770     -1.4023955394 
  H29           1.1106453110      0.4446553207     -2.8900013770 
  H30           1.8449216346     -1.0863198924     -2.3680852602 
  H31           2.8508204637      0.3451466357     -2.5931244942 
  H32           2.7034914152     -0.1194960295      1.1177962226 
  H33           3.7455169745     -0.1834620933     -0.3271531375 
  H34           2.5691797015     -1.4751339850     -0.0072880032 
  H35           1.3590902486      2.5013346587     -1.2603173797 
  H36           3.0233114358      2.1010055108     -0.8234770853 
  H37           1.7828331458      2.2067446740      0.4430905443 
  H38          -0.4614117224      2.9887889468     -0.2194767844 
  H39          -1.3626137047      2.2739094837      1.1215356443 
  H40          -2.2289948318      2.9915876153     -0.2652913959 
  H41          -2.6955647167      0.1866402527      0.8353802867 
  H42          -2.8601962905     -0.6126615674     -0.7339962255 
  H43          -3.5473213813      1.0003527176     -0.4964934138 
  H44          -0.5068961800      1.8852692554     -2.4917995011 
  H45          -2.2705675166      1.8659538239     -2.4709632228 
  H46          -1.3792495101      0.3735476056     -2.7858482942 
  H47          -0.9714095842     -3.0745549734     -2.1309387881 
  H48          -0.1367529091     -1.6399741298     -2.7385308792 
  H49          -1.7531170257     -1.5024926651     -2.0788488510 
  H50           2.3455541180     -3.6405521225      1.5262675958 
  H51           2.9296659990     -3.3177058245      3.9189993186 
  H52           1.3160357552     -2.2101295692      5.4535073841 
  H53          -0.9509382982     -1.6488988391      4.6522145611 
  H54          -1.5798148754     -2.1072767861      2.2637872301 
  H55          -0.9749976766     -5.0834889018      1.2756766455 
  H56          -0.7330802166     -7.4019713173      0.4365336427 
  H57           0.6589288796     -7.8633214967     -1.5716488344 
  H58           1.8026335453     -5.9835318829     -2.7339302547 
  H59           1.5286304573     -3.6650055847     -1.9045232024 
  O93          -0.2256296610      0.4735175302      4.3817770509 
  Na94         -2.3558504942      0.4509270312      3.9685702658 
  C95           0.6993385908      1.3971448926      4.9010965098 
  C96           0.4599279395      2.7922996055      4.2956187777 
  H97           1.1764775927      3.5389788621      4.6646494459 
  H98          -0.5545876251      3.1423668533      4.5356178468 
  H99           0.5434416605      2.7249017452      3.2037818582 
  C100          2.1568607817      1.0200915011      4.5774927057 
  H101          2.8698024804      1.7303394462      5.0203270440 
  H102          2.2998565679      1.0020086493      3.4885032436 
  H103          2.3822375375      0.0181217176      4.9424815574 
  C104          0.5158486070      1.4642305422      6.4266668138 
  H105         -0.5147746797      1.7604419062      6.6649155360 
  H106          1.1955488822      2.1877813931      6.8960993765 
  H107          0.6988946066      0.4805111615      6.8746606865 
   
 
  bond lengths (angstroms):
 
 P1      -Pd2     :   2.289377      P1      -C7      :   1.910531
 P1      -C10     :   1.909143      P1      -C14     :   1.871969
 Pd2     -C22     :   2.177158      Pd2     -O93     :   2.123112
 Pd2     -Na94    :   2.935418      C6      -C7      :   1.533268
 C6      -H29     :   1.093380      C6      -H30     :   1.094749
 C6      -H31     :   1.099425      C7      -C8      :   1.538663
 C7      -C9      :   1.533982      C8      -H32     :   1.095815
 C8      -H33     :   1.099045      C8      -H34     :   1.095201
 C9      -H35     :   1.095356      C9      -H36     :   1.098652
 C9      -H37     :   1.096579      C10     -C11     :   1.541106
 C10     -C12     :   1.538894      C10     -C13     :   1.533574
 C11     -H38     :   1.092683      C11     -H39     :   1.095757
 C11     -H40     :   1.099825      C12     -H41     :   1.097239
 C12     -H42     :   1.092948      C12     -H43     :   1.098737
 C13     -H44     :   1.095031      C13     -H45     :   1.099373
 C13     -H46     :   1.091907      C14     -C15     :   1.365496
 C14     -C16     :   1.514394      C15     -C17     :   1.485522
 C15     -C23     :   1.490948      C16     -H47     :   1.093224
 C16     -H48     :   1.094795      C16     -H49     :   1.093914
 C17     -C18     :   1.392617      C17     -C22     :   1.431317
 C18     -C19     :   1.401736      C18     -H50     :   1.087932
 C19     -C20     :   1.388794      C19     -H51     :   1.087579
 C20     -C21     :   1.405795      C20     -H52     :   1.085915
 C21     -C22     :   1.408248      C21     -H53     :   1.083427
 C22     -H54     :   1.091382      C23     -C24     :   1.402202
 C23     -C28     :   1.401880      C24     -C25     :   1.391698
 C24     -H55     :   1.087288      C25     -C26     :   1.395692
 C25     -H56     :   1.087825      C26     -C27     :   1.394110
 C26     -H57     :   1.087656      C27     -C28     :   1.392862
 C27     -H58     :   1.087776      C28     -H59     :   1.087579
 O93     -Na94    :   2.170044      O93     -C95     :   1.406537
 C95     -C96     :   1.539603      C95     -C100    :   1.539889
 C95     -C104    :   1.538029      C96     -H97     :   1.098707
 C96     -H98     :   1.099722      C96     -H99     :   1.097098
 C100    -H101    :   1.099473      C100    -H102    :   1.098487
 C100    -H103    :   1.089933      C104    -H105    :   1.098494
 C104    -H106    :   1.098128      C104    -H107    :   1.096316
 
  bond angles:
 
 C7      -P1      -Pd2     : 115.246303  C10     -P1      -Pd2     : 113.250832
 C10     -P1      -C7      : 111.424922  C14     -P1      -Pd2     : 108.133299
 C14     -P1      -C7      : 100.994816  C14     -P1      -C10     : 106.635169
 C22     -Pd2     -P1      :  97.195788  O93     -Pd2     -P1      : 163.129593
 O93     -Pd2     -C22     :  95.502071  Na94    -Pd2     -P1      : 123.225653
 Na94    -Pd2     -C22     :  83.506245  Na94    -Pd2     -O93     :  47.535289
 H29     -C6      -C7      : 113.173147  H30     -C6      -C7      : 111.251696
 H30     -C6      -H29     : 108.547355  H31     -C6      -C7      : 109.128195
 H31     -C6      -H29     : 107.477036  H31     -C6      -H30     : 107.014135
 C6      -C7      -P1      : 116.929545  C8      -C7      -P1      : 104.684710
 C8      -C7      -C6      : 108.144224  C9      -C7      -P1      : 108.364968
 C9      -C7      -C6      : 109.804179  C9      -C7      -C8      : 108.557143
 H32     -C8      -C7      : 111.601144  H33     -C8      -C7      : 109.411036
 H33     -C8      -H32     : 108.620094  H34     -C8      -C7      : 111.525701
 H34     -C8      -H32     : 107.488869  H34     -C8      -H33     : 108.080637
 H35     -C9      -C7      : 112.215832  H36     -C9      -C7      : 109.444333
 H36     -C9      -H35     : 107.253978  H37     -C9      -C7      : 111.176609
 H37     -C9      -H35     : 108.585374  H37     -C9      -H36     : 108.001437
 C11     -C10     -P1      : 107.213829  C12     -C10     -P1      : 105.875578
 C12     -C10     -C11     : 106.590744  C13     -C10     -P1      : 117.692204
 C13     -C10     -C11     : 108.118480  C13     -C10     -C12     : 110.785233
 H38     -C11     -C10     : 112.757129  H39     -C11     -C10     : 110.766058
 H39     -C11     -H38     : 107.671034  H40     -C11     -C10     : 109.173741
 H40     -C11     -H38     : 107.503356  H40     -C11     -H39     : 108.848211
 H41     -C12     -C10     : 110.169368  H42     -C12     -C10     : 113.450672
 H42     -C12     -H41     : 107.731476  H43     -C12     -C10     : 109.531475
 H43     -C12     -H41     : 108.131541  H43     -C12     -H42     : 107.660011
 H44     -C13     -C10     : 111.333610  H45     -C13     -C10     : 109.294875
 H45     -C13     -H44     : 106.992236  H46     -C13     -C10     : 113.438011
 H46     -C13     -H44     : 108.061670  H46     -C13     -H45     : 107.451316
 C15     -C14     -P1      : 119.436368  C16     -C14     -P1      : 119.925338
 C16     -C14     -C15     : 120.568331  C17     -C15     -C14     : 124.908014
 C23     -C15     -C14     : 122.033716  C23     -C15     -C17     : 113.050904
 H47     -C16     -C14     : 111.630538  H48     -C16     -C14     : 113.340419
 H48     -C16     -H47     : 107.759306  H49     -C16     -C14     : 110.624132
 H49     -C16     -H47     : 106.851826  H49     -C16     -H48     : 106.280832
 C18     -C17     -C15     : 121.182377  C22     -C17     -C15     : 119.646701
 C22     -C17     -C18     : 119.169329  C19     -C18     -C17     : 120.802966
 H50     -C18     -C17     : 119.121811  H50     -C18     -C19     : 120.048486
 C20     -C19     -C18     : 120.153520  H51     -C19     -C18     : 119.621090
 H51     -C19     -C20     : 120.219062  C21     -C20     -C19     : 120.365997
 H52     -C20     -C19     : 120.472027  H52     -C20     -C21     : 119.096385
 C22     -C21     -C20     : 119.888811  H53     -C21     -C20     : 119.223513
 H53     -C21     -C22     : 119.716233  C17     -C22     -Pd2     :  98.116858
 C21     -C22     -Pd2     :  84.511679  C21     -C22     -C17     : 119.419638
 H54     -C22     -Pd2     : 100.991529  H54     -C22     -C17     : 117.580126
 H54     -C22     -C21     : 121.169425  C24     -C23     -C15     : 120.504365
 C28     -C23     -C15     : 120.967373  C28     -C23     -C24     : 118.415899
 C25     -C24     -C23     : 120.710649  H55     -C24     -C23     : 119.134849
 H55     -C24     -C25     : 120.154429  C26     -C25     -C24     : 120.286382
 H56     -C25     -C24     : 119.736880  H56     -C25     -C26     : 119.974873
 C27     -C26     -C25     : 119.563659  H57     -C26     -C25     : 120.219806
 H57     -C26     -C27     : 120.213462  C28     -C27     -C26     : 120.067551
 H58     -C27     -C26     : 120.191489  H58     -C27     -C28     : 119.740087
 C27     -C28     -C23     : 120.926411  H59     -C28     -C23     : 118.988485
 H59     -C28     -C27     : 120.081457  Na94    -O93     -Pd2     :  86.266454
 C95     -O93     -Pd2     : 115.893983  C95     -O93     -Na94    : 136.277281
 O93     -Na94    -Pd2     :  46.198257  C96     -C95     -O93     : 110.340270
 C100    -C95     -O93     : 112.585716  C100    -C95     -C96     : 106.643985
 C104    -C95     -O93     : 108.446231  C104    -C95     -C96     : 109.390563
 C104    -C95     -C100    : 109.393003  H97     -C96     -C95     : 112.478255
 H98     -C96     -C95     : 110.248078  H98     -C96     -H97     : 108.180544
 H99     -C96     -C95     : 108.897520  H99     -C96     -H97     : 109.048655
 H99     -C96     -H98     : 107.876688  H101    -C100    -C95     : 111.773528
 H102    -C100    -C95     : 109.607423  H102    -C100    -H101    : 108.996521
 H103    -C100    -C95     : 110.514429  H103    -C100    -H101    : 108.959127
 H103    -C100    -H102    : 106.853565  H105    -C104    -C95     : 109.805152
 H106    -C104    -C95     : 112.266654  H106    -C104    -H105    : 108.079236
 H107    -C104    -C95     : 110.259233  H107    -C104    -H105    : 108.057964
 H107    -C104    -H106    : 108.251769
 
  torsional angles:
 
 P1      -Pd2     -C22     -C17     :  49.839353
 P1      -Pd2     -C22     -C21     : 168.835739
 P1      -Pd2     -C22     -H54     : -70.433215
 P1      -Pd2     -O93     -Na94    :  62.714151
 P1      -Pd2     -O93     -C95     : -77.943973
 P1      -Pd2     -Na94    -O93     :-162.041905
 P1      -C7      -C6      -H29     :  57.111310
 P1      -C7      -C6      -H30     : -65.417430
 P1      -C7      -C6      -H31     : 176.730365
 P1      -C7      -C8      -H32     : -57.665781
 P1      -C7      -C8      -H33     :-177.906101
 P1      -C7      -C8      -H34     :  62.574600
 P1      -C7      -C9      -H35     : -74.983594
 P1      -C7      -C9      -H36     : 166.072616
 P1      -C7      -C9      -H37     :  46.848248
 P1      -C10     -C11     -H38     :  68.111370
 P1      -C10     -C11     -H39     : -52.626355
 P1      -C10     -C11     -H40     :-172.471113
 P1      -C10     -C12     -H41     :  51.913639
 P1      -C10     -C12     -H42     : -68.950510
 P1      -C10     -C12     -H43     : 170.734586
 P1      -C10     -C13     -H44     : -64.951464
 P1      -C10     -C13     -H45     : 177.069762
 P1      -C10     -C13     -H46     :  57.195890
 P1      -C14     -C15     -C17     :  14.200846
 P1      -C14     -C15     -C23     :-164.742216
 P1      -C14     -C16     -H47     :-175.723037
 P1      -C14     -C16     -H48     :  62.374083
 P1      -C14     -C16     -H49     : -56.877113
 Pd2     -P1      -C7      -C6      : 161.310352
 Pd2     -P1      -C7      -C8      :  41.693336
 Pd2     -P1      -C7      -C9      : -74.006089
 Pd2     -P1      -C10     -C11     :  49.687568
 Pd2     -P1      -C10     -C12     : -63.821087
 Pd2     -P1      -C10     -C13     : 171.712272
 Pd2     -P1      -C14     -C15     : -24.980167
 Pd2     -P1      -C14     -C16     : 158.043799
 Pd2     -C22     -C17     -C15     : -86.138680
 Pd2     -C22     -C17     -C18     :  93.407743
 Pd2     -C22     -C21     -C20     : -98.771059
 Pd2     -C22     -C21     -H53     :  93.690714
 Pd2     -O93     -C95     -C96     :  70.155456
 Pd2     -O93     -C95     -C100    : -48.860228
 Pd2     -O93     -C95     -C104    :-170.048509
 Pd2     -Na94    -O93     -C95     : 124.398901
 C6      -C7      -P1      -C10     : -67.854903
 C6      -C7      -P1      -C14     :  45.069455
 C6      -C7      -C8      -H32     : 176.984580
 C6      -C7      -C8      -H33     :  56.744260
 C6      -C7      -C8      -H34     : -62.775039
 C6      -C7      -C9      -H35     :  53.826622
 C6      -C7      -C9      -H36     : -65.117168
 C6      -C7      -C9      -H37     : 175.658463
 C7      -P1      -Pd2     -C22     :-118.753949
 C7      -P1      -Pd2     -O93     : 102.712934
 C7      -P1      -Pd2     -Na94    : 154.316903
 C7      -P1      -C10     -C11     : -82.168737
 C7      -P1      -C10     -C12     : 164.322608
 C7      -P1      -C10     -C13     :  39.855966
 C7      -P1      -C14     -C15     :  96.407080
 C7      -P1      -C14     -C16     : -80.568954
 C8      -C7      -P1      -C10     : 172.528081
 C8      -C7      -P1      -C14     : -74.547561
 C8      -C7      -C6      -H29     : 174.865309
 C8      -C7      -C6      -H30     :  52.336569
 C8      -C7      -C6      -H31     : -65.515636
 C8      -C7      -C9      -H35     : 171.862700
 C8      -C7      -C9      -H36     :  52.918910
 C8      -C7      -C9      -H37     : -66.305459
 C9      -C7      -P1      -C10     :  56.828657
 C9      -C7      -P1      -C14     : 169.753014
 C9      -C7      -C6      -H29     : -66.842788
 C9      -C7      -C6      -H30     : 170.628473
 C9      -C7      -C6      -H31     :  52.776268
 C9      -C7      -C8      -H32     :  57.899936
 C9      -C7      -C8      -H33     : -62.340385
 C9      -C7      -C8      -H34     : 178.140317
 C10     -P1      -Pd2     -C22     : 111.293120
 C10     -P1      -Pd2     -O93     : -27.239997
 C10     -P1      -Pd2     -Na94    :  24.363972
 C10     -P1      -C14     -C15     :-147.078982
 C10     -P1      -C14     -C16     :  35.944984
 C11     -C10     -P1      -C14     : 168.497636
 C11     -C10     -C12     -H41     : -62.025844
 C11     -C10     -C12     -H42     : 177.110007
 C11     -C10     -C12     -H43     :  56.795103
 C11     -C10     -C13     -H44     :  56.608399
 C11     -C10     -C13     -H45     : -61.370375
 C11     -C10     -C13     -H46     : 178.755754
 C12     -C10     -P1      -C14     :  54.988980
 C12     -C10     -C11     -H38     :-178.864247
 C12     -C10     -C11     -H39     :  60.398028
 C12     -C10     -C11     -H40     : -59.446730
 C12     -C10     -C13     -H44     : 173.066431
 C12     -C10     -C13     -H45     :  55.087657
 C12     -C10     -C13     -H46     : -64.786215
 C13     -C10     -P1      -C14     : -69.477661
 C13     -C10     -C11     -H38     : -59.714975
 C13     -C10     -C11     -H39     : 179.547300
 C13     -C10     -C11     -H40     :  59.702542
 C13     -C10     -C12     -H41     :-179.423846
 C13     -C10     -C12     -H42     :  59.712005
 C13     -C10     -C12     -H43     : -60.602899
 C14     -P1      -Pd2     -C22     :  -6.648583
 C14     -P1      -Pd2     -O93     :-145.181700
 C14     -P1      -Pd2     -Na94    : -93.577731
 C14     -C15     -C17     -C18     :-123.730215
 C14     -C15     -C17     -C22     :  55.806846
 C14     -C15     -C23     -C24     :-131.492352
 C14     -C15     -C23     -C28     :  52.422559
 C15     -C14     -C16     -H47     :   7.335657
 C15     -C14     -C16     -H48     :-114.567223
 C15     -C14     -C16     -H49     : 126.181581
 C15     -C17     -C18     -C19     : 175.394876
 C15     -C17     -C18     -H50     :  -2.725170
 C15     -C17     -C22     -C21     :-174.391685
 C15     -C17     -C22     -H54     :  20.826001
 C15     -C23     -C24     -C25     :-178.251555
 C15     -C23     -C24     -H55     :   1.650092
 C15     -C23     -C28     -C27     : 177.608914
 C15     -C23     -C28     -H59     :  -1.696855
 C16     -C14     -C15     -C17     :-168.842992
 C16     -C14     -C15     -C23     :  12.213946
 C17     -C15     -C23     -C24     :  49.449611
 C17     -C15     -C23     -C28     :-126.635477
 C17     -C18     -C19     -C20     :   0.460998
 C17     -C18     -C19     -H51     :-178.626009
 C17     -C22     -Pd2     -O93     :-141.292147
 C17     -C22     -Pd2     -Na94    : 172.624001
 C17     -C22     -C21     -C20     :  -2.533074
 C17     -C22     -C21     -H53     :-170.071301
 C18     -C17     -C15     -C23     :  55.296042
 C18     -C17     -C22     -C21     :   5.154738
 C18     -C17     -C22     -H54     :-159.627576
 C18     -C19     -C20     -C21     :   2.248236
 C18     -C19     -C20     -H52     : 179.276557
 C19     -C18     -C17     -C22     :  -4.144353
 C19     -C20     -C21     -C22     :  -1.164977
 C19     -C20     -C21     -H53     : 166.434624
 C20     -C19     -C18     -H50     : 178.563696
 C20     -C21     -C22     -H54     : 161.688839
 C21     -C20     -C19     -H51     :-178.670257
 C21     -C22     -Pd2     -O93     : -22.295761
 C21     -C22     -Pd2     -Na94    : -68.379613
 C22     -Pd2     -O93     -Na94    : -75.985027
 C22     -Pd2     -O93     -C95     : 143.356849
 C22     -Pd2     -Na94    -O93     : 103.590857
 C22     -C17     -C15     -C23     :-125.166897
 C22     -C17     -C18     -H50     : 177.735600
 C22     -C21     -C20     -H52     :-178.233893
 C23     -C24     -C25     -C26     :   1.313533
 C23     -C24     -C25     -H56     :-179.183417
 C23     -C28     -C27     -C26     :  -0.057693
 C23     -C28     -C27     -H58     :-179.718316
 C24     -C23     -C28     -C27     :   1.443912
 C24     -C23     -C28     -H59     :-177.861857
 C24     -C25     -C26     -C27     :   0.112446
 C24     -C25     -C26     -H57     : 179.476125
 C25     -C24     -C23     -C28     :  -2.068143
 C25     -C26     -C27     -C28     :  -0.734979
 C25     -C26     -C27     -H58     : 178.924099
 C26     -C25     -C24     -H55     :-178.587113
 C26     -C27     -C28     -H59     : 179.240531
 C27     -C26     -C25     -H56     :-179.389417
 C28     -C23     -C24     -H55     : 177.833504
 C28     -C27     -C26     -H57     : 179.901301
 H50     -C18     -C19     -H51     :  -0.523311
 H51     -C19     -C20     -H52     :  -1.641936
 H52     -C20     -C21     -H53     : -10.634291
 H53     -C21     -C22     -H54     :  -5.849388
 H54     -C22     -Pd2     -O93     :  98.435284
 H54     -C22     -Pd2     -Na94    :  52.351432
 H55     -C24     -C25     -H56     :   0.915937
 H56     -C25     -C26     -H57     :  -0.025738
 H57     -C26     -C27     -H58     :  -0.439621
 H58     -C27     -C28     -H59     :  -0.420092
 O93     -C95     -C96     -H97     :-178.979472
 O93     -C95     -C96     -H98     :  60.187391
 O93     -C95     -C96     -H99     : -57.983801
 O93     -C95     -C100    -H101    :-177.926287
 O93     -C95     -C100    -H102    :  61.117370
 O93     -C95     -C100    -H103    : -56.392647
 O93     -C95     -C104    -H105    : -58.446348
 O93     -C95     -C104    -H106    :-178.702904
 O93     -C95     -C104    -H107    :  60.508211
 Na94    -Pd2     -O93     -C95     :-140.658124
 Na94    -O93     -C95     -C96     : -43.601564
 Na94    -O93     -C95     -C100    :-162.617248
 Na94    -O93     -C95     -C104    :  76.194471
 C96     -C95     -C100    -H101    :  60.923523
 C96     -C95     -C100    -H102    : -60.032820
 C96     -C95     -C100    -H103    :-177.542838
 C96     -C95     -C104    -H105    :  61.941832
 C96     -C95     -C104    -H106    : -58.314724
 C96     -C95     -C104    -H107    :-179.103609
 H97     -C96     -C95     -C100    : -56.408665
 H97     -C96     -C95     -C104    :  61.796326
[...]
    C96      Z     0.00001  -0.00005   0.00000  -0.00009   0.00002  -0.00011
    H97      X    -0.00010   0.00079  -0.00007  -0.00020  -0.00010   0.00093
    H97      Y    -0.00004   0.00038  -0.00003  -0.00009  -0.00004   0.00043
    H97      Z    -0.00006   0.00048  -0.00004  -0.00016  -0.00006   0.00056
    H98      X     0.00006   0.00053  -0.00004  -0.00045   0.00013   0.00012
    H98      Y    -0.00003  -0.00029   0.00003   0.00023  -0.00006  -0.00012
    H98      Z    -0.00003  -0.00033   0.00003   0.00024  -0.00007  -0.00009
    H99      X     0.00001  -0.00005   0.00001  -0.00004   0.00000  -0.00008
    H99      Y     0.00004  -0.00026   0.00003  -0.00057   0.00003  -0.00053
    H99      Z    -0.00009   0.00060  -0.00006   0.00124  -0.00006   0.00109
    C100     X     0.00001   0.00002   0.00000   0.00001   0.00002   0.00003
    C100     Y     0.00001   0.00035  -0.00002   0.00018   0.00004   0.00070
    C100     Z     0.00002  -0.00012   0.00002  -0.00016   0.00001  -0.00024
    H101     X    -0.00017   0.00048  -0.00007   0.00010  -0.00016   0.00121
    H101     Y    -0.00005   0.00029  -0.00003  -0.00003  -0.00004   0.00060
    H101     Z    -0.00012   0.00023  -0.00005   0.00011  -0.00012   0.00090
    H102     X     0.00002  -0.00020   0.00003  -0.00041   0.00001  -0.00060
    H102     Y     0.00005  -0.00106   0.00011  -0.00115   0.00001  -0.00150
    H102     Z    -0.00009   0.00191  -0.00019   0.00226   0.00000   0.00321
    H103     X     0.00001  -0.00035   0.00002   0.00017  -0.00003  -0.00081
    H103     Y    -0.00008  -0.00337   0.00016  -0.00108  -0.00039  -0.00759
    H103     Z    -0.00000  -0.00080   0.00006  -0.00032  -0.00004  -0.00115
    C104     X     0.00000  -0.00017   0.00001   0.00009  -0.00000  -0.00010
    C104     Y     0.00002   0.00026  -0.00002   0.00065   0.00003   0.00041
    C104     Z     0.00001   0.00007  -0.00001   0.00018   0.00001   0.00009
    H105     X     0.00010   0.00223  -0.00018   0.00109   0.00019   0.00181
    H105     Y    -0.00004  -0.00122   0.00010  -0.00046  -0.00008  -0.00090
    H105     Z    -0.00005  -0.00117   0.00010  -0.00047  -0.00009  -0.00093
    H106     X    -0.00012   0.00055  -0.00003  -0.00194  -0.00012   0.00002
    H106     Y    -0.00004   0.00034  -0.00001  -0.00081  -0.00003   0.00002
    H106     Z    -0.00009   0.00046  -0.00003  -0.00130  -0.00009   0.00015
    H107     X    -0.00001  -0.00070   0.00005  -0.00016  -0.00003  -0.00046
    H107     Y    -0.00015  -0.00229   0.00022  -0.00650  -0.00021  -0.00417
    H107     Z     0.00000  -0.00005   0.00000  -0.00009   0.00001  -0.00010
  
  vibration #          205       206       207
                 --------- --------- ---------
  frequencies      3211.72   3215.90   3218.68
  intensities        20.02      9.45     12.29
  reduc. mass         0.31      0.22      0.36
  force const         1.90      1.32      2.21
    P1       X     0.00000   0.00001   0.00001
    P1       Y     0.00001   0.00003   0.00003
    P1       Z     0.00001   0.00002   0.00004
    Pd2      X     0.00000  -0.00000  -0.00000
    Pd2      Y    -0.00000   0.00000   0.00000
    Pd2      Z    -0.00000   0.00000  -0.00001
    C6       X    -0.00008   0.00009   0.00003
    C6       Y     0.00080  -0.00063   0.00004
    C6       Z    -0.00014   0.00009  -0.00000
    C7       X    -0.00000   0.00002   0.00001
    C7       Y     0.00002  -0.00004  -0.00004
    C7       Z    -0.00001   0.00001  -0.00002
    C8       X     0.00003   0.00001   0.00002
    C8       Y     0.00021  -0.00011  -0.00000
    C8       Z     0.00009  -0.00003  -0.00004
    C9       X    -0.00002   0.00002  -0.00003
    C9       Y     0.00001   0.00001   0.00002
    C9       Z     0.00002  -0.00003   0.00005
    C10      X    -0.00000  -0.00002  -0.00000
    C10      Y    -0.00000  -0.00001  -0.00001
    C10      Z    -0.00001  -0.00002  -0.00003
    C11      X    -0.00000  -0.00001   0.00004
    C11      Y     0.00001   0.00002   0.00003
    C11      Z    -0.00001  -0.00002  -0.00004
    C12      X    -0.00000  -0.00003  -0.00001
    C12      Y     0.00004  -0.00003   0.00003
    C12      Z     0.00004  -0.00003   0.00004
    C13      X    -0.00001  -0.00003   0.00000
    C13      Y     0.00002   0.00000   0.00003
    C13      Z    -0.00001  -0.00001   0.00000
    C14      X     0.00003  -0.00000   0.00007
    C14      Y    -0.00001  -0.00025   0.00004
    C14      Z    -0.00004  -0.00009   0.00009
    C15      X    -0.00014   0.00001  -0.00013
    C15      Y    -0.00009   0.00009  -0.00002
    C15      Z     0.00043   0.00007  -0.00002
    C16      X    -0.00051   0.00019  -0.00004
    C16      Y     0.00098  -0.00084  -0.00004
    C16      Z     0.00015  -0.00014  -0.00005
    C17      X     0.00017   0.00004   0.00086
    C17      Y     0.00011  -0.00003  -0.00012
    C17      Z    -0.00004   0.00002  -0.00193
    C18      X    -0.00095  -0.00023   0.00619
    C18      Y     0.00031   0.00008  -0.00176
    C18      Z     0.00079   0.00016  -0.00586
    C19      X    -0.00094  -0.00043   0.01371
    C19      Y     0.00021   0.00010  -0.00316
    C19      Z    -0.00033  -0.00010   0.00366
    C20      X    -0.00016  -0.00029   0.00732
    C20      Y     0.00003   0.00006  -0.00147
    C20      Z    -0.00097  -0.00112   0.02899
    C21      X     0.00079   0.00180  -0.04522
    C21      Y    -0.00018  -0.00041   0.01058
    C21      Z    -0.00060  -0.00157   0.04011
    C22      X    -0.00045   0.00157  -0.04491
    C22      Y     0.00014  -0.00030   0.00927
    C22      Z    -0.00014   0.00067  -0.01885
    C23      X     0.00150  -0.00061   0.00002
    C23      Y     0.00099   0.00201   0.00008
    C23      Z    -0.00230   0.00101   0.00009
    C24      X    -0.02801  -0.01672  -0.00099
    C24      Y     0.01200   0.00712   0.00044
    C24      Z     0.04722   0.02807   0.00170
    C25      X    -0.01284  -0.01271  -0.00062
    C25      Y    -0.02732  -0.02437  -0.00123
    C25      Z     0.01732   0.01747   0.00084
    C26      X     0.00252   0.00427   0.00017
    C26      Y    -0.00701  -0.03195  -0.00121
    C26      Z    -0.00459  -0.00995  -0.00040
    C27      X    -0.01046   0.02087   0.00068
    C27      Y     0.00569  -0.00741  -0.00022
    C27      Z     0.01643  -0.03238  -0.00107
    C28      X    -0.01888   0.01992   0.00053
    C28      Y    -0.03684   0.03910   0.00107
    C28      Z     0.02412  -0.02530  -0.00068
    H29      X     0.00212  -0.00155  -0.00005
    H29      Y    -0.00082   0.00052   0.00003
    H29      Z     0.00186  -0.00138  -0.00005
    H30      X    -0.00041   0.00041   0.00004
    H30      Y    -0.00998   0.00861  -0.00033
    H30      Z    -0.00024   0.00013  -0.00006
    H31      X    -0.00074   0.00013  -0.00022
    H31      Y     0.00005  -0.00026  -0.00009
    H31      Z     0.00017   0.00003   0.00001
    H32      X     0.00005  -0.00001  -0.00008
    H32      Y    -0.00052   0.00022   0.00019
    H32      Z    -0.00122   0.00040   0.00032
    H33      X    -0.00004  -0.00028  -0.00019
    H33      Y     0.00001  -0.00008  -0.00012
    H33      Z     0.00004   0.00008   0.00007
    H34      X    -0.00022   0.00020   0.00005
    H34      Y    -0.00193   0.00114   0.00014
    H34      Z     0.00022  -0.00014  -0.00013
    H35      X     0.00014   0.00004   0.00001
    H35      Y    -0.00016   0.00001  -0.00001
    H35      Z     0.00016   0.00005  -0.00003
    H36      X     0.00005  -0.00040   0.00013
    H36      Y     0.00001  -0.00012  -0.00004
    H36      Z    -0.00003   0.00011  -0.00007
    H37      X     0.00007  -0.00003   0.00009
    H37      Y    -0.00011   0.00005  -0.00030
    H37      Z    -0.00031   0.00019  -0.00055
    H38      X    -0.00005  -0.00014  -0.00057
    H38      Y    -0.00002  -0.00006  -0.00036
    H38      Z     0.00002   0.00005   0.00026
    H39      X     0.00001  -0.00001   0.00007
    H39      Y    -0.00001   0.00003   0.00002
    H39      Z     0.00008   0.00021   0.00022
    H40      X     0.00017   0.00039   0.00010
    H40      Y    -0.00013  -0.00028  -0.00009
    H40      Z     0.00005   0.00014   0.00001
    H41      X     0.00000  -0.00003   0.00001
    H41      Y    -0.00003   0.00001   0.00004
    H41      Z    -0.00040   0.00009  -0.00041
    H42      X    -0.00011   0.00004  -0.00009
    H42      Y    -0.00031   0.00050  -0.00022
    H42      Z    -0.00003   0.00016  -0.00008
    H43      X     0.00015   0.00024   0.00019
    H43      Y    -0.00012  -0.00018  -0.00018
    H43      Z     0.00005   0.00009   0.00010
    H44      X    -0.00008   0.00012  -0.00018
    H44      Y    -0.00003   0.00008  -0.00010
    H44      Z     0.00002  -0.00006   0.00006
    H45      X     0.00015   0.00029   0.00007
    H45      Y    -0.00012  -0.00020  -0.00005
    H45      Z     0.00004   0.00013  -0.00000
    H46      X    -0.00003  -0.00001  -0.00002
    H46      Y     0.00005   0.00006  -0.00016
    H46      Z    -0.00004   0.00002  -0.00014
    H47      X    -0.00216   0.00171  -0.00004
    H47      Y    -0.01004   0.00984   0.00038
    H47      Z    -0.00061   0.00047  -0.00006
    H48      X     0.00168  -0.00129  -0.00038
    H48      Y     0.00156  -0.00113  -0.00018
    H48      Z    -0.00226   0.00181   0.00076
    H49      X     0.00705  -0.00339   0.00108
    H49      Y    -0.00372   0.00172  -0.00037
    H49      Z     0.00043   0.00004   0.00035
    H50      X     0.01008   0.00235  -0.06853
    H50      Y    -0.00298  -0.00063   0.01982
    H50      Z    -0.00883  -0.00203   0.06143
    H51      X     0.01009   0.00433  -0.14323
    H51      Y    -0.00233  -0.00100   0.03294
    H51      Z     0.00359   0.00145  -0.04856
    H52      X     0.00195   0.00237  -0.06158
    H52      Y    -0.00040  -0.00048   0.01224
    H52      Z     0.01041   0.01206  -0.31339
    H53      X    -0.00843  -0.02006   0.50377
    H53      Y     0.00194   0.00477  -0.12059
    H53      Z     0.00722   0.01750  -0.44055
    H54      X     0.00545  -0.01797   0.50778
    H54      Y    -0.00112   0.00371  -0.10486
    H54      Z     0.00189  -0.00676   0.19010
    H55      X     0.31866   0.18711   0.01092
    H55      Y    -0.11946  -0.06987  -0.00425
    H55      Z    -0.53686  -0.31504  -0.01900
    H56      X     0.14655   0.13712   0.00679
    H56      Y     0.28811   0.26559   0.01324
    H56      Z    -0.20166  -0.18879  -0.00932
    H57      X    -0.01397  -0.04821  -0.00186
    H57      Y     0.08466   0.34353   0.01312
    H57      Z     0.03059   0.11047   0.00425
    H58      X     0.11743  -0.22678  -0.00744
    H58      Y    -0.04289   0.07735   0.00254
    H58      Z    -0.18206   0.35058   0.01150
    H59      X     0.21885  -0.22796  -0.00597
    H59      Y     0.41488  -0.43244  -0.01144
    H59      Z    -0.28234   0.29361   0.00775
    O93      X    -0.00000  -0.00001   0.00007
    O93      Y    -0.00000  -0.00001   0.00006
    O93      Z    -0.00001  -0.00001  -0.00004
    Na94     X    -0.00000  -0.00000   0.00001
    Na94     Y    -0.00000   0.00000  -0.00003
    Na94     Z     0.00000   0.00000   0.00002
    C95      X     0.00000   0.00001  -0.00007
    C95      Y     0.00000   0.00001   0.00000
    C95      Z     0.00000   0.00001  -0.00001
    C96      X    -0.00000   0.00001  -0.00004
    C96      Y    -0.00000   0.00000  -0.00001
    C96      Z     0.00001   0.00002   0.00002
    H97      X    -0.00005  -0.00021   0.00050
    H97      Y    -0.00002  -0.00009   0.00027
    H97      Z    -0.00002  -0.00013   0.00033
    H98      X     0.00006   0.00007   0.00033
    H98      Y    -0.00003  -0.00003  -0.00022
    H98      Z    -0.00003  -0.00003  -0.00017
    H99      X     0.00000   0.00001   0.00000
    H99      Y     0.00005   0.00005   0.00022
    H99      Z    -0.00013  -0.00009  -0.00053
    C100     X     0.00001   0.00002  -0.00007
    C100     Y     0.00002   0.00002  -0.00033
    C100     Z     0.00002   0.00002  -0.00004
    H101     X    -0.00008  -0.00027   0.00063
    H101     Y    -0.00001  -0.00007  -0.00008
    H101     Z    -0.00006  -0.00020   0.00046
    H102     X     0.00002   0.00004  -0.00001
    H102     Y     0.00010   0.00005   0.00019
    H102     Z    -0.00017  -0.00009  -0.00052
    H103     X    -0.00003   0.00000   0.00045
    H103     Y    -0.00031  -0.00016   0.00420
    H103     Z    -0.00002  -0.00002   0.00066
    C104     X    -0.00000   0.00001  -0.00009
    C104     Y     0.00000   0.00004  -0.00045
    C104     Z     0.00000   0.00002  -0.00011
    H105     X     0.00006   0.00011  -0.00046
    H105     Y    -0.00003  -0.00004   0.00017
    H105     Z    -0.00003  -0.00004   0.00015
    H106     X    -0.00004  -0.00025   0.00153
    H106     Y    -0.00001  -0.00008   0.00064
    H106     Z    -0.00003  -0.00018   0.00104
    H107     X     0.00000  -0.00001  -0.00000
    H107     Y     0.00000  -0.00034   0.00464
    H107     Z     0.00000   0.00001   0.00013
  
  Number of imaginary frequencies:   0
   
  Writing vibrational animation data to L1_NaOtBu_PL747.vib
  Writing IR vibrational spectrum data to L1_NaOtBu_PL747_vib.spm
  rotational symmetry number:  1

  rotational temperatures (K):      0.007939      0.005039      0.003865
   
  The Quasi-Harmonic approximation will be applied to compute
  vibrational constributions to thermodynamic properties.
  Frequencies will be adjusted to a minimum value of  100.00 cm^-1.

  vibrational temperatures:
       mode:      1        2        3        4        5        6
  temp. (K):   143.88   143.88   143.88   143.88   143.88   143.88
   
       mode:      7        8        9       10       11       12
  temp. (K):   143.88   143.88   143.88   143.88   143.88   143.88
   
       mode:     13       14       15       16       17       18
  temp. (K):   143.88   147.44   161.55   171.67   191.75   217.35
   
       mode:     19       20       21       22       23       24
  temp. (K):   221.51   238.56   277.46   285.47   313.38   325.05
   
       mode:     25       26       27       28       29       30
  temp. (K):   331.77   346.69   354.87   365.05   368.75   370.80
   
       mode:     31       32       33       34       35       36
  temp. (K):   376.80   390.84   408.72   422.44   430.07   439.97
   
       mode:     37       38       39       40       41       42
  temp. (K):   441.67   455.90   457.56   474.38   498.22   510.62
   
       mode:     43       44       45       46       47       48
  temp. (K):   515.32   540.29   550.90   559.70   579.98   584.98
   
       mode:     49       50       51       52       53       54
  temp. (K):   590.44   605.28   610.43   630.85   663.23   668.99
   
       mode:     55       56       57       58       59       60
  temp. (K):   686.82   691.69   716.35   748.75   772.17   796.74
   
       mode:     61       62       63       64       65       66
  temp. (K):   839.95   863.48   897.78   901.67   904.84   961.17
   
       mode:     67       68       69       70       71       72
  temp. (K):   993.03  1032.11  1042.89  1090.52  1107.12  1112.61
   
       mode:     73       74       75       76       77       78
  temp. (K):  1153.69  1197.29  1198.70  1222.57  1253.30  1297.57
   
       mode:     79       80       81       82       83       84
  temp. (K):  1305.52  1319.55  1340.23  1367.92  1370.00  1378.05
   
       mode:     85       86       87       88       89       90
  temp. (K):  1378.37  1381.60  1389.34  1396.51  1403.03  1411.16
   
       mode:     91       92       93       94       95       96
  temp. (K):  1438.07  1438.71  1458.70  1459.47  1465.75  1466.78
   
       mode:     97       98       99      100      101      102
  temp. (K):  1471.21  1499.35  1509.25  1512.32  1512.62  1517.12
   
       mode:    103      104      105      106      107      108
  temp. (K):  1520.00  1526.45  1533.76  1537.05  1604.04  1613.99
   
       mode:    109      110      111      112      113      114
  temp. (K):  1656.31  1726.45  1731.29  1738.18  1745.91  1751.83
   
       mode:    115      116      117      118      119      120
  temp. (K):  1754.80  1762.93  1764.14  1777.22  1794.80  1796.23
   
       mode:    121      122      123      124      125      126
  temp. (K):  1797.66  1807.99  1812.57  1871.09  1934.85  1943.03
   
       mode:    127      128      129      130      131      132
  temp. (K):  1975.42  1983.21  2014.42  2016.77  2023.09  2034.50
   
       mode:    133      134      135      136      137      138
  temp. (K):  2039.00  2043.71  2052.78  2066.51  2079.43  2092.09
   
       mode:    139      140      141      142      143      144
  temp. (K):  2135.89  2143.80  2144.71  2146.95  2159.00  2164.71
   
       mode:    145      146      147      148      149      150
  temp. (K):  2166.17  2169.46  2170.50  2172.52  2180.53  2183.80
   
       mode:    151      152      153      154      155      156
  temp. (K):  2186.42  2188.07  2190.45  2195.80  2209.39  2211.19
   
       mode:    157      158      159      160      161      162
  temp. (K):  2213.83  2217.75  2217.98  2219.35  2229.77  2237.31
   
       mode:    163      164      165      166      167      168
  temp. (K):  2341.01  2358.44  2367.97  2391.54  2401.45  4335.11
   
       mode:    169      170      171      172      173      174
  temp. (K):  4345.95  4347.61  4358.74  4359.25  4361.69  4362.58
   
       mode:    175      176      177      178      179      180
  temp. (K):  4371.40  4374.48  4422.54  4431.31  4450.14  4450.34
   
       mode:    181      182      183      184      185      186
  temp. (K):  4458.30  4462.68  4465.84  4477.94  4481.79  4483.51
   
       mode:    187      188      189      190      191      192
  temp. (K):  4484.94  4493.22  4509.28  4513.40  4515.16  4526.13
   
       mode:    193      194      195      196      197      198
  temp. (K):  4534.36  4537.29  4540.43  4548.39  4572.26  4573.45
   
       mode:    199      200      201      202      203      204
  temp. (K):  4578.48  4591.27  4592.80  4604.05  4608.48  4611.99
   
       mode:    205      206      207
  temp. (K):  4620.94  4626.96  4630.96
   
   
  Thermodynamic properties calculated assuming an ideal gas

  In the table below, the units for temperature
  are kelvins, the units for U, H, and G are
  kcal/mol and the units for Cv and S are cal/(mol K)

  The zero point energy (ZPE):    384.023 kcal/mol
  is not included in U, H, or G in the table below
  
 
  =============================================================================
  Thermodynamic properties for P = 1.00E+00 atm, calculated at   1 temperatures


  T =   298.15 K, P = 1.00E+00 atm
   
                  U         Cv          S          H          G        ln(Q)
              =========  =========  =========  =========  =========  =========
  trans.          0.889      2.981     44.746      1.481    -11.860   20.01696
  rot.            0.889      2.981     36.684      0.889    -10.049   16.95992
  vib.           20.499    132.717    124.648     20.499    -16.664   28.12610
  elec.           0.000      0.000      0.000      0.000      0.000    0.00000
  ----------------------------------------------------------------------------
  total          22.277    138.679    206.077     22.869    -38.573   65.10298
   
   Total internal energy, Utot(SCFE + ZPE + U):   -1757.659841 hartrees
   Total enthalpy, Htot (Utot + nRT), with n=1:   -1757.658897 hartrees
    Total Gibbs free energy, Gtot (Htot - T*S):   -1757.756811 hartrees
   
  end of program freq
   
 Time(freq)  user:       0.728  user+sys:       0.728  wallclock:       0.396
  
  start of program post
  
  Writing input files for PBF
  end of program post
   
 Time(post)  user:       0.211  user+sys:       0.211  wallclock:       0.128

 Total cpu seconds     user:  111245.864   user+sys:  111245.864
  
 Total elapsed time:    15036 seconds

Job L1_NaOtBu_PL747 completed on bp1-compute156 at Fri Nov 28 16:05:58 2025
