Job L1_PL747 started on bp1-compute145.data.bp.acrc.priv at Sat Mar 22 17:20:42 2025
jobid: bp1-compute145-0-67def161

  +--------------------------------------------------------------------+
  |  Jaguar version 12.5, release 138                                  |
  |                                                                    |
  |  Copyright Schrodinger, Inc.                                       |
  |  All Rights Reserved.                                              |
  |                                                                    |
  |  The following have contributed to Jaguar (listed alphabetically): |
  |  Ty Balduf, Mike Beachy, Chandler Bennett, Art Bochevarov,         |
  |  Dale Braden, Yixiang Cao, Alan Chien, Chris Cortis,               |
  |  Rich Friesner, Jim Furness, Bill Goddard, Hod Greeley,            |
  |  Tom Hughes, Leif Jacobson, Jean-Marc Langlois, Daniel Levine,     |
  |  Rob Murphy, Dean Philipp, Tom Pollard, Murco Ringnalda,           |
  |  Daniel Mainz, Pablo Videla, Mark Watson, Haoyu Yu.                |
  |                                                                    |
  |  Use of this program should be acknowledged in publications as:    |
  |                                                                    |
  |  Jaguar, version 12.5, Schrodinger, Inc., New York, NY, 2024.      |
  |                                                                    |
  |  A. D. Bochevarov, E. Harder, T. F. Hughes, J. R. Greenwood,       |
  |  D. A. Braden, D. M. Philipp, D. Rinaldo, M. D. Halls,             |
  |  J. Zhang, R. A. Friesner, "Jaguar: A High-Performance Quantum     |
  |  Chemistry Software Program with Strengths in Life and Materials   |
  |  Sciences", Int. J. Quantum Chem., 2013, 113(18), 2110-2142.       |
  +--------------------------------------------------------------------+
  
  start of program pre
  
  Job name: L1_PL747
  Executables used: /software/local/apps/schrodinger2024-3/jaguar-v12.5/bin/Linux-x86_64
  Temporary files : /tmp/ar21627/L1_PL747#bp1-compute145-0-67def161
  Basis file : using default basis file from /software/local/apps/schrodinger2024-3
  Maestro file (input):  L1_PL747.mae
  Maestro file (output): L1_PL747.01.mae
  
 Contents of input file: &gen and (if present) &atomic sections only
 ----------------Contents start----------------
&gen
dftname=b3pw91-d3
basis=6-31G*
numd=5
ip11=2
iaccg=3
isolv=2
igeopt=1
solvent=benzene
ifreq=1
&
&atomic
atom basis
Pd2 lacv3p*
&
 -----------------Contents end-----------------
 
  PS calculation requested. Using PS version of 6-31g*
  basis set:               non_standard                    
  net molecular charge:    0
  multiplicity:            1
  
  Using up to   4 threads per process
  
  This run will use ECP on 1 atom
  number of basis functions....          433
  
 Input geometry:
                                   angstroms
  atom               x                 y                 z
  P1            0.0000000000      0.0000000000      0.0000000000 
  Pd2           0.0000000000      0.0000000000      2.2122636776 
  C6            2.4859719890      0.0000000000     -1.6223129383 
  C7            1.8417756257      0.2769820460     -0.2399989394 
  C8            2.6663087097     -0.6082138621      0.7365118888 
  C9            2.2012755100      1.7300295336      0.1185451052 
  C10          -1.0442422168      1.0525620250     -1.2245682407 
  C11          -1.4860189141      2.4068635562     -0.6186336630 
  C12          -2.3367912708      0.3331721453     -1.7052096288 
  C13          -0.3250889897      1.4259492335     -2.5340722034 
  C14          -0.6347117209     -1.6922415293     -0.3828062666 
  C15          -1.6302748092     -2.3927843535      0.2399897583 
  C16           0.0498481859     -2.2307293172     -1.6154187915 
  C17          -2.5205641274     -1.8331540020      1.3175461603 
  C18          -3.2361967390     -2.6805096353      2.2022542455 
  C19          -4.0600273760     -2.2250561135      3.2408307573 
  C20          -4.2109305406     -0.8520848934      3.4784760050 
  C21          -3.5076587701      0.0284255940      2.6542490346 
  C22          -2.6925367435     -0.4708665801      1.6203982685 
  C23          -1.8623523873     -3.8259187935     -0.1349257984 
  C24          -3.1554951512     -4.4027058888     -0.0568525067 
  C25          -3.4421022397     -5.7330231762     -0.4105038771 
  C26          -2.4188354248     -6.5759441177     -0.8636145833 
  C27          -1.1216326943     -6.0523033683     -0.9583005987 
  C28          -0.8732314023     -4.7159716000     -0.6057184053 
  H29           2.0813719627      0.6072601128     -2.4483495804 
  H30           2.4311175010     -1.0725477374     -1.9263398058 
  H31           3.5745669595      0.2314293317     -1.6211068800 
  H32           2.4573412261     -0.3720653966      1.7972151899 
  H33           3.7578638055     -0.4604751279      0.6100969397 
  H34           2.4638157099     -1.6856423925      0.5552817953 
  H35           1.6519446043      2.4722168973     -0.4992230335 
  H36           3.2811668996      1.9419156510     -0.0149459428 
  H37           1.9871346933      1.9556400374      1.1879195070 
  H38          -0.6157427779      3.0122505336     -0.2973626647 
  H39          -2.1831377681      2.2877233763      0.2375526023 
  H40          -2.0479247989      3.0245050227     -1.3585909559 
  H41          -3.0368992754      0.0578162296     -0.8875143619 
  H42          -2.1139318149     -0.5972890217     -2.2671034618 
  H43          -2.9294144919      0.9726865205     -2.3898585036 
  H44           0.5506695379      2.0950297279     -2.3609297955 
  H45          -0.9761293915      2.0030120040     -3.2222182302 
  H46          -0.0026444036      0.5379374497     -3.1141278566 
  H47          -0.5594442697     -2.9507240190     -2.2036197206 
  H48           1.0543217752     -2.6543280660     -1.3763938799 
  H49           0.2089887201     -1.4238140282     -2.3645129156 
  H50          -3.1419181795     -3.7712210074      2.1619894233 
  H51          -4.5804963435     -2.9436655974      3.8935462111 
  H52          -4.8535231849     -0.4799595536      4.2930319729 
  H53          -3.5899332507      1.1152026592      2.8130272456 
  H54          -2.1961053731      0.2994317511      1.0380707185 
  H55          -4.0307812875     -3.7991870334      0.2351071833 
  H56          -4.4739698759     -6.1207038115     -0.3304170105 
  H57          -2.6247252347     -7.6205234697     -1.1315014316 
  H58          -0.3025493460     -6.7027232928     -1.3096642141 
  H59           0.1864454950     -4.4198743842     -0.6757991606 
   
  principal moments of inertia:
        amu*angstrom^2:              2205.10713              3472.26277              4264.98946
                g*cm^2:          3.66166608E-37          5.76582726E-37          7.08218074E-37
   
  rotational constants:
               cm^(-1):      0.00764481      0.00485494      0.00395256
                   GHz:      0.22918569      0.14554745      0.11849478
   
  Molecular weight:     444.12 amu
   
  Stoichiometry: PdC23PH31
  Molecular Point Group: C1      
  Point Group used: C1
  
 
Number of optimization coordinates:   180
Number of independent coordinates:    180
Number of non-redundant coordinates:  162
Number of frozen coordinates:           0
Number of harmonic constraints:         0
 
Number of geometric degrees of freedom:   162
Maximum geometric degrees of freedom:     162
 " " " " " excluding dummy atoms:         162
 
 
  bond lengths (angstroms):
 
 P1      -Pd2     :   2.212264      P1      -C7      :   1.877886
 P1      -C10     :   1.922991      P1      -C14     :   1.847453
 C6      -C7      :   1.550000      C6      -H29     :   1.102181
 C6      -H30     :   1.116154      C6      -H31     :   1.112924
 C7      -C8      :   1.554670      C7      -C9      :   1.539201
 C8      -H32     :   1.106583      C8      -H33     :   1.108738
 C8      -H34     :   1.111171      C9      -H35     :   1.110965
 C9      -H36     :   1.108549      C9      -H37     :   1.113696
 C10     -C11     :   1.548049      C10     -C12     :   1.555385
 C10     -C13     :   1.539935      C11     -H38     :   1.107740
 C11     -H39     :   1.110506      C11     -H40     :   1.115686
 C12     -H41     :   1.111124      C12     -H42     :   1.109572
 C12     -H43     :   1.108569      C13     -H44     :   1.115616
 C13     -H45     :   1.109234      C13     -H46     :   1.108603
 C14     -C15     :   1.367399      C14     -C16     :   1.509280
 C15     -C17     :   1.505632      C15     -C23     :   1.499432
 C16     -H47     :   1.111580      C16     -H48     :   1.116036
 C16     -H49     :   1.112466      C17     -C18     :   1.418749
 C17     -C22     :   1.406101      C18     -C19     :   1.401705
 C18     -H50     :   1.095519      C19     -C20     :   1.401534
 C19     -H51     :   1.101510      C20     -C21     :   1.396152
 C20     -H52     :   1.102227      C21     -C22     :   1.408036
 C21     -H53     :   1.101392      C22     -H54     :   1.085776
 C23     -C24     :   1.418096      C23     -C28     :   1.411453
 C24     -C25     :   1.406043      C24     -H55     :   1.102543
 C25     -C26     :   1.401035      C25     -H56     :   1.105197
 C26     -C27     :   1.402106      C26     -H57     :   1.097862
 C27     -C28     :   1.404208      C27     -H58     :   1.103359
 C28     -H59     :   1.102497
 
  bond angles:
 
 C7      -P1      -Pd2     :  97.342638  C10     -P1      -Pd2     : 129.553898
 C10     -P1      -C7      : 111.744572  C14     -P1      -Pd2     : 101.958762
 C14     -P1      -C7      : 116.460285  C14     -P1      -C10     : 100.536212
 H29     -C6      -C7      : 114.667671  H30     -C6      -C7      : 113.216762
 H30     -C6      -H29     : 107.893773  H31     -C6      -C7      : 111.616907
 H31     -C6      -H29     : 104.199965  H31     -C6      -H30     : 104.370416
 C6      -C7      -P1      : 119.685427  C8      -C7      -P1      : 110.848869
 C8      -C7      -C6      : 103.768090  C9      -C7      -P1      : 109.788049
 C9      -C7      -C6      : 106.222348  C9      -C7      -C8      : 105.505012
 H32     -C8      -C7      : 112.359211  H33     -C8      -C7      : 112.002951
 H33     -C8      -H32     : 105.472016  H34     -C8      -C7      : 110.670603
 H34     -C8      -H32     : 109.198763  H34     -C8      -H33     : 106.858970
 H35     -C9      -C7      : 112.683762  H36     -C9      -C7      : 112.328328
 H36     -C9      -H35     : 106.680106  H37     -C9      -C7      : 111.715700
 H37     -C9      -H35     : 107.669515  H37     -C9      -H36     : 105.320351
 C11     -C10     -P1      : 112.616616  C12     -C10     -P1      : 113.259062
 C12     -C10     -C11     : 106.764108  C13     -C10     -P1      : 114.874709
 C13     -C10     -C11     : 104.714106  C13     -C10     -C12     : 103.736378
 H38     -C11     -C10     : 111.557046  H39     -C11     -C10     : 112.772054
 H39     -C11     -H38     : 109.159948  H40     -C11     -C10     : 111.619353
 H40     -C11     -H38     : 106.587826  H40     -C11     -H39     : 104.748381
 H41     -C12     -C10     : 114.256512  H42     -C12     -C10     : 112.174739
 H42     -C12     -H41     : 106.942602  H43     -C12     -C10     : 111.609504
 H43     -C12     -H41     : 105.107199  H43     -C12     -H42     : 106.163418
 H44     -C13     -C10     : 112.336163  H45     -C13     -C10     : 112.308433
 H45     -C13     -H44     : 104.182669  H46     -C13     -C10     : 112.739674
 H46     -C13     -H44     : 109.468348  H46     -C13     -H45     : 105.237954
 C15     -C14     -P1      : 128.684936  C16     -C14     -P1      : 109.889446
 C16     -C14     -C15     : 121.292777  C17     -C15     -C14     : 124.475500
 C23     -C15     -C14     : 119.240168  C23     -C15     -C17     : 116.275301
 H47     -C16     -C14     : 114.496636  H48     -C16     -C14     : 111.637587
 H48     -C16     -H47     : 111.150763  H49     -C16     -C14     : 110.856140
 H49     -C16     -H47     : 101.064513  H49     -C16     -H48     : 106.904158
 C18     -C17     -C15     : 121.503772  C22     -C17     -C15     : 125.914389
 C22     -C17     -C18     : 112.497504  C19     -C18     -C17     : 124.362798
 H50     -C18     -C17     : 121.891101  H50     -C18     -C19     : 113.660382
 C20     -C19     -C18     : 120.478961  H51     -C19     -C18     : 120.316905
 H51     -C19     -C20     : 119.192149  C21     -C20     -C19     : 117.611883
 H52     -C20     -C19     : 121.252466  H52     -C20     -C21     : 121.132845
 C22     -C21     -C20     : 120.095366  H53     -C21     -C20     : 119.971301
 H53     -C21     -C22     : 119.933325  C21     -C22     -C17     : 124.924857
 H54     -C22     -C17     : 121.057891  H54     -C22     -C21     : 114.010856
 C24     -C23     -C15     : 121.072537  C28     -C23     -C15     : 125.285237
 C28     -C23     -C24     : 113.635329  C25     -C24     -C23     : 123.838833
 H55     -C24     -C23     : 121.055335  H55     -C24     -C25     : 115.004393
 C26     -C25     -C24     : 120.112978  H56     -C25     -C24     : 120.263401
 H56     -C25     -C26     : 119.623423  C27     -C26     -C25     : 118.220572
 H57     -C26     -C25     : 120.956461  H57     -C26     -C27     : 120.821812
 C28     -C27     -C26     : 120.140430  H58     -C27     -C26     : 119.219895
 H58     -C27     -C28     : 120.639506  C27     -C28     -C23     : 124.048634
 H59     -C28     -C23     : 121.695734  H59     -C28     -C27     : 114.183109
 
  torsional angles:
 
 P1      -C7      -C6      -H29     :  60.423601
 P1      -C7      -C6      -H30     : -63.971781
 P1      -C7      -C6      -H31     : 178.610880
 P1      -C7      -C8      -H32     : -61.557565
 P1      -C7      -C8      -H33     : 179.931233
 P1      -C7      -C8      -H34     :  60.802319
 P1      -C7      -C9      -H35     : -59.094664
 P1      -C7      -C9      -H36     :-179.623589
 P1      -C7      -C9      -H37     :  62.275757
 P1      -C10     -C11     -H38     :  58.116114
 P1      -C10     -C11     -H39     : -65.152471
 P1      -C10     -C11     -H40     : 177.243530
 P1      -C10     -C12     -H41     :  59.561348
 P1      -C10     -C12     -H42     : -62.364252
 P1      -C10     -C12     -H43     : 178.637193
 P1      -C10     -C13     -H44     : -64.845351
 P1      -C10     -C13     -H45     : 178.096263
 P1      -C10     -C13     -H46     :  59.410745
 P1      -C14     -C15     -C17     :   6.457709
 P1      -C14     -C15     -C23     :-172.406568
 P1      -C14     -C16     -H47     :-151.247671
 P1      -C14     -C16     -H48     :  81.355884
 P1      -C14     -C16     -H49     : -37.714256
 Pd2     -P1      -C7      -C6      : 164.064689
 Pd2     -P1      -C7      -C8      :  43.384917
 Pd2     -P1      -C7      -C9      : -72.784384
 Pd2     -P1      -C10     -C11     :  26.616122
 Pd2     -P1      -C10     -C12     : -94.660115
 Pd2     -P1      -C10     -C13     : 146.381420
 Pd2     -P1      -C14     -C15     :  40.002308
 Pd2     -P1      -C14     -C16     :-144.206813
 C6      -C7      -P1      -C10     : -57.977571
 C6      -C7      -P1      -C14     :  56.756994
 C6      -C7      -C8      -H32     : 168.730180
 C6      -C7      -C8      -H33     :  50.218977
 C6      -C7      -C8      -H34     : -68.909937
 C6      -C7      -C9      -H35     :  71.659901
 C6      -C7      -C9      -H36     : -48.869024
 C6      -C7      -C9      -H37     :-166.969678
 C7      -P1      -C10     -C11     : -93.906048
 C7      -P1      -C10     -C12     : 144.817715
 C7      -P1      -C10     -C13     :  25.859250
 C7      -P1      -C14     -C15     : 144.559309
 C7      -P1      -C14     -C16     : -39.649812
 C8      -C7      -P1      -C10     :-178.657343
 C8      -C7      -P1      -C14     : -63.922778
 C8      -C7      -C6      -H29     :-175.418780
 C8      -C7      -C6      -H30     :  60.185837
 C8      -C7      -C6      -H31     : -57.231501
 C8      -C7      -C9      -H35     :-178.588850
 C8      -C7      -C9      -H36     :  60.882225
 C8      -C7      -C9      -H37     : -57.218429
 C9      -C7      -P1      -C10     :  65.173356
 C9      -C7      -P1      -C14     : 179.907921
 C9      -C7      -C6      -H29     : -64.445286
 C9      -C7      -C6      -H30     : 171.159331
 C9      -C7      -C6      -H31     :  53.741993
 C9      -C7      -C8      -H32     :  57.232106
 C9      -C7      -C8      -H33     : -61.279096
 C9      -C7      -C8      -H34     : 179.591989
 C10     -P1      -C14     -C15     : -94.544224
 C10     -P1      -C14     -C16     :  81.246655
 C11     -C10     -P1      -C14     : 141.891313
 C11     -C10     -C12     -H41     : -64.954754
 C11     -C10     -C12     -H42     : 173.119646
 C11     -C10     -C12     -H43     :  54.121091
 C11     -C10     -C13     -H44     :  59.211664
 C11     -C10     -C13     -H45     : -57.846722
 C11     -C10     -C13     -H46     :-176.532241
 C12     -C10     -P1      -C14     :  20.615076
 C12     -C10     -C11     -H38     :-176.975318
 C12     -C10     -C11     -H39     :  59.756098
 C12     -C10     -C11     -H40     : -57.847901
 C12     -C10     -C13     -H44     : 171.000437
 C12     -C10     -C13     -H45     :  53.942051
 C12     -C10     -C13     -H46     : -64.743467
 C13     -C10     -P1      -C14     : -98.343389
 C13     -C10     -C11     -H38     : -67.371767
 C13     -C10     -C11     -H39     : 169.359648
 C13     -C10     -C11     -H40     :  51.755650
 C13     -C10     -C12     -H41     :-175.241344
 C13     -C10     -C12     -H42     :  62.833056
 C13     -C10     -C12     -H43     : -56.165499
 C14     -C15     -C17     -C18     :-160.235098
 C14     -C15     -C17     -C22     :  16.168980
 C14     -C15     -C23     -C24     :-149.696363
 C14     -C15     -C23     -C28     :  29.285990
 C15     -C14     -C16     -H47     :  24.907935
 C15     -C14     -C16     -H48     :-102.488509
 C15     -C14     -C16     -H49     : 138.441351
 C15     -C17     -C18     -C19     : 178.726145
 C15     -C17     -C18     -H50     :   2.308983
 C15     -C17     -C22     -C21     :-178.439997
 C15     -C17     -C22     -H54     :   2.536328
 C15     -C23     -C24     -C25     : 179.109877
 C15     -C23     -C24     -H55     :   2.957507
 C15     -C23     -C28     -C27     :-179.550474
 C15     -C23     -C28     -H59     :   3.728784
 C16     -C14     -C15     -C17     :-168.909534
 C16     -C14     -C15     -C23     :  12.226189
 C17     -C15     -C23     -C24     :  31.347763
 C17     -C15     -C23     -C28     :-149.669883
 C17     -C18     -C19     -C20     :  -0.866591
 C17     -C18     -C19     -H51     :-179.597121
 C17     -C22     -C21     -C20     :   0.617818
 C17     -C22     -C21     -H53     :-179.415086
 C18     -C17     -C15     -C23     :  18.659704
 C18     -C17     -C22     -C21     :  -1.758124
 C18     -C17     -C22     -H54     : 179.218201
 C18     -C19     -C20     -C21     :  -0.456317
 C18     -C19     -C20     -H52     :-179.853482
 C19     -C18     -C17     -C22     :   1.877878
 C19     -C20     -C21     -C22     :   0.577604
 C19     -C20     -C21     -H53     :-179.389480
 C20     -C19     -C18     -H50     : 175.812513
 C20     -C21     -C22     -H54     : 179.702229
 C21     -C20     -C19     -H51     : 178.288383
 C22     -C17     -C15     -C23     :-164.936218
 C22     -C17     -C18     -H50     :-174.539284
 C22     -C21     -C20     -H52     : 179.975530
 C23     -C24     -C25     -C26     :   0.421801
 C23     -C24     -C25     -H56     :-179.740833
 C23     -C28     -C27     -C26     :   0.549223
 C23     -C28     -C27     -H58     :-179.299700
 C24     -C23     -C28     -C27     :  -0.501907
 C24     -C23     -C28     -H59     :-177.222650
 C24     -C25     -C26     -C27     :  -0.381911
 C24     -C25     -C26     -H57     : 179.230315
 C25     -C24     -C23     -C28     :   0.016620
 C25     -C26     -C27     -C28     :  -0.075670
 C25     -C26     -C27     -H58     : 179.775393
 C26     -C25     -C24     -H55     : 176.785067
 C26     -C27     -C28     -H59     : 177.490866
 C27     -C26     -C25     -H56     : 179.779681
 C28     -C23     -C24     -H55     :-176.135750
 C28     -C27     -C26     -H57     :-179.688441
 H50     -C18     -C19     -H51     :  -2.918018
 H51     -C19     -C20     -H52     :  -1.108782
 H52     -C20     -C21     -H53     :   0.008447
 H53     -C21     -C22     -H54     :  -0.330674
 H55     -C24     -C25     -H56     :  -3.377567
 H56     -C25     -C26     -H57     :  -0.608094
 H57     -C26     -C27     -H58     :   0.162623
 H58     -C27     -C28     -H59     :  -2.358057
 
  nuclear repulsion energy.......          2715.526436537 hartrees
  
  Detected an organometallic with only one TM atom. 
  
  
 
  Will use High-Quality Initial guess for organometallics
       including d-d repulsion (iguess=30)
 
 Non-default options chosen:
   SCF calculation type: DFT(b3pw91-d3)              
   DFT=Becke_3_Parameter/HF+Slater+Becke88+PW91+PW-GGAIIC (B3PW91-D3)
   Geometry will be optimized in redundant internal coordinates
   Solvation energy will be computed using PBF
     -solute cavity energy will not be included
     -surface area terms will not be included
   Vibrational frequencies and related properties will be computed
      from analytic second derivatives
   IR intensities will be computed
   Thermochemical properties will be computed
   Maximum number of geometry steps: 100
   Scaling standard convergence criteria by a factor of   5.00
   Solvent: benzene                                                         
   Internal dielectric constant:    1.000
   Continuum dielectric constant:   2.283
   Solvent probe molecule radius:   2.600
  
 Non-default print settings:
     11=  2
  
 Temporary integer options set:
     21= -1  73=  2
  
  atom       vdw   vdw2    cov     mass  grid  daf  charge   basis
  P1        2.147  2.074  1.060   30.974    Y    Y      Y    ps_6-31g*
  Pd2       1.450  1.450  1.280  105.903    Y    Y      Y    lacv3p*
  C6        1.949  1.900  0.770   12.000    Y    Y      Y    ps_6-31g*
  C7        1.949  1.900  0.770   12.000    Y    Y      Y    ps_6-31g*
  C8        1.949  1.900  0.770   12.000    Y    Y      Y    ps_6-31g*
  C9        1.949  1.900  0.770   12.000    Y    Y      Y    ps_6-31g*
  C10       1.949  1.900  0.770   12.000    Y    Y      Y    ps_6-31g*
  C11       1.949  1.900  0.770   12.000    Y    Y      Y    ps_6-31g*
  C12       1.949  1.900  0.770   12.000    Y    Y      Y    ps_6-31g*
  C13       1.949  1.900  0.770   12.000    Y    Y      Y    ps_6-31g*
  C14       1.949  1.900  0.770   12.000    Y    Y      Y    ps_6-31g*
  C15       1.949  1.900  0.770   12.000    Y    Y      Y    ps_6-31g*
  C16       1.949  1.900  0.770   12.000    Y    Y      Y    ps_6-31g*
  C17       1.949  1.900  0.770   12.000    Y    Y      Y    ps_6-31g*
  C18       1.949  1.900  0.770   12.000    Y    Y      Y    ps_6-31g*
  C19       1.949  1.900  0.770   12.000    Y    Y      Y    ps_6-31g*
  C20       1.949  1.900  0.770   12.000    Y    Y      Y    ps_6-31g*
  C21       1.949  1.900  0.770   12.000    Y    Y      Y    ps_6-31g*
  C22       1.949  1.900  0.770   12.000    Y    Y      Y    ps_6-31g*
  C23       1.949  1.900  0.770   12.000    Y    Y      Y    ps_6-31g*
  C24       1.949  1.900  0.770   12.000    Y    Y      Y    ps_6-31g*
  C25       1.949  1.900  0.770   12.000    Y    Y      Y    ps_6-31g*
  C26       1.949  1.900  0.770   12.000    Y    Y      Y    ps_6-31g*
  C27       1.949  1.900  0.770   12.000    Y    Y      Y    ps_6-31g*
  C28       1.949  1.900  0.770   12.000    Y    Y      Y    ps_6-31g*
  H29       1.597  1.150  0.320    1.008    Y    Y      Y    ps_6-31g*
  H30       1.597  1.150  0.320    1.008    Y    Y      Y    ps_6-31g*
  H31       1.597  1.150  0.320    1.008    Y    Y      Y    ps_6-31g*
  H32       1.597  1.150  0.320    1.008    Y    Y      Y    ps_6-31g*
  H33       1.597  1.150  0.320    1.008    Y    Y      Y    ps_6-31g*
  H34       1.597  1.150  0.320    1.008    Y    Y      Y    ps_6-31g*
  H35       1.597  1.150  0.320    1.008    Y    Y      Y    ps_6-31g*
  H36       1.597  1.150  0.320    1.008    Y    Y      Y    ps_6-31g*
  H37       1.597  1.150  0.320    1.008    Y    Y      Y    ps_6-31g*
  H38       1.597  1.150  0.320    1.008    Y    Y      Y    ps_6-31g*
  H39       1.597  1.150  0.320    1.008    Y    Y      Y    ps_6-31g*
  H40       1.597  1.150  0.320    1.008    Y    Y      Y    ps_6-31g*
  H41       1.597  1.150  0.320    1.008    Y    Y      Y    ps_6-31g*
  H42       1.597  1.150  0.320    1.008    Y    Y      Y    ps_6-31g*
  H43       1.597  1.150  0.320    1.008    Y    Y      Y    ps_6-31g*
  H44       1.597  1.150  0.320    1.008    Y    Y      Y    ps_6-31g*
  H45       1.597  1.150  0.320    1.008    Y    Y      Y    ps_6-31g*
  H46       1.597  1.150  0.320    1.008    Y    Y      Y    ps_6-31g*
  H47       1.597  1.150  0.320    1.008    Y    Y      Y    ps_6-31g*
  H48       1.597  1.150  0.320    1.008    Y    Y      Y    ps_6-31g*
  H49       1.597  1.150  0.320    1.008    Y    Y      Y    ps_6-31g*
  H50       1.597  1.150  0.320    1.008    Y    Y      Y    ps_6-31g*
  H51       1.597  1.150  0.320    1.008    Y    Y      Y    ps_6-31g*
  H52       1.597  1.150  0.320    1.008    Y    Y      Y    ps_6-31g*
  H53       1.597  1.150  0.320    1.008    Y    Y      Y    ps_6-31g*
  H54       1.597  1.150  0.320    1.008    Y    Y      Y    ps_6-31g*
  H55       1.597  1.150  0.320    1.008    Y    Y      Y    ps_6-31g*
  H56       1.597  1.150  0.320    1.008    Y    Y      Y    ps_6-31g*
  H57       1.597  1.150  0.320    1.008    Y    Y      Y    ps_6-31g*
  H58       1.597  1.150  0.320    1.008    Y    Y      Y    ps_6-31g*
  H59       1.597  1.150  0.320    1.008    Y    Y      Y    ps_6-31g*
 
  atom      formal  2spin      esp    mulk    frag
  P1           0       0        Y    0.000       0
  Pd2          0       0        Y    0.000       0
  
  end of program pre
   
 Time(pre)  user:       1.096  user+sys:       1.096  wallclock:       1.187
  
  start of program onee
  
  smallest eigenvalue of S:    4.272E-04
  number of canonical orbitals.....          431
  end of program onee
   
 Time(onee)  user:       2.968  user+sys:       2.968  wallclock:       2.463
  
  start of program hfig
  
  initial wavefunction generated automatically from atomic wavefunctions
  Only one possible d-orb occupation 
  Skip d-d repulsion considerations 
 
  Irreducible     Total no   No of occupied orbitals 
  representation  orbitals   Shell_1  Shell_2    ...
  No Symm          431        101
  ------------------------
  Orbital occupation/shell    1.000
 
  end of program hfig
   
 Time(hfig)  user:       0.929  user+sys:       0.929  wallclock:       1.035
  
  start of program probe
  
  end of program probe
   
 Time(probe)  user:       0.583  user+sys:       0.583  wallclock:       0.561
  
  start of program grid
  
   grid     grid set  grid #  grid sym
  ------    --------  ------  --------
  coarse        0        0        1
  medium        2        1        1
  fine          0        0        1
  ultrafine     4        2        1
  charge       -1        3        1
  gradient      4        2        1
  density       0        0        1
  DFT-fine    -11        4        1
  DFT-med.    -10        5        1
  DFT-grad    -12        6        1
  DFT-der2     -8        7        1
  DFT-cphf     -9        8        1
  LMP2-enrg     4        2        1
  LMP2-grad     2        1        1
  DFT-cphf2   -15        9        1
  PBF-dens      0        0        1
  plotting      0        0        1
  Rel-grad    -17        0        1
  
  number of gridpoints: 
     atom           P1         Pd2          C6          C7          C8          C9         C10
  grid # 1         601         402          82          88          80          82          88
  grid # 2         420         377         245         367         244         240         371
  grid # 3           6         420           6           6           6           6           6
  grid # 4        8714        8714        8714        8714        8714        8714        8714
  grid # 5        1192        1192        1192        1192        1192        1192        1192
  grid # 6        9132        9132        5922        5922        5922        5922        5922
  grid # 7       23034       32968       13950       13950       13950       13950       13950
  grid # 8         722        1150         748         748         748         748         748
  grid # 9         366        2198         394         394         394         394         394
   
  number of gridpoints: 
     atom          C11         C12         C13         C14         C15         C16         C17
  grid # 1          80          82          82          87          99          79          97
  grid # 2         247         246         245         389         362         241         365
  grid # 3           6           6           6           9          22           6          16
  grid # 4        8714        8714        8714        8714        8714        8714        8714
  grid # 5        1192        1192        1192        1192        1192        1192        1192
  grid # 6        5922        5922        5922        5922        5922        5922        5922
  grid # 7       13950       13950       13950       13950       13950       13950       13950
  grid # 8         748         748         748         748         748         748         748
  grid # 9         394         394         394         394         394         394         394
   
  number of gridpoints: 
     atom          C18         C19         C20         C21         C22         C23         C24
  grid # 1          93          97          97          96          93          97          94
  grid # 2         325         326         324         327         323         361         320
  grid # 3          19          38          42          31          15          20          25
  grid # 4        8714        8714        8714        8714        8714        8714        8714
  grid # 5        1192        1192        1192        1192        1192        1192        1192
  grid # 6        5922        5922        5922        5922        5922        5922        5922
  grid # 7       13950       13950       13950       13950       13950       13950       13950
  grid # 8         748         748         748         748         748         748         748
  grid # 9         394         394         394         394         394         394         394
   
  number of gridpoints: 
     atom          C25         C26         C27         C28         H29         H30         H31
  grid # 1          96          97          96          94         103         104         107
  grid # 2         327         325         327         324         431         430         440
  grid # 3          44          52          45          25         154         170         254
  grid # 4        8714        8714        8714        8714        8714        8714        8714
  grid # 5        1192        1192        1192        1192        1192        1192        1192
  grid # 6        5922        5922        5922        5922        5922        5922        5922
  grid # 7       13950       13950       13950       13950       15206       15206       15206
  grid # 8         748         748         748         748         786         786         786
  grid # 9         394         394         394         394         420         420         420
   
  number of gridpoints: 
     atom          H32         H33         H34         H35         H36         H37         H38
  grid # 1         105         107         105         101         107         106         106
  grid # 2         445         445         443         428         445         444         441
  grid # 3         199         269         212         145         273         229         207
  grid # 4        8714        8714        8714        8714        8714        8714        8714
  grid # 5        1192        1192        1192        1192        1192        1192        1192
  grid # 6        5922        5922        5922        5922        5922        5922        5922
  grid # 7       15206       15206       15206       15206       15206       15206       15206
  grid # 8         786         786         786         786         786         786         786
  grid # 9         420         420         420         420         420         420         420
   
  number of gridpoints: 
     atom          H39         H40         H41         H42         H43         H44         H45
  grid # 1         104         107         103         104         107         104         107
  grid # 2         436         443         433         432         444         426         443
  grid # 3         186         269         166         174         270         152         262
  grid # 4        8714        8714        8714        8714        8714        8714        8714
  grid # 5        1192        1192        1192        1192        1192        1192        1192
  grid # 6        5922        5922        5922        5922        5922        5922        5922
  grid # 7       15206       15206       15206       15206       15206       15206       15206
  grid # 8         786         786         786         786         786         786         786
  grid # 9         420         420         420         420         420         420         420
   
  number of gridpoints: 
     atom          H46         H47         H48         H49         H50         H51         H52
  grid # 1         101         106         100         100         108         118         118
  grid # 2         425         437         420         417         440         466         470
  grid # 3         155         226         131          92         231         412         434
  grid # 4        8714        8714        8714        8714        8714        8714        8714
  grid # 5        1192        1192        1192        1192        1192        1192        1192
  grid # 6        5922        5922        5922        5922        5922        5922        5922
  grid # 7       15206       15206       15206       15206       15206       15206       15206
  grid # 8         786         786         786         786         786         786         786
  grid # 9         420         420         420         420         420         420         420
   
  number of gridpoints: 
     atom          H53         H54         H55         H56         H57         H58         H59
  grid # 1         116          93         109         118         118         118         108
  grid # 2         462         415         446         465         467         466         439
  grid # 3         348          21         250         416         431         416         207
  grid # 4        8714        8714        8714        8714        8714        8714        8714
  grid # 5        1192        1192        1192        1192        1192        1192        1192
  grid # 6        5922        5922        5922        5922        5922        5922        5922
  grid # 7       15206       15206       15206       15206       15206       15206       15206
  grid # 8         786         786         786         786         786         786         786
  grid # 9         420         420         420         420         420         420         420
   
  number of gridpoints: 
     atom        total
  grid # 1        6397
  grid # 2       21652
  grid # 3        8244
  grid # 4      487984
  grid # 5       66752
  grid # 6      338052
  grid # 7      848238
  grid # 8       43442
  grid # 9       24646
   
  end of program grid
   
 Time(grid)  user:     143.228  user+sys:     143.228  wallclock:      75.035
  
  start of program rwr
  
  end of program rwr
   
 Time(rwr)  user:      13.909  user+sys:      13.909  wallclock:      17.369
  
  start of program scf
  
 number of electrons..........        202
 number of alpha electrons....        101
 number of beta electrons.....        101
 number of orbitals, total....        431
 number of doubly-occ'd orbs..        101
 number of open shell orbs....          0
 number of occupied orbitals..        101
 number of virtual orbitals...        330
 number of hamiltonians.......          1
 number of shells.............          1
 SCF type: DFT=Becke_3_Parameter/HF+Slater+Becke88+PW91+PW-GGAIIC (B3PW91-D3)
 Energy computed using pseudospectral method.
 Convergence Criterion:
    Energy (econv):       1.00E-05
    RMS density (dconv):  5.00E-06
  
       i  u  d  i  g                   
       t  p  i  c  r                                 RMS    maximum
       e  d  i  u  i                       energy  density   DIIS  
       r  t  s  t  d       total energy    change  change    error 
  
etot    1  N  N  5  M   -1359.95865941615           2.3E-03  2.0E-01
etot    2  Y  Y  6  M   -1361.91629923547  2.0E+00  3.8E-03  1.5E-01
etot    3  Y  Y  6  M   -1362.56585294255  6.5E-01  1.3E-03  2.3E-02
etot    4  N  Y  2  U   -1362.77983550981  2.1E-01  9.4E-04  3.8E-02
etot    5  Y  Y  6  M   -1362.79868688717  1.9E-02  8.0E-04  2.1E-02
etot    6  N  Y  2  U   -1362.79804670921 -6.4E-04  2.9E-04  5.1E-03
etot    7  Y  Y  6  M   -1362.80457658377  6.5E-03  5.9E-05  2.5E-03
etot    8  N  Y  2  U   -1362.80550692956  9.3E-04  2.3E-05  4.5E-04
etot    9  N  Y  2  U   -1362.80554085545  3.4E-05  1.5E-05  1.8E-04
etot   10  N  Y  2  U   -1362.80554680928  6.0E-06  7.4E-06  6.0E-05
etot   11  N  Y  2  U   -1362.80554752126  7.1E-07  2.2E-06  3.6E-05
etot   12  N  N  2  U   -1362.80554802946  5.1E-07  0.0E+00  0.0E+00
 
  Computing the dispersion energy correction and its gradients...
  
  
 Energy components, in hartrees:
   (A)  Nuclear repulsion............    2715.52643653744
   (E)  Total one-electron terms.....   -7311.99177656933
   (F)    Electron-nuclear...........   -8587.08815230749
   (H)    Kinetic....................    1275.09637573816
   (I)  Total two-electron terms.....    3233.65979200243
   (J)    Coulomb....................    3405.70963643214
   (K)    Exchange+Correlation.......    -172.04984442971
   (L)  Electronic energy............   -4078.33198456690  (E+I)
   (N0) D3 correction................      -0.08962229993
   (N)  Total energy.................   -1362.89517032940  (A+L+N0)
   (O)  Gas phase energy.............   -1362.89517032940
  
 SCFE: SCF energy: DFT(b3pw91-d3)     -1362.89517032940 hartrees   iterations:  12
  
 
 HOMO energy:    -0.14630
 LUMO energy:    -0.05048
 
  Orbital energies (hartrees): 
   -77.06473   -10.20211   -10.19882   -10.19574   -10.18922   -10.18561
   -10.18380   -10.17561   -10.17504   -10.17458   -10.17406   -10.17344
   -10.16832   -10.16751   -10.16700   -10.16661   -10.16577   -10.16577
   -10.16489   -10.16085   -10.16036   -10.15915   -10.15805   -10.15763
    -6.56454    -4.72248    -4.72226    -4.71934    -3.23996    -1.97758
    -1.95931    -1.95730    -0.86586    -0.84639    -0.82837    -0.80822
    -0.80663    -0.75772    -0.74427    -0.73926    -0.73230    -0.68978
    -0.68482    -0.68274    -0.68004    -0.67609    -0.65275    -0.61027
    -0.60045    -0.59197    -0.58673    -0.55732    -0.54474    -0.52257
    -0.50824    -0.48886    -0.46933    -0.46369    -0.45862    -0.44925
    -0.44710    -0.44237    -0.43943    -0.43655    -0.42850    -0.42392
    -0.41934    -0.41620    -0.41231    -0.40107    -0.40062    -0.38971
    -0.38793    -0.38266    -0.37681    -0.37089    -0.36653    -0.36240
    -0.35963    -0.35855    -0.35647    -0.34664    -0.33825    -0.33287
    -0.33237    -0.32759    -0.32523    -0.32378    -0.31299    -0.30618
    -0.29341    -0.27560    -0.25120    -0.24921    -0.24387    -0.21637
    -0.19835    -0.19628    -0.17964    -0.17595    -0.14630    -0.05048
    -0.02666    -0.00907    -0.00199     0.00570     0.02243     0.04225
     0.05041     0.05522     0.06429
 
  end of program scf
   
 Time(scf)  user:     397.300  user+sys:     397.300  wallclock:     217.735
  
  start of program der1a
  
  end of program der1a
   
 Time(der1a)  user:       8.234  user+sys:       8.234  wallclock:       4.919
  
  start of program rwr
  
  end of program rwr
   
 Time(rwr)  user:      14.874  user+sys:      14.874  wallclock:      18.961
  
  start of program der1b
  
   
  forces (hartrees/bohr) : total     
   
 atom  label           x              y              z
 ---- --------   -------------  -------------  -------------
    1 P1         -1.438570E-02   3.827259E-03   2.246735E-02
    2 Pd2        -1.015293E-02   7.012950E-03   1.480803E-02
    3 C6          7.351915E-03  -8.876870E-03  -1.832185E-02
    4 C7          4.236880E-02  -6.051934E-03  -2.190687E-02
    5 C8         -4.344357E-03  -1.242358E-02   4.044055E-03
    6 C9         -1.013123E-02   1.909262E-02   8.631085E-03
    7 C10        -1.791586E-02   1.913662E-02  -2.314079E-02
    8 C11        -2.987104E-03   7.050487E-03   1.104009E-02
    9 C12        -8.771454E-03  -1.544345E-02   5.406928E-03
   10 C13         1.806663E-02   4.010990E-03  -1.014537E-02
   11 C14         1.371294E-02   8.469177E-04  -1.939296E-02
   12 C15        -6.184317E-03   1.453350E-03   1.196314E-02
   13 C16         5.069223E-03   1.064841E-03  -2.180360E-02
   14 C17        -4.393868E-03  -1.315961E-02   1.355040E-02
   15 C18        -7.235215E-04  -1.297898E-02   1.367825E-02
   16 C19         6.278278E-04   3.479738E-03   4.392674E-04
   17 C20         5.255840E-04   1.784825E-03  -5.985141E-04
   18 C21        -2.595762E-03  -4.346707E-03   2.960891E-03
   19 C22         2.534192E-03   2.238952E-02  -3.970926E-03
   20 C23        -1.508283E-02  -1.224370E-02  -5.133440E-03
   21 C24        -1.835096E-02  -8.072359E-04  -9.129356E-03
   22 C25         3.550526E-03   6.281323E-04   7.359549E-04
   23 C26         1.512767E-03   2.518813E-03   1.248521E-03
   24 C27        -7.120337E-03  -3.978115E-04   1.020350E-03
   25 C28         2.209635E-02  -7.401733E-03   3.046471E-03
   26 H29        -8.958121E-04  -4.962049E-03   6.500964E-03
   27 H30        -2.030327E-03   1.356153E-02   4.417422E-03
   28 H31        -8.654022E-03  -3.604633E-04   5.853864E-03
   29 H32        -4.526452E-03  -2.981349E-03  -4.991964E-03
   30 H33        -7.705031E-03   2.526957E-03  -5.379967E-03
   31 H34         1.133837E-03   8.159643E-03   4.674608E-03
   32 H35         4.698873E-03  -5.835583E-03   5.486279E-03
   33 H36        -6.196572E-03  -7.321202E-03  -3.239310E-03
   34 H37        -2.844760E-03  -3.011980E-03  -1.050966E-02
   35 H38        -6.990565E-03  -5.181557E-03   1.096503E-03
   36 H39         9.793849E-03  -4.919415E-04  -3.573938E-03
   37 H40         6.968228E-03  -9.317262E-03   2.896253E-03
   38 H41         9.438510E-03   1.629982E-03  -6.090132E-03
   39 H42        -1.056637E-03   7.431349E-03   5.342637E-03
   40 H43         8.763249E-03   8.571243E-04   4.498256E-03
   41 H44        -7.157612E-03  -1.067038E-02  -1.559599E-03
   42 H45        -1.645321E-03  -4.518088E-03   8.627161E-03
   43 H46         8.596134E-05   7.145669E-03   5.813094E-03
   44 H47         7.460786E-03   8.996841E-07   1.225815E-02
   45 H48        -1.133880E-02   1.971905E-03  -7.038516E-03
   46 H49         2.992586E-03  -3.041897E-03   1.137285E-02
   47 H50         3.908116E-03   8.239776E-03  -3.174538E-03
   48 H51         5.761292E-03   3.890570E-03  -7.292942E-03
   49 H52         5.436948E-03  -3.461261E-03  -7.501613E-03
   50 H53         2.563300E-03  -9.264560E-03  -3.668072E-03
   51 H54        -5.755102E-03  -5.242235E-03  -1.710198E-03
   52 H55         1.174732E-02  -2.540318E-03  -3.836272E-03
   53 H56         1.036328E-02   6.431743E-03  -5.438173E-04
   54 H57         1.178966E-03   6.913423E-03   1.388089E-03
   55 H58        -5.998685E-03   8.843209E-03   4.093794E-03
   56 H59        -1.349475E-02   5.135567E-04   4.492168E-03
 -------------   -------------  -------------  -------------
     total        2.811924E-04   8.066698E-05   1.986595E-04
   
  end of program der1b
   
 Time(der1b)  user:     121.844  user+sys:     121.844  wallclock:      65.152
  
  start of program geopt
  
 ----------------------------------------------------------------------------
  Geometry optimization step  1
  Total energy:     -1362.89517032940 hartrees
 ----------------------------------------------------------------------------
  
  
  Level shifts adjusted to satisfy step-size constraints
   Step size:    0.3000585
   Cos(theta):   0.8944429
   Final level shift:  -2.2879158E-01
  
  gradient maximum:        4.4240E-02 .  (  2.2500E-03 )
  gradient rms:            1.1184E-02 .  (  1.5000E-03 )
  displacement maximum:    1.0150E-01 .  (  9.0000E-03 )
  displacement rms:        2.2364E-02 .  (  6.0000E-03 )
  
  predicted energy change:  -3.0433E-02
  step size:     0.30005
  trust radius:  0.30000
  
  molecular structure not yet converged...
  
  center of mass moved by:
     x:    -5.3731E-02     y:     6.6925E-02     z:     1.8134E-02
  
  new geometry: 
                                   angstroms
  atom               x                 y                 z
  P1           -0.0080409973     -0.0099860649      0.0156225579 
  Pd2          -0.1029772501      0.1207032630      2.2402624106 
  C6            2.4408306686     -0.1506158083     -1.6763566089 
  C7            1.8472569092      0.1992535711     -0.2881883370 
  C8            2.6054202377     -0.6985168840      0.7178117248 
  C9            2.1960539723      1.6672288788      0.0126896532 
  C10          -1.0125503742      1.0752812773     -1.2076751974 
  C11          -1.3605303244      2.4204566764     -0.5368335799 
  C12          -2.3239570357      0.3801793574     -1.6439164144 
  C13          -0.2579948891      1.4076196981     -2.5097017796 
  C14          -0.6069460638     -1.7102410733     -0.4060518663 
  C15          -1.5837884080     -2.4374720525      0.2393267114 
  C16           0.0598355295     -2.1988656965     -1.6765568263 
  C17          -2.4838965370     -1.8958487734      1.3084024595 
  C18          -3.1221648089     -2.7532360219      2.2350641270 
  C19          -3.9509694668     -2.2969346311      3.2561429793 
  C20          -4.1829202297     -0.9294454502      3.4254504693 
  C21          -3.5597097003     -0.0467069630      2.5511172571 
  C22          -2.7332178301     -0.5267981549      1.5304266104 
  C23          -1.8092592335     -3.8726417950     -0.1251883471 
  C24          -3.1116657773     -4.4164242015     -0.1615148671 
  C25          -3.3727536985     -5.7377222838     -0.5150910883 
  C26          -2.3258318755     -6.5934132844     -0.8528582849 
  C27          -1.0234217105     -6.0963869247     -0.8261505213 
  C28          -0.7827099119     -4.7690550787     -0.4749862215 
  H29           2.0256320920      0.4359452038     -2.5028731893 
  H30           2.3381654381     -1.2182329136     -1.9309460280 
  H31           3.5264337409      0.0530346145     -1.6905280524 
  H32           2.3934341961     -0.4144332351      1.7614959767 
  H33           3.6938936714     -0.6008431371      0.5734371671 
  H34           2.3465061005     -1.7615929987      0.5817608829 
  H35           1.6474704732      2.3773120650     -0.6270469623 
  H36           3.2712411492      1.8519926798     -0.1412839218 
  H37           1.9662769529      1.9271941250      1.0605532811 
  H38          -0.4579373014      2.9627935930     -0.2186048144 
  H39          -2.0173074924      2.2978667139      0.3394681150 
  H40          -1.9017157425      3.0751362733     -1.2441804448 
  H41          -2.9979336721      0.1375164626     -0.8083252587 
  H42          -2.1356498000     -0.5555234171     -2.1922391560 
  H43          -2.8924410786      1.0403108796     -2.3185640344 
  H44           0.6367334595      2.0287700950     -2.3317779330 
  H45          -0.8950540548      2.0022080375     -3.1854700402 
  H46           0.0371764645      0.5106906362     -3.0743479190 
  H47          -0.5471000206     -2.9162803932     -2.2510262757 
  H48           1.0689129794     -2.6093104790     -1.4981749684 
  H49           0.1898279036     -1.3597384106     -2.3810062682 
  H50          -2.9398321240     -3.8261148429      2.2211986982 
  H51          -4.4071080457     -3.0141311015      3.9423778685 
  H52          -4.8306237745     -0.5617687591      4.2251831887 
  H53          -3.7074377384      1.0305883176      2.6518450138 
  H54          -2.3158504850      0.2272296581      0.8782640826 
  H55          -3.9788336848     -3.7809305110      0.0266214081 
  H56          -4.4042051412     -6.1012700091     -0.5303305064 
  H57          -2.5180852203     -7.6328774993     -1.1232622734 
  H58          -0.1859770052     -6.7509719396     -1.0803773491 
  H59           0.2635142985     -4.4664479574     -0.4290928529 
   
 
  bond lengths (angstroms):
 
 P1      -Pd2     :   2.230497      P1      -C7      :   1.891616
 P1      -C10     :   1.919193      P1      -C14     :   1.851314
 C6      -C7      :   1.549758      C6      -H29     :   1.095250
 C6      -H30     :   1.102344      C6      -H31     :   1.104630
 C7      -C8      :   1.546881      C7      -C9      :   1.538551
 C8      -H32     :   1.102233      C8      -H33     :   1.102342
 C8      -H34     :   1.102578      C9      -H35     :   1.102009
 C9      -H36     :   1.101759      C9      -H37     :   1.103810
 C10     -C11     :   1.542924      C10     -C12     :   1.547017
 C10     -C13     :   1.541128      C11     -H38     :   1.100033
 C11     -H39     :   1.101948      C11     -H40     :   1.105363
 C12     -H41     :   1.100610      C12     -H42     :   1.100753
 C12     -H43     :   1.101861      C13     -H44     :   1.103641
 C13     -H45     :   1.102743      C13     -H46     :   1.100197
 C14     -C15     :   1.378260      C14     -C16     :   1.515762
 C15     -C17     :   1.498824      C15     -C23     :   1.497805
 C16     -H47     :   1.101394      C16     -H48     :   1.103867
 C16     -H49     :   1.103305      C17     -C18     :   1.414638
 C17     -C22     :   1.409168      C18     -C19     :   1.392024
 C18     -H50     :   1.088350      C19     -C20     :   1.397316
 C19     -H51     :   1.092406      C20     -C21     :   1.389992
 C20     -H52     :   1.092830      C21     -C22     :   1.398351
 C21     -H53     :   1.092032      C22     -H54     :   1.080773
 C23     -C24     :   1.411836      C23     -C28     :   1.407025
 C24     -C25     :   1.392484      C24     -H55     :   1.091434
 C25     -C26     :   1.393678      C25     -H56     :   1.093751
 C26     -C27     :   1.394281      C26     -H57     :   1.091130
 C27     -C28     :   1.393940      C27     -H58     :   1.092898
 C28     -H59     :   1.090074
 
  bond angles:
 
 C7      -P1      -Pd2     : 101.271127  C10     -P1      -Pd2     : 125.472936
 C10     -P1      -C7      : 110.391313  C14     -P1      -Pd2     : 105.498566
 C14     -P1      -C7      : 112.476105  C14     -P1      -C10     : 101.819963
 H29     -C6      -C7      : 114.195601  H30     -C6      -C7      : 112.944930
 H30     -C6      -H29     : 108.004209  H31     -C6      -C7      : 110.260190
 H31     -C6      -H29     : 105.316131  H31     -C6      -H30     : 105.492916
 C6      -C7      -P1      : 119.639934  C8      -C7      -P1      : 108.183742
 C8      -C7      -C6      : 105.294767  C9      -C7      -P1      : 107.246535
 C9      -C7      -C6      : 107.682379  C9      -C7      -C8      : 108.388486
 H32     -C8      -C7      : 111.835966  H33     -C8      -C7      : 110.325774
 H33     -C8      -H32     : 106.922709  H34     -C8      -C7      : 111.360831
 H34     -C8      -H32     : 108.673634  H34     -C8      -H33     : 107.526214
 H35     -C9      -C7      : 112.855946  H36     -C9      -C7      : 110.726887
 H36     -C9      -H35     : 107.254156  H37     -C9      -C7      : 111.294858
 H37     -C9      -H35     : 107.200285  H37     -C9      -H36     : 107.236700
 C11     -C10     -P1      : 109.506698  C12     -C10     -P1      : 111.675389
 C12     -C10     -C11     : 108.853613  C13     -C10     -P1      : 113.840429
 C13     -C10     -C11     : 106.842738  C13     -C10     -C12     : 105.884517
 H38     -C11     -C10     : 111.749994  H39     -C11     -C10     : 112.531119
 H39     -C11     -H38     : 108.290441  H40     -C11     -C10     : 110.399154
 H40     -C11     -H38     : 107.148186  H40     -C11     -H39     : 106.437347
 H41     -C12     -C10     : 113.833559  H42     -C12     -C10     : 112.172518
 H42     -C12     -H41     : 107.188997  H43     -C12     -C10     : 109.926964
 H43     -C12     -H41     : 106.319898  H43     -C12     -H42     : 107.009937
 H44     -C13     -C10     : 112.463716  H45     -C13     -C10     : 110.557956
 H45     -C13     -H44     : 105.288252  H46     -C13     -C10     : 112.901707
 H46     -C13     -H44     : 108.909272  H46     -C13     -H45     : 106.263627
 C15     -C14     -P1      : 127.388678  C16     -C14     -P1      : 110.161452
 C16     -C14     -C15     : 122.288044  C17     -C15     -C14     : 124.677649
 C23     -C15     -C14     : 119.888437  C23     -C15     -C17     : 115.431960
 H47     -C16     -C14     : 113.875787  H48     -C16     -C14     : 112.739158
 H48     -C16     -H47     : 110.232626  H49     -C16     -C14     : 109.988632
 H49     -C16     -H47     : 103.138431  H49     -C16     -H48     : 106.156907
 C18     -C17     -C15     : 121.276854  C22     -C17     -C15     : 124.730158
 C22     -C17     -C18     : 113.940765  C19     -C18     -C17     : 123.398439
 H50     -C18     -C17     : 120.899459  H50     -C18     -C19     : 115.609140
 C20     -C19     -C18     : 120.564765  H51     -C19     -C18     : 119.616318
 H51     -C19     -C20     : 119.807463  C21     -C20     -C19     : 118.090748
 H52     -C20     -C19     : 121.085460  H52     -C20     -C21     : 120.822840
 C22     -C21     -C20     : 120.404482  H53     -C21     -C20     : 120.519018
 H53     -C21     -C22     : 119.076471  C21     -C22     -C17     : 123.582003
 H54     -C22     -C17     : 120.958302  H54     -C22     -C21     : 115.414914
 C24     -C23     -C15     : 120.942742  C28     -C23     -C15     : 124.134045
 C28     -C23     -C24     : 114.914023  C25     -C24     -C23     : 123.022493
 H55     -C24     -C23     : 120.281092  H55     -C24     -C25     : 116.569814
 C26     -C25     -C24     : 120.217513  H56     -C25     -C24     : 119.719228
 H56     -C25     -C26     : 120.062894  C27     -C26     -C25     : 118.566936
 H57     -C26     -C25     : 120.837898  H57     -C26     -C27     : 120.592527
 C28     -C27     -C26     : 120.369383  H58     -C27     -C26     : 119.854955
 H58     -C27     -C28     : 119.775597  C27     -C28     -C23     : 122.908333
 H59     -C28     -C23     : 120.858055  H59     -C28     -C27     : 116.147368
 
  torsional angles:
 
 P1      -C7      -C6      -H29     :  60.194744
 P1      -C7      -C6      -H30     : -63.735715
 P1      -C7      -C6      -H31     : 178.524025
 P1      -C7      -C8      -H32     : -60.946401
 P1      -C7      -C8      -H33     :-179.816836
 P1      -C7      -C8      -H34     :  60.862208
 P1      -C7      -C9      -H35     : -60.085155
 P1      -C7      -C9      -H36     : 179.672398
 P1      -C7      -C9      -H37     :  60.493574
 P1      -C10     -C11     -H38     :  58.396393
 P1      -C10     -C11     -H39     : -63.698193
 P1      -C10     -C11     -H40     : 177.543111
 P1      -C10     -C12     -H41     :  59.037321
 P1      -C10     -C12     -H42     : -62.894029
 P1      -C10     -C12     -H43     : 178.174873
 P1      -C10     -C13     -H44     : -64.547856
 P1      -C10     -C13     -H45     : 178.078005
 P1      -C10     -C13     -H46     :  59.187623
 P1      -C14     -C15     -C17     :   8.890462
 P1      -C14     -C15     -C23     :-171.642095
 P1      -C14     -C16     -H47     :-151.698544
 P1      -C14     -C16     -H48     :  81.747260
 P1      -C14     -C16     -H49     : -36.515188
 Pd2     -P1      -C7      -C6      : 165.774445
 Pd2     -P1      -C7      -C8      :  45.353446
 Pd2     -P1      -C7      -C9      : -71.367325
 Pd2     -P1      -C10     -C11     :  26.313427
 Pd2     -P1      -C10     -C12     : -94.331179
 Pd2     -P1      -C10     -C13     : 145.825408
 Pd2     -P1      -C14     -C15     :  34.822589
 Pd2     -P1      -C14     -C16     :-149.761149
 C6      -C7      -P1      -C10     : -59.365800
 C6      -C7      -P1      -C14     :  53.606585
 C6      -C7      -C8      -H32     : 170.041545
 C6      -C7      -C8      -H33     :  51.171109
 C6      -C7      -C8      -H34     : -68.149846
 C6      -C7      -C9      -H35     :  69.891700
 C6      -C7      -C9      -H36     : -50.350747
 C6      -C7      -C9      -H37     :-169.529571
 C7      -P1      -C10     -C11     : -95.080988
 C7      -P1      -C10     -C12     : 144.274405
 C7      -P1      -C10     -C13     :  24.430993
 C7      -P1      -C14     -C15     : 144.348054
 C7      -P1      -C14     -C16     : -40.235684
 C8      -C7      -P1      -C10     :-179.786799
 C8      -C7      -P1      -C14     : -66.814414
 C8      -C7      -C6      -H29     :-177.945928
 C8      -C7      -C6      -H30     :  58.123612
 C8      -C7      -C6      -H31     : -59.616648
 C8      -C7      -C9      -H35     :-176.671131
 C8      -C7      -C9      -H36     :  63.086423
 C8      -C7      -C9      -H37     : -56.092402
 C9      -C7      -P1      -C10     :  63.492431
 C9      -C7      -P1      -C14     : 176.464815
 C9      -C7      -C6      -H29     : -62.450316
 C9      -C7      -C6      -H30     : 173.619225
 C9      -C7      -C6      -H31     :  55.878964
 C9      -C7      -C8      -H32     :  55.033374
 C9      -C7      -C8      -H33     : -63.837061
 C9      -C7      -C8      -H34     : 176.841983
 C10     -P1      -C14     -C15     : -97.499218
 C10     -P1      -C14     -C16     :  77.917044
 C11     -C10     -P1      -C14     : 145.283256
 C11     -C10     -C12     -H41     : -61.987851
 C11     -C10     -C12     -H42     : 176.080799
 C11     -C10     -C12     -H43     :  57.149702
 C11     -C10     -C13     -H44     :  56.463254
 C11     -C10     -C13     -H45     : -60.910885
 C11     -C10     -C13     -H46     :-179.801267
 C12     -C10     -P1      -C14     :  24.638649
 C12     -C10     -C11     -H38     :-179.258349
 C12     -C10     -C11     -H39     :  58.647065
 C12     -C10     -C11     -H40     : -60.111631
 C12     -C10     -C13     -H44     : 172.387727
 C12     -C10     -C13     -H45     :  55.013589
 C12     -C10     -C13     -H46     : -63.876793
 C13     -C10     -P1      -C14     : -95.204763
 C13     -C10     -C11     -H38     : -65.332532
 C13     -C10     -C11     -H39     : 172.572882
 C13     -C10     -C11     -H40     :  53.814186
 C13     -C10     -C12     -H41     :-176.538611
 C13     -C10     -C12     -H42     :  61.530039
 C13     -C10     -C12     -H43     : -57.401058
 C14     -C15     -C17     -C18     :-157.836948
 C14     -C15     -C17     -C22     :  19.372583
 C14     -C15     -C23     -C24     :-142.351996
 C14     -C15     -C23     -C28     :  36.488123
 C15     -C14     -C16     -H47     :  23.993910
 C15     -C14     -C16     -H48     :-102.560286
 C15     -C14     -C16     -H49     : 139.177266
 C15     -C17     -C18     -C19     : 179.059589
 C15     -C17     -C18     -H50     :   2.721380
 C15     -C17     -C22     -C21     :-178.818423
 C15     -C17     -C22     -H54     :   3.728652
 C15     -C23     -C24     -C25     : 178.938609
 C15     -C23     -C24     -H55     :   3.171617
 C15     -C23     -C28     -C27     :-179.181525
 C15     -C23     -C28     -H59     :   4.326865
 C16     -C14     -C15     -C17     :-166.018364
 C16     -C14     -C15     -C23     :  13.449080
 C17     -C15     -C23     -C24     :  37.163055
 C17     -C15     -C23     -C28     :-143.996826
 C17     -C18     -C19     -C20     :  -0.797103
 C17     -C18     -C19     -H51     :-179.563623
 C17     -C22     -C21     -C20     :   0.511654
 C17     -C22     -C21     -H53     :-179.550101
 C18     -C17     -C15     -C23     :  22.674321
 C18     -C17     -C22     -C21     :  -1.427721
 C18     -C17     -C22     -H54     :-178.880646
 C18     -C19     -C20     -C21     :  -0.246530
 C18     -C19     -C20     -H52     :-179.894478
 C19     -C18     -C17     -C22     :   1.568609
 C19     -C20     -C21     -C22     :   0.384059
 C19     -C20     -C21     -H53     :-179.553289
 C20     -C19     -C18     -H50     : 175.718758
 C20     -C21     -C22     -H54     : 178.093479
 C21     -C20     -C19     -H51     : 178.517639
 C22     -C17     -C15     -C23     :-160.116148
 C22     -C17     -C18     -H50     :-174.769600
 C22     -C21     -C20     -H52     :-179.967026
 C23     -C24     -C25     -C26     :   0.105975
 C23     -C24     -C25     -H56     :-179.674190
 C23     -C28     -C27     -C26     :   0.458628
 C23     -C28     -C27     -H58     :-179.448544
 C24     -C23     -C28     -C27     :  -0.278400
 C24     -C23     -C28     -H59     :-176.770010
 C24     -C25     -C26     -C27     :   0.064314
 C24     -C25     -C26     -H57     : 179.476743
 C25     -C24     -C23     -C28     :  -0.002829
 C25     -C26     -C27     -C28     :  -0.335715
 C25     -C26     -C27     -H58     : 179.571383
 C26     -C25     -C24     -H55     : 176.019124
 C26     -C27     -C28     -H59     : 177.103714
 C27     -C26     -C25     -H56     : 179.843720
 C28     -C23     -C24     -H55     :-175.769821
 C28     -C27     -C26     -H57     :-179.749638
 H50     -C18     -C19     -H51     :  -3.047761
 H51     -C19     -C20     -H52     :  -1.130309
 H52     -C20     -C21     -H53     :   0.095626
 H53     -C21     -C22     -H54     :  -1.968276
 H55     -C24     -C25     -H56     :  -3.761041
 H56     -C25     -C26     -H57     :  -0.743851
 H57     -C26     -C27     -H58     :   0.157460
 H58     -C27     -C28     -H59     :  -2.803457
 
  nuclear repulsion energy.......          2725.217031752 hartrees
 -------------------------------------------------
   end of geometry optimization iteration  1
 -------------------------------------------------
   
  end of program geopt
   
 Time(geopt)  user:       0.684  user+sys:       0.684  wallclock:       0.855
  
  start of program onee
  
  smallest eigenvalue of S:    4.206E-04
  number of canonical orbitals.....          431
  end of program onee
   
 Time(onee)  user:       2.924  user+sys:       2.924  wallclock:       2.473
  
  start of program probe
  
  end of program probe
   
 Time(probe)  user:       0.529  user+sys:       0.529  wallclock:       0.440
  
  start of program grid
  
  end of program grid
   
 Time(grid)  user:     142.346  user+sys:     142.346  wallclock:      73.959
  
  start of program rwr
  
  end of program rwr
   
 Time(rwr)  user:      14.479  user+sys:      14.479  wallclock:      18.582
  
  start of program scf
  
 Energy computed using pseudospectral method.
 Convergence Criterion:
    Energy (econv):       1.00E-05
    RMS density (dconv):  5.00E-06
  
       i  u  d  i  g                   
       t  p  i  c  r                                 RMS    maximum
       e  d  i  u  i                       energy  density   DIIS  
       r  t  s  t  d       total energy    change  change    error 
  
etot    1  N  N  2  U   -1362.79093697432           5.5E-04  1.6E-02
etot    2  Y  Y  6  M   -1362.83016563175  3.9E-02  1.4E-04  2.9E-03
etot    3  N  Y  2  U   -1362.83129966074  1.1E-03  6.2E-05  1.2E-03
etot    4  Y  Y  6  M   -1362.83173376962  4.3E-04  2.3E-05  9.1E-04
etot    5  N  Y  2  U   -1362.83177256366  3.9E-05  1.0E-05  5.2E-04
etot    6  N  Y  2  U   -1362.83178436379  1.2E-05  4.4E-06  8.6E-05
etot    7  N  N  2  U   -1362.83178587417  1.5E-06  0.0E+00  0.0E+00
 
  Computing the dispersion energy correction and its gradients...
  
  
 Energy components, in hartrees:
   (A)  Nuclear repulsion............    2725.21703175219
   (E)  Total one-electron terms.....   -7331.40351533854
   (F)    Electron-nuclear...........   -8607.01327541504
   (H)    Kinetic....................    1275.60976007651
   (I)  Total two-electron terms.....    3243.35469771218
   (J)    Coulomb....................    3415.54414517520
   (K)    Exchange+Correlation.......    -172.18944746302
   (L)  Electronic energy............   -4088.04881762636  (E+I)
   (N0) D3 correction................      -0.09169836456
   (N)  Total energy.................   -1362.92348423873  (A+L+N0)
   (O)  Gas phase energy.............   -1362.92348423873
  
 SCFE: SCF energy: DFT(b3pw91-d3)     -1362.92348423873 hartrees   iterations:   7
  
 
 HOMO energy:    -0.14683
 LUMO energy:    -0.04928
 
  Orbital energies (hartrees): 
   -77.06050   -10.19890   -10.19451   -10.19445   -10.18630   -10.18464
   -10.18174   -10.17325   -10.17322   -10.17219   -10.17160   -10.17112
   -10.16737   -10.16692   -10.16466   -10.16456   -10.16377   -10.16326
   -10.16313   -10.15732   -10.15609   -10.15605   -10.15402   -10.15285
    -6.56007    -4.71796    -4.71782    -4.71491    -3.23751    -1.97475
    -1.95658    -1.95507    -0.86806    -0.85002    -0.82873    -0.80634
    -0.80625    -0.75756    -0.74594    -0.74296    -0.73647    -0.69395
    -0.68904    -0.68478    -0.68124    -0.67713    -0.64874    -0.61155
    -0.60278    -0.59322    -0.58870    -0.55350    -0.54426    -0.52494
    -0.51178    -0.48929    -0.47153    -0.46434    -0.45963    -0.45160
    -0.44896    -0.44318    -0.44208    -0.43621    -0.42948    -0.42451
    -0.41856    -0.41559    -0.41387    -0.40611    -0.40372    -0.39111
    -0.38999    -0.38438    -0.37829    -0.37072    -0.36841    -0.36411
    -0.36246    -0.35883    -0.35671    -0.34798    -0.34085    -0.33663
    -0.33248    -0.32966    -0.32556    -0.32510    -0.30984    -0.30097
    -0.28901    -0.27643    -0.25374    -0.25217    -0.24695    -0.21438
    -0.19579    -0.19463    -0.17703    -0.17424    -0.14683    -0.04928
    -0.02561    -0.00892    -0.00300     0.00861     0.02344     0.04209
     0.05272     0.05915     0.07036
 
  end of program scf
   
 Time(scf)  user:     253.188  user+sys:     253.188  wallclock:     137.787
  
  start of program der1a
  
  end of program der1a
   
 Time(der1a)  user:       8.296  user+sys:       8.296  wallclock:       4.975
  
  start of program rwr
  
  end of program rwr
   
 Time(rwr)  user:      15.553  user+sys:      15.553  wallclock:      20.093
  
  start of program der1b
  
   
  forces (hartrees/bohr) : total     
   
 atom  label           x              y              z
 ---- --------   -------------  -------------  -------------
    1 P1         -6.549856E-03  -2.252561E-03   2.051304E-02
    2 Pd2        -8.410148E-03   6.258519E-03   6.345821E-03
    3 C6          5.581366E-03  -3.246021E-03  -7.724524E-03
    4 C7          2.027860E-02  -7.533298E-03  -1.778222E-02
    5 C8         -1.778340E-03  -2.371572E-03   2.400418E-03
    6 C9         -4.052202E-03   8.111198E-03   5.815856E-03
    7 C10        -6.010758E-03   1.011572E-02  -1.231701E-02
    8 C11        -2.312321E-03   2.759155E-03   3.587904E-03
    9 C12        -4.152561E-03  -5.423506E-03   8.533546E-04
   10 C13         5.864699E-03   3.711442E-03  -4.369374E-03
   11 C14         4.421418E-03  -2.009914E-03  -1.137535E-02
   12 C15         6.607238E-04   6.031975E-03   4.000774E-03
   13 C16        -2.401535E-03  -8.480437E-04  -1.056970E-02
   14 C17         5.342065E-04  -6.594432E-03   8.988324E-03
   15 C18         4.366896E-03  -7.284476E-03   5.403950E-03
   16 C19        -7.315459E-04   2.283672E-03   2.008958E-03
   17 C20        -2.985287E-04   2.405574E-04   1.110537E-04
   18 C21        -1.800654E-03  -6.613337E-04   2.452726E-03
   19 C22         3.875195E-03   9.901184E-03  -3.398097E-03
   20 C23        -8.111855E-03  -5.904581E-03  -6.512677E-03
   21 C24        -8.859051E-03   5.480021E-03  -7.193870E-03
   22 C25         4.008170E-05  -1.681116E-03  -1.104168E-04
   23 C26         9.472882E-04  -2.165790E-03   5.147731E-04
   24 C27        -2.400935E-03  -1.395780E-03  -8.555218E-04
   25 C28         1.129679E-02   1.222240E-04   5.906253E-03
   26 H29         8.368979E-05  -2.601148E-03   3.408955E-03
   27 H30         1.216181E-03   8.513157E-03   2.404482E-03
   28 H31        -3.460656E-03   6.923678E-04   3.838417E-03
   29 H32        -3.002038E-03  -1.911252E-03  -2.826941E-03
   30 H33        -2.797620E-03   1.137647E-03  -2.580260E-03
   31 H34         3.152987E-04   3.784963E-03   1.906095E-03
   32 H35         3.815475E-03  -3.392600E-03   2.232576E-03
   33 H36        -2.212817E-03  -3.282715E-03  -8.727909E-04
   34 H37        -9.402993E-04  -1.929340E-03  -4.355828E-03
   35 H38        -3.539024E-03  -2.627840E-03   1.078090E-03
   36 H39         5.029943E-03  -8.903097E-04  -1.377835E-03
   37 H40         2.287966E-03  -3.959354E-03   5.066366E-04
   38 H41         4.308272E-03   9.884225E-04  -5.990118E-03
   39 H42        -3.278744E-05   3.679599E-03   2.115874E-03
   40 H43         3.808319E-03   8.776376E-04   1.418985E-03
   41 H44        -4.121091E-03  -5.542246E-03  -1.009918E-03
   42 H45        -1.857899E-03  -1.980809E-03   3.860685E-03
   43 H46        -1.167050E-03   3.925653E-03   2.620885E-03
   44 H47         3.397160E-03  -3.720038E-03   7.979020E-03
   45 H48        -7.072768E-03  -1.865959E-03  -2.528619E-03
   46 H49         1.145321E-03  -2.862798E-03   6.074336E-03
   47 H50         1.531666E-03   2.213427E-03  -3.846487E-03
   48 H51         1.955580E-03   1.359640E-03  -2.830792E-03
   49 H52         1.929452E-03  -1.560183E-03  -2.812849E-03
   50 H53         8.641221E-04  -3.245980E-03  -1.145599E-03
   51 H54        -3.418505E-03  -3.961155E-03   9.058870E-04
   52 H55         4.867525E-03   6.273522E-04   1.673167E-03
   53 H56         3.794208E-03   2.360020E-03  -1.249664E-04
   54 H57         2.857333E-04   2.624625E-03   3.771282E-04
   55 H58        -2.147244E-03   3.150196E-03   1.384317E-03
   56 H59        -4.029505E-03   3.499605E-03   9.211301E-04
 -------------   -------------  -------------  -------------
     total        8.335833E-04  -2.561780E-04  -9.018944E-04
   
  end of program der1b
   
 Time(der1b)  user:     121.578  user+sys:     121.578  wallclock:      64.997
  
  start of program geopt
  
 ----------------------------------------------------------------------------
  Geometry optimization step  2
  Total energy:     -1362.92348423873 hartrees
 ----------------------------------------------------------------------------
  
  
  Level shifts adjusted to satisfy step-size constraints
   Step size:    0.3000628
   Cos(theta):   0.8735053
   Final level shift:  -1.8999955E-01
  
  energy change:          -2.8314E-02 .  (  2.5000E-04 )
  gradient maximum:        3.8716E-02 .  (  2.2500E-03 )
  gradient rms:            8.0747E-03 .  (  1.5000E-03 )
  displacement maximum:    9.3081E-02 .  (  9.0000E-03 )
  displacement rms:        2.2365E-02 .  (  6.0000E-03 )
  
  predicted energy change:  -2.2751E-02
  step size:     0.30006
  trust radius:  0.30000
  
  molecular structure not yet converged...
  
  center of mass moved by:
     x:    -1.3858E-01     y:     1.6030E-01     z:    -3.1310E-02
  
  new geometry: 
                                   angstroms
  atom               x                 y                 z
  P1           -0.0053109312     -0.0417625999     -0.0219907364 
  Pd2          -0.3340725923      0.3844955251      2.1597176531 
  C6            2.5809158249     -0.3238608607     -1.5921231825 
  C7            1.8902645329      0.1114845408     -0.2771943999 
  C8            2.5119594019     -0.7501098278      0.8347570917 
  C9            2.2158122494      1.5920808290     -0.0209371467 
  C10          -0.9051728854      1.0377851801     -1.3515045606 
  C11          -1.2801948201      2.3605108642     -0.6632970061 
  C12          -2.1588671938      0.3296822334     -1.8979914139 
  C13          -0.0430004056      1.3696813826     -2.5828396149 
  C14          -0.6005745115     -1.7648817849     -0.3989781839 
  C15          -1.5377966333     -2.4865147977      0.3127028211 
  C16           0.0135644309     -2.3562412265     -1.6552303557 
  C17          -2.3815090231     -2.0090926688      1.4467538359 
  C18          -2.9049563056     -2.9395415527      2.3691309399 
  C19          -3.6860259591     -2.5598195806      3.4497387431 
  C20          -3.9783993146     -1.2157349839      3.6766434901 
  C21          -3.4684083391     -0.2710879481      2.7999044726 
  C22          -2.6845379851     -0.6565011846      1.7149023941 
  C23          -1.7854384611     -3.9004110801     -0.0927203971 
  C24          -3.0892742609     -4.4227740416     -0.1495523354 
  C25          -3.3355845125     -5.7264464029     -0.5471165139 
  C26          -2.2827093102     -6.5619472470     -0.9061830367 
  C27          -0.9832099440     -6.0700652200     -0.8514849524 
  C28          -0.7404314436     -4.7616350375     -0.4559320710 
  H29           2.2207428627      0.2023382184     -2.4738921761 
  H30           2.5041873904     -1.3925009065     -1.7762203815 
  H31           3.6525148566     -0.0990029362     -1.5143573134 
  H32           2.2226598837     -0.3862591914      1.8291691987 
  H33           3.6051199481     -0.6993223230      0.7547209436 
  H34           2.2111671325     -1.7995848274      0.7526668013 
  H35           1.7151788202      2.2665915151     -0.7195260001 
  H36           3.2964019738      1.7482870982     -0.1191175789 
  H37           1.9048232309      1.8891476145      0.9861648746 
  H38          -0.4022704049      2.8801649802     -0.2718988026 
  H39          -1.9703176575      2.2094801428      0.1722693205 
  H40          -1.7635265207      3.0241123694     -1.3911351377 
  H41          -2.8956490740      0.0858590185     -1.1343833577 
  H42          -1.9097808916     -0.5979105306     -2.4189867675 
  H43          -2.6452315831      0.9974911356     -2.6192644939 
  H44           0.8266860500      1.9810805846     -2.3351746787 
  H45          -0.6452204338      1.9590405032     -3.2862149609 
  H46           0.2956983831      0.4807235682     -3.1180375061 
  H47          -0.6338958224     -3.0960994663     -2.1336961250 
  H48           1.0010909333     -2.7954322736     -1.4975955872 
  H49           0.1471143127     -1.5672168216     -2.3999026117 
  H50          -2.6547103513     -3.9890263854      2.2697368671 
  H51          -4.0533599737     -3.3227340805      4.1282043766 
  H52          -4.5894866274     -0.9127706336      4.5205619691 
  H53          -3.6673682713      0.7856380966      2.9418867407 
  H54          -2.3693435242      0.1207781067      1.0437095078 
  H55          -3.9301779970     -3.7735712689      0.0638889065 
  H56          -4.3582126855     -6.0856324829     -0.5834224947 
  H57          -2.4681758195     -7.5866138852     -1.2130594295 
  H58          -0.1446074275     -6.7044831058     -1.1170646529 
  H59           0.2838583720     -4.4217374545     -0.3773591374 
   
 
  bond lengths (angstroms):
 
 P1      -Pd2     :   2.247139      P1      -C7      :   1.918807
 P1      -C10     :   1.934627      P1      -C14     :   1.861612
 C6      -C7      :   1.547760      C6      -H29     :   1.088176
 C6      -H30     :   1.087093      C6      -H31     :   1.097694
 C7      -C8      :   1.537948      C7      -C9      :   1.537470
 C8      -H32     :   1.097696      C8      -H33     :   1.097263
 C8      -H34     :   1.094812      C9      -H35     :   1.092531
 C9      -H36     :   1.096227      C9      -H37     :   1.095088
 C10     -C11     :   1.537490      C10     -C12     :   1.540067
 C10     -C13     :   1.539377      C11     -H38     :   1.092696
 C11     -H39     :   1.094190      C11     -H40     :   1.097144
 C12     -H41     :   1.088758      C12     -H42     :   1.092661
 C12     -H43     :   1.096701      C13     -H44     :   1.091559
 C13     -H45     :   1.097611      C13     -H46     :   1.091513
 C14     -C15     :   1.380445      C14     -C16     :   1.518237
 C15     -C17     :   1.491930      C15     -C23     :   1.491575
 C16     -H47     :   1.093400      C16     -H48     :   1.092221
 C16     -H49     :   1.093129      C17     -C18     :   1.410855
 C17     -C22     :   1.411819      C18     -C19     :   1.386352
 C18     -H50     :   1.083476      C19     -C20     :   1.394106
 C19     -H51     :   1.085029      C20     -C21     :   1.386045
 C20     -H52     :   1.085087      C21     -C22     :   1.392920
 C21     -H53     :   1.084626      C22     -H54     :   1.074249
 C23     -C24     :   1.405731      C23     -C28     :   1.402023
 C24     -C25     :   1.385023      C24     -H55     :   1.083578
 C25     -C26     :   1.391236      C25     -H56     :   1.084482
 C26     -C27     :   1.390553      C26     -H57     :   1.085593
 C27     -C28     :   1.388306      C27     -H58     :   1.084561
 C28     -H59     :   1.082069
 
  bond angles:
 
 C7      -P1      -Pd2     : 104.981666  C10     -P1      -Pd2     : 119.558397
 C10     -P1      -C7      : 108.876891  C14     -P1      -Pd2     : 108.990169
 C14     -P1      -C7      : 111.276959  C14     -P1      -C10     : 103.214923
 H29     -C6      -C7      : 113.873112  H30     -C6      -C7      : 112.884681
 H30     -C6      -H29     : 108.346631  H31     -C6      -C7      : 108.530704
 H31     -C6      -H29     : 106.348005  H31     -C6      -H30     : 106.395693
 C6      -C7      -P1      : 122.096924  C8      -C7      -P1      : 104.977424
 C8      -C7      -C6      : 106.038841  C9      -C7      -P1      : 105.302930
 C9      -C7      -C6      : 108.541172  C9      -C7      -C8      : 109.475157
 H32     -C8      -C7      : 111.269024  H33     -C8      -C7      : 108.908482
 H33     -C8      -H32     : 108.258370  H34     -C8      -C7      : 111.823624
 H34     -C8      -H32     : 108.255704  H34     -C8      -H33     : 108.216952
 H35     -C9      -C7      : 113.013154  H36     -C9      -C7      : 109.330550
 H36     -C9      -H35     : 107.845676  H37     -C9      -C7      : 110.755970
 H37     -C9      -H35     : 106.884121  H37     -C9      -H36     : 108.883557
 C11     -C10     -P1      : 106.613284  C12     -C10     -P1      : 111.465043
 C12     -C10     -C11     : 110.844630  C13     -C10     -P1      : 114.173388
 C13     -C10     -C11     : 108.009313  C13     -C10     -C12     : 105.737270
 H38     -C11     -C10     : 111.931595  H39     -C11     -C10     : 112.142574
 H39     -C11     -H38     : 107.389061  H40     -C11     -C10     : 109.321296
 H40     -C11     -H38     : 107.693558  H40     -C11     -H39     : 108.193473
 H41     -C12     -C10     : 113.889679  H42     -C12     -C10     : 111.959348
 H42     -C12     -H41     : 107.371628  H43     -C12     -C10     : 108.325361
 H43     -C12     -H41     : 107.308770  H43     -C12     -H42     : 107.724678
 H44     -C13     -C10     : 112.675463  H45     -C13     -C10     : 108.727192
 H45     -C13     -H44     : 106.366849  H46     -C13     -C10     : 112.979891
 H46     -C13     -H44     : 108.674698  H46     -C13     -H45     : 107.058212
 C15     -C14     -P1      : 126.623573  C16     -C14     -P1      : 113.499744
 C16     -C14     -C15     : 119.841333  C17     -C15     -C14     : 127.484014
 C23     -C15     -C14     : 117.912350  C23     -C15     -C17     : 114.585763
 H47     -C16     -C14     : 112.712931  H48     -C16     -C14     : 113.761883
 H48     -C16     -H47     : 109.053954  H49     -C16     -C14     : 109.387302
 H49     -C16     -H47     : 105.227739  H49     -C16     -H48     : 106.146856
 C18     -C17     -C15     : 119.717412  C22     -C17     -C15     : 124.912920
 C22     -C17     -C18     : 115.342042  C19     -C18     -C17     : 122.546490
[...]
    H57      Z    -0.00007   0.00000   0.00011  -0.00085  -0.09230   0.00137
    H58      X     0.00099  -0.00070   0.00151  -0.00549  -0.41912  -0.00325
    H58      Y    -0.00064   0.00043  -0.00091   0.00336   0.25877   0.00195
    H58      Z    -0.00035   0.00023  -0.00050   0.00183   0.13922   0.00108
    H59      X    -0.00456   0.00145  -0.00394   0.00412   0.27593   0.00844
    H59      Y    -0.00250   0.00080  -0.00219   0.00224   0.14724   0.00454
    H59      Z     0.00040  -0.00015   0.00050  -0.00040  -0.02971  -0.00079
  
  vibration #          157       158       159       160       161       162
                 --------- --------- --------- --------- --------- ---------
  frequencies      3190.92   3198.35   3200.64   3207.91   3209.00   3214.60
  intensities         1.33     17.49     15.82     21.01     19.47     13.49
  reduc. mass         0.25      0.30      0.28      0.27      0.27      0.21
  force const         1.52      1.80      1.70      1.64      1.66      1.29
    P1       X     0.00000  -0.00003   0.00000  -0.00000   0.00002  -0.00000
    P1       Y    -0.00000   0.00001   0.00001   0.00001   0.00001  -0.00003
    P1       Z    -0.00000   0.00002   0.00001   0.00001  -0.00000  -0.00002
    Pd2      X    -0.00000   0.00000   0.00000   0.00000  -0.00001  -0.00000
    Pd2      Y    -0.00000   0.00000  -0.00000  -0.00000   0.00002  -0.00000
    Pd2      Z     0.00000  -0.00000  -0.00000  -0.00000  -0.00001   0.00000
    C6       X    -0.00010  -0.00000  -0.00008   0.00005   0.00004  -0.00004
    C6       Y    -0.00026   0.00010  -0.00022   0.00016  -0.00002  -0.00001
    C6       Z     0.00005  -0.00009   0.00004  -0.00002   0.00004  -0.00000
    C7       X    -0.00000  -0.00002   0.00000   0.00000   0.00001  -0.00001
    C7       Y    -0.00001  -0.00001  -0.00002   0.00000  -0.00001   0.00002
    C7       Z     0.00001  -0.00002   0.00001  -0.00001   0.00002  -0.00000
    C8       X    -0.00004   0.00025  -0.00006  -0.00002  -0.00003  -0.00002
    C8       Y    -0.00012   0.00034  -0.00014   0.00008  -0.00013  -0.00000
    C8       Z    -0.00007   0.00015  -0.00006   0.00005  -0.00005  -0.00002
    C9       X     0.00001  -0.00004   0.00001  -0.00002   0.00002  -0.00002
    C9       Y    -0.00001   0.00005  -0.00002   0.00002   0.00001  -0.00001
    C9       Z     0.00000  -0.00004   0.00001   0.00001   0.00003   0.00001
    C10      X    -0.00000   0.00001  -0.00000   0.00000  -0.00001   0.00000
    C10      Y     0.00000   0.00000  -0.00001  -0.00001   0.00000   0.00001
    C10      Z     0.00000  -0.00001  -0.00001  -0.00001  -0.00001   0.00003
    C11      X    -0.00000  -0.00014  -0.00001  -0.00003  -0.00000  -0.00002
    C11      Y     0.00000  -0.00001  -0.00000  -0.00000   0.00002  -0.00002
    C11      Z    -0.00000   0.00006   0.00000   0.00001  -0.00000   0.00001
    C12      X     0.00001  -0.00004   0.00000  -0.00002  -0.00000   0.00001
    C12      Y    -0.00004   0.00006  -0.00010   0.00002   0.00010  -0.00001
    C12      Z    -0.00004   0.00010  -0.00004   0.00004  -0.00001   0.00003
    C13      X     0.00001  -0.00002  -0.00001  -0.00001   0.00003   0.00000
    C13      Y     0.00008   0.00005   0.00001   0.00000   0.00002  -0.00003
    C13      Z     0.00003   0.00001   0.00001  -0.00001  -0.00001   0.00002
    C14      X    -0.00005   0.00006  -0.00005   0.00004  -0.00003   0.00002
    C14      Y    -0.00007  -0.00001  -0.00020  -0.00003   0.00003   0.00019
    C14      Z    -0.00003  -0.00008  -0.00004   0.00001   0.00008   0.00006
    C15      X     0.00014  -0.00014   0.00003  -0.00033   0.00008   0.00008
    C15      Y     0.00001   0.00021   0.00002  -0.00002  -0.00010  -0.00007
    C15      Z    -0.00007  -0.00007  -0.00001   0.00015  -0.00001  -0.00007
    C16      X     0.00007  -0.00002  -0.00003  -0.00011   0.00003   0.00008
    C16      Y    -0.00145   0.00008  -0.00122   0.00082  -0.00009   0.00029
    C16      Z     0.00021   0.00001   0.00009  -0.00013  -0.00004   0.00007
    C17      X    -0.00005   0.00085   0.00001   0.00007  -0.00007  -0.00002
    C17      Y    -0.00003  -0.00109  -0.00006   0.00003   0.00014   0.00007
    C17      Z    -0.00004   0.00160  -0.00004  -0.00003  -0.00135  -0.00000
    C18      X     0.00047  -0.02873   0.00056   0.00070   0.01937  -0.00011
    C18      Y    -0.00055   0.03093  -0.00056  -0.00067  -0.02086   0.00007
    C18      Z     0.00001   0.00381  -0.00007  -0.00017  -0.00361   0.00004
    C19      X    -0.00026  -0.01224   0.00011   0.00082   0.01952  -0.00022
    C19      Y     0.00031   0.01518  -0.00014  -0.00099  -0.02405   0.00027
    C19      Z    -0.00051  -0.03274   0.00028   0.00171   0.04249  -0.00043
    C20      X     0.00024  -0.00485   0.00001  -0.00074  -0.01612   0.00018
    C20      Y    -0.00025   0.00478  -0.00002   0.00077   0.01681  -0.00019
    C20      Z    -0.00062   0.02086  -0.00012   0.00211   0.04481  -0.00047
    C21      X    -0.00071  -0.04411   0.00025  -0.00127  -0.02755   0.00028
    C21      Y     0.00056   0.03532  -0.00019   0.00103   0.02235  -0.00023
    C21      Z     0.00010   0.00427  -0.00001   0.00005   0.00116  -0.00003
    C22      X    -0.00003  -0.00479  -0.00007  -0.00023  -0.00295   0.00007
    C22      Y     0.00003   0.00164   0.00003   0.00006   0.00126  -0.00003
    C22      Z    -0.00008  -0.01100  -0.00012  -0.00046  -0.00681   0.00017
    C23      X    -0.00109   0.00003  -0.00041   0.00276  -0.00018  -0.00055
    C23      Y     0.00051   0.00001   0.00226   0.00026  -0.00004  -0.00169
    C23      Z     0.00035   0.00001   0.00047  -0.00064   0.00006  -0.00014
    C24      X     0.02350  -0.00021  -0.03035  -0.04390   0.00240   0.03024
    C24      Y    -0.01318   0.00006   0.01734   0.02872  -0.00153  -0.02077
    C24      Z    -0.00859   0.00009   0.01109   0.01685  -0.00093  -0.01176
    C25      X    -0.04315   0.00046   0.01842  -0.02199   0.00112   0.03752
    C25      Y    -0.02283   0.00021   0.00670  -0.01492   0.00075   0.01965
    C25      Z     0.00562  -0.00006  -0.00300   0.00217  -0.00012  -0.00490
    C26      X     0.00293  -0.00001   0.00185   0.00406  -0.00014   0.00272
    C26      Y     0.00809   0.00045   0.04881   0.01730  -0.00035   0.04636
    C26      Z     0.00088   0.00009   0.00904   0.00246  -0.00004   0.00836
    C27      X    -0.03391   0.00039   0.00950  -0.03466   0.00112  -0.03200
    C27      Y     0.01930  -0.00027  -0.01006   0.02224  -0.00074   0.01841
    C27      Z     0.01095  -0.00013  -0.00398   0.01170  -0.00039   0.01041
    C28      X     0.03758   0.00033   0.04466  -0.03084   0.00104  -0.01969
    C28      Y     0.01890   0.00016   0.02391  -0.01877   0.00066  -0.01206
    C28      Z    -0.00421  -0.00004  -0.00469   0.00287  -0.00009   0.00176
    H29      X    -0.00009   0.00000  -0.00008   0.00005   0.00003  -0.00000
    H29      Y     0.00050  -0.00062   0.00035  -0.00014   0.00021   0.00013
    H29      Z    -0.00118   0.00125  -0.00093   0.00046  -0.00043  -0.00012
    H30      X     0.00098  -0.00026   0.00093  -0.00072   0.00009  -0.00017
    H30      Y     0.00309  -0.00070   0.00278  -0.00209   0.00002  -0.00024
    H30      Z     0.00036  -0.00016   0.00031  -0.00023   0.00005   0.00000
    H31      X     0.00038   0.00034   0.00019   0.00003  -0.00071   0.00051
    H31      Y    -0.00007   0.00001  -0.00010   0.00007   0.00003   0.00004
    H31      Z     0.00018   0.00005   0.00011  -0.00004  -0.00018   0.00016
    H32      X    -0.00039   0.00013  -0.00032   0.00039   0.00001  -0.00007
    H32      Y     0.00052   0.00023   0.00041  -0.00052  -0.00001   0.00004
    H32      Z     0.00069  -0.00020   0.00053  -0.00071   0.00025   0.00007
    H33      X     0.00025  -0.00106   0.00030   0.00029  -0.00046   0.00039
    H33      Y    -0.00001   0.00009  -0.00003  -0.00003   0.00009  -0.00006
    H33      Z     0.00006  -0.00030   0.00005   0.00010  -0.00009   0.00012
    H34      X     0.00052  -0.00183   0.00067  -0.00030   0.00068  -0.00003
    H34      Y     0.00085  -0.00438   0.00115  -0.00033   0.00143   0.00009
    H34      Z     0.00000  -0.00125   0.00009   0.00006   0.00049  -0.00002
    H35      X     0.00004  -0.00014   0.00006  -0.00002   0.00005   0.00001
    H35      Y     0.00018  -0.00049   0.00023  -0.00005   0.00014   0.00010
    H35      Z    -0.00022   0.00064  -0.00030   0.00006  -0.00015  -0.00018
    H36      X    -0.00004   0.00057  -0.00007   0.00014  -0.00059   0.00034
    H36      Y    -0.00000  -0.00008  -0.00003  -0.00001   0.00003  -0.00000
    H36      Z    -0.00000   0.00022  -0.00002   0.00006  -0.00024   0.00015
    H37      X    -0.00010   0.00012  -0.00011   0.00016   0.00017  -0.00000
    H37      Y     0.00008  -0.00017   0.00007  -0.00017  -0.00008  -0.00001
    H37      Z     0.00011  -0.00024   0.00011  -0.00020  -0.00009  -0.00002
    H38      X     0.00004   0.00087   0.00012   0.00018  -0.00021   0.00018
    H38      Y     0.00001   0.00021   0.00003   0.00005  -0.00004   0.00002
    H38      Z     0.00001   0.00033   0.00004   0.00007  -0.00007   0.00008
    H39      X    -0.00004   0.00084  -0.00002   0.00015   0.00014   0.00010
    H39      Y     0.00001  -0.00017  -0.00000  -0.00004   0.00005  -0.00005
    H39      Z     0.00004  -0.00095   0.00003  -0.00018  -0.00017  -0.00010
    H40      X     0.00000  -0.00001  -0.00000  -0.00001   0.00009  -0.00011
    H40      Y    -0.00001   0.00003  -0.00002  -0.00003  -0.00032   0.00038
    H40      Z     0.00001  -0.00010  -0.00001  -0.00000   0.00030  -0.00033
    H41      X    -0.00022   0.00064  -0.00017   0.00029  -0.00001   0.00009
    H41      Y     0.00005  -0.00005   0.00000  -0.00008   0.00010  -0.00002
    H41      Z     0.00028  -0.00080   0.00022  -0.00038  -0.00007  -0.00007
    H42      X     0.00013  -0.00013   0.00020  -0.00011  -0.00014   0.00001
    H42      Y     0.00033  -0.00071   0.00099  -0.00018  -0.00071  -0.00020
    H42      Z     0.00014  -0.00035   0.00050  -0.00006  -0.00043  -0.00004
    H43      X    -0.00001   0.00002  -0.00007   0.00000   0.00014  -0.00011
    H43      Y     0.00003  -0.00002   0.00025   0.00003  -0.00059   0.00036
    H43      Z    -0.00002   0.00007  -0.00023  -0.00003   0.00055  -0.00031
    H44      X    -0.00016   0.00017   0.00008   0.00015  -0.00037   0.00006
    H44      Y    -0.00003   0.00007   0.00001   0.00004  -0.00009   0.00000
    H44      Z    -0.00004   0.00004   0.00003   0.00004  -0.00012   0.00003
    H45      X     0.00003   0.00007  -0.00002   0.00002   0.00007  -0.00010
    H45      Y    -0.00005  -0.00011   0.00005  -0.00004  -0.00022   0.00028
    H45      Z     0.00009   0.00011  -0.00004   0.00002   0.00026  -0.00030
    H46      X    -0.00002  -0.00000  -0.00002   0.00001   0.00003  -0.00001
    H46      Y    -0.00093  -0.00057  -0.00027   0.00007  -0.00004   0.00005
    H46      Z    -0.00039  -0.00028  -0.00009   0.00000  -0.00006   0.00007
    H47      X     0.00591  -0.00028   0.00547  -0.00347   0.00040  -0.00178
    H47      Y     0.01162  -0.00061   0.01076  -0.00636   0.00081  -0.00364
    H47      Z     0.00313  -0.00021   0.00278  -0.00174   0.00020  -0.00067
    H48      X    -0.00303   0.00051  -0.00255   0.00272  -0.00112   0.00094
    H48      Y    -0.00052  -0.00000  -0.00046   0.00038   0.00005   0.00006
    H48      Z     0.00067  -0.00021   0.00056  -0.00046   0.00039  -0.00021
    H49      X    -0.00427   0.00015  -0.00313   0.00251   0.00005   0.00019
    H49      Y     0.00711  -0.00029   0.00496  -0.00426   0.00004  -0.00010
    H49      Z    -0.00618   0.00026  -0.00418   0.00360   0.00018  -0.00007
    H50      X    -0.00542   0.32509  -0.00627  -0.00768  -0.21465   0.00103
    H50      Y     0.00599  -0.34843   0.00672   0.00798   0.23011  -0.00107
    H50      Z     0.00039  -0.03294   0.00062   0.00093   0.02367  -0.00029
    H51      X     0.00268   0.15199  -0.00131  -0.00848  -0.20699   0.00222
    H51      Y    -0.00331  -0.18741   0.00164   0.01041   0.25497  -0.00270
    H51      Z     0.00607   0.35773  -0.00312  -0.01937  -0.47593   0.00507
    H52      X    -0.00247   0.07213  -0.00044   0.00787   0.16841  -0.00178
    H52      Y     0.00257  -0.07372   0.00044  -0.00818  -0.17468   0.00186
    H52      Z     0.00717  -0.22397   0.00136  -0.02330  -0.49761   0.00528
    H53      X     0.00829   0.50539  -0.00280   0.01427   0.30856  -0.00326
    H53      Y    -0.00652  -0.39843   0.00219  -0.01130  -0.24364   0.00260
    H53      Z    -0.00083  -0.04776   0.00026  -0.00124  -0.02660   0.00031
    H54      X     0.00031   0.06392   0.00092   0.00294   0.03815  -0.00094
    H54      Y    -0.00012  -0.02715  -0.00046  -0.00129  -0.01654   0.00043
    H54      Z     0.00065   0.10568   0.00133   0.00460   0.06337  -0.00149
    H55      X    -0.27193   0.00201   0.34323   0.50370  -0.02735  -0.34453
    H55      Y     0.16743  -0.00109  -0.21129  -0.31539   0.01694   0.21705
    H55      Z     0.10255  -0.00082  -0.12935  -0.19092   0.01033   0.13082
    H56      X     0.49791  -0.00507  -0.19461   0.25509  -0.01279  -0.40604
    H56      Y     0.26747  -0.00267  -0.10043   0.14146  -0.00706  -0.21755
    H56      Z    -0.06386   0.00064   0.02578  -0.03210   0.00164   0.05238
    H57      X    -0.00933  -0.00027  -0.03318  -0.01623   0.00042  -0.03158
    H57      Y    -0.09467  -0.00520  -0.55524  -0.19370   0.00417  -0.50634
    H57      Z    -0.01615  -0.00095  -0.09962  -0.03364   0.00071  -0.09076
    H58      X     0.38620  -0.00458  -0.12709   0.38825  -0.01274   0.34323
    H58      Y    -0.23584   0.00287   0.08419  -0.24051   0.00794  -0.20965
    H58      Z    -0.12773   0.00151   0.04328  -0.12922   0.00426  -0.11355
    H59      X    -0.43441  -0.00349  -0.50797   0.35388  -0.01192   0.22107
    H59      Y    -0.23290  -0.00191  -0.27428   0.19413  -0.00659   0.12158
    H59      Z     0.04672   0.00030   0.05412  -0.03734   0.00130  -0.02307
  
  Number of imaginary frequencies:   0
   
  Writing vibrational animation data to L1_PL747.vib
  Writing IR vibrational spectrum data to L1_PL747_vib.spm
  rotational symmetry number:  1

  rotational temperatures (K):      0.011444      0.007694      0.005915
   
  The Quasi-Harmonic approximation will be applied to compute
  vibrational constributions to thermodynamic properties.
  Frequencies will be adjusted to a minimum value of  100.00 cm^-1.

  vibrational temperatures:
       mode:      1        2        3        4        5        6
  temp. (K):   143.88   143.88   143.88   143.88   143.88   143.88
   
       mode:      7        8        9       10       11       12
  temp. (K):   143.88   147.40   167.54   196.59   207.82   213.58
   
       mode:     13       14       15       16       17       18
  temp. (K):   252.91   280.32   287.18   309.86   320.07   343.90
   
       mode:     19       20       21       22       23       24
  temp. (K):   359.77   368.85   373.15   404.45   412.70   418.68
   
       mode:     25       26       27       28       29       30
  temp. (K):   428.78   441.43   457.78   468.11   484.98   508.93
   
       mode:     31       32       33       34       35       36
  temp. (K):   532.05   551.29   572.61   583.15   598.91   605.22
   
       mode:     37       38       39       40       41       42
  temp. (K):   619.15   653.86   665.11   689.14   720.60   734.87
   
       mode:     43       44       45       46       47       48
  temp. (K):   790.43   844.10   872.60   879.61   900.51   902.84
   
       mode:     49       50       51       52       53       54
  temp. (K):   954.65   986.73  1015.47  1042.37  1083.39  1102.74
   
       mode:     55       56       57       58       59       60
  temp. (K):  1150.98  1192.03  1196.15  1200.74  1252.98  1303.08
   
       mode:     61       62       63       64       65       66
  temp. (K):  1329.85  1348.70  1368.63  1369.73  1376.50  1384.50
   
       mode:     67       68       69       70       71       72
  temp. (K):  1388.49  1391.38  1406.33  1410.07  1425.76  1438.02
   
       mode:     73       74       75       76       77       78
  temp. (K):  1460.58  1465.01  1470.68  1494.75  1497.74  1509.20
   
       mode:     79       80       81       82       83       84
  temp. (K):  1511.15  1519.36  1525.48  1534.41  1565.87  1611.67
   
       mode:     85       86       87       88       89       90
  temp. (K):  1648.88  1705.00  1725.49  1730.08  1732.22  1747.60
   
       mode:     91       92       93       94       95       96
  temp. (K):  1753.16  1761.04  1768.52  1778.95  1792.47  1799.61
   
       mode:     97       98       99      100      101      102
  temp. (K):  1885.40  1921.85  1942.33  1981.00  1986.26  2037.46
   
       mode:    103      104      105      106      107      108
  temp. (K):  2041.64  2043.66  2050.92  2069.40  2085.95  2096.05
   
       mode:    109      110      111      112      113      114
  temp. (K):  2098.79  2142.36  2152.41  2157.04  2164.35  2165.47
   
       mode:    115      116      117      118      119      120
  temp. (K):  2168.53  2171.79  2178.19  2182.07  2189.26  2195.10
   
       mode:    121      122      123      124      125      126
  temp. (K):  2208.48  2212.97  2216.54  2216.93  2228.37  2233.18
   
       mode:    127      128      129      130      131      132
  temp. (K):  2306.21  2307.76  2338.31  2364.48  2400.12  4369.22
   
       mode:    133      134      135      136      137      138
  temp. (K):  4371.54  4372.61  4377.28  4379.14  4386.09  4423.72
   
       mode:    139      140      141      142      143      144
  temp. (K):  4474.16  4479.61  4480.80  4482.86  4485.39  4486.96
   
       mode:    145      146      147      148      149      150
  temp. (K):  4513.33  4517.33  4519.13  4537.91  4547.34  4547.59
   
       mode:    151      152      153      154      155      156
  temp. (K):  4547.98  4551.14  4562.74  4575.02  4580.11  4588.15
   
       mode:    157      158      159      160      161      162
  temp. (K):  4591.01  4601.71  4605.01  4615.46  4617.02  4625.08
   
   
  Thermodynamic properties calculated assuming an ideal gas

  In the table below, the units for temperature
  are kelvins, the units for U, H, and G are
  kcal/mol and the units for Cv and S are cal/(mol K)

  The zero point energy (ZPE):    303.803 kcal/mol
  is not included in U, H, or G in the table below
  
 
  =============================================================================
  Thermodynamic properties for P = 1.00E+00 atm, calculated at   1 temperatures


  T =   298.15 K, P = 1.00E+00 atm
   
                  U         Cv          S          H          G        ln(Q)
              =========  =========  =========  =========  =========  =========
  trans.          0.889      2.981     44.162      1.481    -11.686   19.72327
  rot.            0.889      2.981     35.477      0.889     -9.689   16.35273
  vib.           14.770     99.606     87.676     14.770    -11.370   19.19070
  elec.           0.000      0.000      0.000      0.000      0.000    0.00000
  ----------------------------------------------------------------------------
  total          16.548    105.568    167.315     17.140    -32.745   55.26669
   
   Total internal energy, Utot(SCFE + ZPE + U):   -1362.468046 hartrees
   Total enthalpy, Htot (Utot + nRT), with n=1:   -1362.467102 hartrees
    Total Gibbs free energy, Gtot (Htot - T*S):   -1362.546599 hartrees
   
  end of program freq
   
 Time(freq)  user:       0.345  user+sys:       0.345  wallclock:       0.350
  
  start of program post
  
  Writing input files for PBF
  end of program post
   
 Time(post)  user:       0.204  user+sys:       0.204  wallclock:       0.126

 Total cpu seconds     user:   47744.914   user+sys:   47744.914
  
 Total elapsed time:    28090 seconds

Job L1_PL747 completed on bp1-compute145.data.bp.acrc.priv at Sun Mar 23 01:08:52 2025
