Job L2_PL747 started on bp1-compute084.data.bp.acrc.priv at Mon Dec  1 22:26:04 2025
jobid: bp1-compute084-0-692e15f6

  +--------------------------------------------------------------------+
  |  Jaguar version 12.5, release 138                                  |
  |                                                                    |
  |  Copyright Schrodinger, Inc.                                       |
  |  All Rights Reserved.                                              |
  |                                                                    |
  |  The following have contributed to Jaguar (listed alphabetically): |
  |  Ty Balduf, Mike Beachy, Chandler Bennett, Art Bochevarov,         |
  |  Dale Braden, Yixiang Cao, Alan Chien, Chris Cortis,               |
  |  Rich Friesner, Jim Furness, Bill Goddard, Hod Greeley,            |
  |  Tom Hughes, Leif Jacobson, Jean-Marc Langlois, Daniel Levine,     |
  |  Rob Murphy, Dean Philipp, Tom Pollard, Murco Ringnalda,           |
  |  Daniel Mainz, Pablo Videla, Mark Watson, Haoyu Yu.                |
  |                                                                    |
  |  Use of this program should be acknowledged in publications as:    |
  |                                                                    |
  |  Jaguar, version 12.5, Schrodinger, Inc., New York, NY, 2024.      |
  |                                                                    |
  |  A. D. Bochevarov, E. Harder, T. F. Hughes, J. R. Greenwood,       |
  |  D. A. Braden, D. M. Philipp, D. Rinaldo, M. D. Halls,             |
  |  J. Zhang, R. A. Friesner, "Jaguar: A High-Performance Quantum     |
  |  Chemistry Software Program with Strengths in Life and Materials   |
  |  Sciences", Int. J. Quantum Chem., 2013, 113(18), 2110-2142.       |
  +--------------------------------------------------------------------+
  
  start of program pre
  
  Job name: L2_PL747
  Executables used: /software/local/apps/schrodinger2024-3/jaguar-v12.5/bin/Linux-x86_64
  Temporary files : /tmp/ar21627/L2_PL747#bp1-compute084-0-692e15f6
  Basis file : using default basis file from /software/local/apps/schrodinger2024-3
  Maestro file (input):  L2_PL747.mae
  Maestro file (output): L2_PL747.01.mae
  
 Contents of input file: &gen and (if present) &atomic sections only
 ----------------Contents start----------------
&gen
dftname=b3pw91-d3
basis=6-31G*
numd=5
ip11=2
iaccg=3
isolv=2
igeopt=1
solvent=benzene
ifreq=1
&
&atomic
atom basis
Pd2 lacv3p*
&
 -----------------Contents end-----------------
 
  PS calculation requested. Using PS version of 6-31g*
  basis set:               non_standard                    
  net molecular charge:    0
  multiplicity:            1
  
  Using up to  18 threads per process
  
  This run will use ECP on 1 atom
  number of basis functions....          835
  
 Input geometry:
                                   angstroms
  atom               x                 y                 z
  P1            0.2892019779      0.0572190836     -0.6143579710 
  Pd2           0.4486855134      0.3504081935      1.6495146867 
  C3            1.9124929853     -0.3774694352     -1.4575400192 
  C4           -0.8709236132     -1.4146909704     -0.7899358689 
  C5           -0.4773839023      1.3571885200     -1.6857730496 
  C6            2.9901095951      0.5686627824     -0.9026880867 
  C10           2.0104714015     -0.4305257403     -2.9874325222 
  C11          -1.5993894750     -1.6158997983      0.5490974835 
  C15          -1.8395120684     -1.5378427363     -1.9712238010 
  C16          -0.8508201908      2.6657914341     -1.3293641628 
  C20          -0.7343718283      1.1246282576     -3.0501791995 
  C27           2.1874672054     -1.7854707817     -0.8976102142 
  H32           2.7564244873      1.5896837917     -1.2329679135 
  H33           2.9294688990      0.5781034994      0.1930985082 
  H40           1.2707951346     -1.1190947813     -3.4096147076 
  H41           1.7900742297      0.5641503004     -3.3985559360 
  C28           0.1528985305     -2.5564187714     -0.9308111567 
  H43          -0.8834530584     -1.5284677597      1.3771118737 
  H44          -2.3353434308     -0.8108243780      0.6868419255 
  H51          -2.5980195064     -0.7450704357     -1.9352202886 
  H52          -1.2992182480     -1.4323406606     -2.9205799544 
  P22           0.1154002187      0.2450401176      3.9117876933 
  C23          -1.7426067555     -0.0064852217      4.0921054044 
  C24          -2.4816515899      0.3928603161      5.3730734730 
  C25          -2.0775599300     -1.4515366794      3.6896091090 
  H26          -2.1509892562     -0.2280703251      6.2162858595 
  H27          -1.7107158261     -2.1378424358      4.4663083533 
  C29          -2.2554801574      0.9150510697      2.9699058957 
  H29          -2.2634799621      1.4370896074      5.6308482483 
  H30          -1.5426760881     -1.7126466180      2.7671234425 
  C31           0.5748510849      1.8290612799      4.8189165477 
  C32           1.7866367854      2.4432014797      4.0964557177 
  C33           0.8276435237      1.8112519437      6.3316795158 
  H34           2.6418493548      1.7645643394      4.2194729458 
  H35           1.6717617704      1.1427640616      6.5495091938 
  C36          -0.6500179163      2.7173141202      4.5320318640 
  H37           1.5791192037      2.4851040559      3.0192064416 
  H38          -0.0388783156      1.4133657441      6.8723087601 
  C39           0.8417972332     -1.1167336574      4.9323585601 
  C40           1.1128508422     -0.9492938619      6.3041117521 
  C41           1.2344455238     -2.3931400021      4.4878225529 
  H42          -2.0908428662     -2.5885426205      0.5723247234 
  H45          -2.3296694521     -2.5108750431     -1.9387604510 
  H46           3.0133255525     -0.7387124814     -3.2830750164 
  H47           3.9832542767      0.2679161966     -1.2363273119 
  H48          -3.5549432961      0.2696051101      5.2283217287 
  H49          -3.1525254129     -1.5697800664      3.5533457174 
  H50           1.0525525435      2.8186615272      6.6818821199 
  H53           2.0146106673      3.4341021703      4.4891944736 
  H54          -0.5152766685      3.6880364247      5.0091513497 
  H55          -0.7565460612      2.8536555892      3.4558521587 
  H56          -1.5464153274      2.2398419005      4.9277488851 
  H57          -3.3445778546      0.8815643838      2.9408396298 
  H58          -1.9288886141      1.9373033769      3.1607937804 
  H59          -1.8564974816      0.5794682355      2.0126718670 
  H60          -0.3727342608     -3.5045207352     -1.0444458127 
  H61           0.7764057010     -2.3799279948     -1.8072755394 
  H62           0.7807069130     -2.5940616025     -0.0405641954 
  H63           3.1203715087     -2.1664697436     -1.3130970994 
  H64           2.2674147247     -1.7359655673      0.1883260767 
  H65           1.3695164725     -2.4519651243     -1.1711826721 
  H66           0.8993893405     -0.0064107401      6.7855736987 
  H67          -0.4780998488      0.1737494354     -3.4935234652 
  H68           2.1521815090     -1.2167706820      6.4947630455 
  H69           0.6258548365     -1.7495289379      6.8613897021 
  H70          -0.2797787771      1.9227786190     -3.6370362164 
  H71          -1.7833764482      1.3391154441     -3.2543471555 
  C68          -2.6049661013      5.2541977797     -4.2402246395 
  C69          -2.4010830065      5.7097463509     -2.9273036850 
  C70          -1.8243746892      4.8587592928     -1.9703037928 
  C71          -1.4515494668      3.5522236634     -2.3262248551 
  C72          -1.6553915001      3.0966145021     -3.6390776715 
  C73          -2.2321408788      3.9476621503     -4.5961457019 
  H74          -3.0580383385      5.9227482389     -4.9920606531 
  H75          -2.6940365165      6.7362498629     -2.6477980844 
  H76          -1.6642149006      5.2166517556     -0.9388940405 
  H77          -1.3624859976      2.0702440129     -3.9185828155 
  H78          -2.3923006675      3.5897696875     -5.6275554542 
  C79          -0.4088308134      4.4406538681      2.5312695585 
  C80          -1.5220914823      4.7578956863      1.7357429644 
  C81          -1.6674037670      4.1743764239      0.4664873320 
  C82          -0.6994553830      3.2736153435     -0.0072417063 
  C83           0.4137949397      2.9563319790      0.7881945172 
  C84           0.5591175707      3.5398927877      2.0575405203 
  H85          -0.2946709166      4.8990769041      3.5284191953 
  H86          -2.2824927547      5.4655946860      2.1080420788 
  H87          -2.5419752824      4.4236108413     -0.1584535609 
  H88           1.1741210109      2.2487245932      0.4159725497 
  H89           1.4336890861      3.2906583703      2.6824814132 
  C90           1.0574078757     -4.1311980048      0.5893874758 
  C91           2.2876296921     -4.0353103897      1.2603674292 
  C92           2.3458341342     -3.4638912734      2.5420509652 
  C93           1.1738167599     -2.9883597723      3.1527545478 
  C94          -0.0564009123     -3.0842067026      2.4818658500 
  C95          -0.1146094985     -3.6556665037      1.2000910585 
  H96           1.0116814383     -4.5801149525     -0.4175257414 
  H97           3.2083564637     -4.4089490485      0.7804601833 
  H98           3.3122914874     -3.3885722997      3.0691481920 
  H99          -0.9770330844     -2.7106243356      2.9616843143 
  H100         -1.0810668518     -3.7309854774      0.6729938316 
  C101          2.9036706520     -5.1957030282      7.2463206871 
  C102          2.7466857299     -5.5480246039      5.8957358169 
  C103          2.1978967101     -4.6266295266      4.9888278980 
  C104          1.8060926124     -3.3529128737      5.4325048493 
  C105          1.9630384609     -3.0005256950      6.7830251479 
  C106          2.5118665544     -3.9219863753      7.6899976384 
  H107          3.3348089962     -5.9195672705      7.9588035619 
  H108          3.0545459252     -6.5487533464      5.5472839781 
  H109          2.0745794875     -4.9034284238      3.9278286129 
  H110          1.6552269931     -1.9999293963      7.1314678080 
  H111          2.6351837769     -3.6451874781      8.7509969235 
   
  principal moments of inertia:
        amu*angstrom^2:              4934.30153             11641.34921             14451.58677
                g*cm^2:          8.19359944E-37          1.93309128E-36          2.39974214E-36
   
  rotational constants:
               cm^(-1):      0.00341642      0.00144808      0.00116649
                   GHz:      0.10242159      0.04341241      0.03497049
   
  Molecular weight:     782.34 amu
   
  Stoichiometry: PdC46P2H62
  Molecular Point Group: C1      
  Point Group used: C1
  
 
Number of optimization coordinates:   364
Number of independent coordinates:    364
Number of non-redundant coordinates:  327
Number of frozen coordinates:           0
Number of harmonic constraints:         0
 
Number of geometric degrees of freedom:   327
Maximum geometric degrees of freedom:     327
 " " " " " excluding dummy atoms:         327
 
 
  bond lengths (angstroms):
 
 P1      -Pd2     :   2.288343      P1      -C3      :   1.880155
 P1      -C4      :   1.882349      P1      -C5      :   1.850812
 Pd2     -P22     :   2.289118      C3      -C6      :   1.537623
 C3      -C10     :   1.533945      C3      -C27     :   1.540000
 C4      -C11     :   1.537582      C4      -C15     :   1.532570
 C4      -C28     :   1.540000      C5      -C16     :   1.406742
 C5      -C20     :   1.407740      C6      -H32     :   1.098261
 C6      -H33     :   1.097504      C6      -H47     :   1.090000
 C10     -H40     :   1.095211      C10     -H41     :   1.098625
 C10     -H46     :   1.090000      C11     -H43     :   1.098097
 C11     -H44     :   1.099431      C11     -H42     :   1.090000
 C15     -H51     :   1.097779      C15     -H52     :   1.097418
 C15     -H45     :   1.090000      C16     -C71     :   1.463000
 C16     -C82     :   1.463000      C20     -H67     :   1.080000
 C20     -H70     :   1.090000      C20     -H71     :   1.090000
 C27     -H63     :   1.090000      C27     -H64     :   1.090000
 C27     -H65     :   1.090000      C28     -H60     :   1.090000
 C28     -H61     :   1.090000      C28     -H62     :   1.090000
 P22     -C23     :   1.883605      P22     -C31     :   1.882313
 P22     -C39     :   1.850310      C23     -C24     :   1.531843
 C23     -C25     :   1.537001      C23     -C29     :   1.540000
 C24     -H26     :   1.098135      C24     -H29     :   1.097480
 C24     -H48     :   1.090000      C25     -H27     :   1.099478
 C25     -H30     :   1.097843      C25     -H49     :   1.090000
 C29     -H57     :   1.090000      C29     -H58     :   1.090000
 C29     -H59     :   1.090000      C31     -C32     :   1.538682
 C31     -C33     :   1.533843      C31     -C36     :   1.540000
 C32     -H34     :   1.098667      C32     -H37     :   1.097855
 C32     -H53     :   1.090000      C33     -H35     :   1.098572
 C33     -H38     :   1.096108      C33     -H50     :   1.090000
 C36     -H54     :   1.090000      C36     -H55     :   1.090000
 C36     -H56     :   1.090000      C39     -C40     :   1.408266
 C39     -C41     :   1.407479      C40     -H66     :   1.080000
 C40     -H68     :   1.090000      C40     -H69     :   1.090000
 C41     -C93     :   1.463000      C41     -C104    :   1.463000
 C68     -C69     :   1.404583      C68     -C73     :   1.404533
 C68     -H74     :   1.103400      C69     -C70     :   1.404500
 C69     -H75     :   1.103474      C70     -C71     :   1.404533
 C70     -H76     :   1.103424      C71     -C72     :   1.404533
 C72     -C73     :   1.404600      C72     -H77     :   1.103337
 C73     -H78     :   1.103424      C79     -C80     :   1.404583
 C79     -C84     :   1.404533      C79     -H85     :   1.103400
 C80     -C81     :   1.404500      C80     -H86     :   1.103474
 C81     -C82     :   1.404533      C81     -H87     :   1.103424
 C82     -C83     :   1.404533      C83     -C84     :   1.404600
 C83     -H88     :   1.103337      C84     -H89     :   1.103424
 C90     -C91     :   1.404583      C90     -C95     :   1.404533
 C90     -H96     :   1.103400      C91     -C92     :   1.404500
 C91     -H97     :   1.103474      C92     -C93     :   1.404533
 C92     -H98     :   1.103424      C93     -C94     :   1.404533
 C94     -C95     :   1.404600      C94     -H99     :   1.103337
 C95     -H100    :   1.103424      C101    -C102    :   1.404583
 C101    -C106    :   1.404533      C101    -H107    :   1.103400
 C102    -C103    :   1.404500      C102    -H108    :   1.103474
 C103    -C104    :   1.404533      C103    -H109    :   1.103424
 C104    -C105    :   1.404533      C105    -C106    :   1.404600
 C105    -H110    :   1.103337      C106    -H111    :   1.103424
 
  bond angles:
 
 C3      -P1      -Pd2     : 114.400839  C4      -P1      -Pd2     : 103.616280
 C4      -P1      -C3      : 108.029114  C5      -P1      -Pd2     : 120.768771
 C5      -P1      -C3      : 105.092644  C5      -P1      -C4      : 103.884094
 P22     -Pd2     -P1      : 164.083023  C6      -C3      -P1      : 107.517455
 C10     -C3      -P1      : 120.692031  C10     -C3      -C6      : 109.658631
 C27     -C3      -P1      : 101.682302  C27     -C3      -C6      : 107.832851
 C27     -C3      -C10     : 108.638853  C11     -C4      -P1      : 108.245607
 C15     -C4      -P1      : 121.617475  C15     -C4      -C11     : 111.180968
 C28     -C4      -P1      : 100.283486  C28     -C4      -C11     : 107.314792
 C28     -C4      -C15     : 106.862939  C16     -C5      -P1      : 128.072850
 C20     -C5      -P1      : 121.375705  C20     -C5      -C16     : 110.534655
 H32     -C6      -C3      : 108.324976  H33     -C6      -C3      : 109.078028
 H33     -C6      -H32     : 106.290382  H47     -C6      -C3      : 110.997615
 H47     -C6      -H32     : 110.997615  H47     -C6      -H33     : 110.997615
 H40     -C10     -C3      : 111.288827  H41     -C10     -C3      : 109.214061
 H41     -C10     -H40     : 106.826911  H46     -C10     -C3      : 109.819701
 H46     -C10     -H40     : 109.819701  H46     -C10     -H41     : 109.819701
 H43     -C11     -C4      : 109.716407  H44     -C11     -C4      : 109.294631
 H44     -C11     -H43     : 106.478516  H42     -C11     -C4      : 110.422584
 H42     -C11     -H43     : 110.422584  H42     -C11     -H44     : 110.422584
 H51     -C15     -C4      : 110.693654  H52     -C15     -C4      : 110.359851
 H52     -C15     -H51     : 107.404838  H45     -C15     -C4      : 109.449724
 H45     -C15     -H51     : 109.449724  H45     -C15     -H52     : 109.449724
 C71     -C16     -C5      : 120.000000  C82     -C16     -C5      : 126.013479
 C82     -C16     -C71     : 113.986521  H67     -C20     -C5      : 120.000000
 H70     -C20     -C5      : 108.948856  H70     -C20     -H67     : 108.948856
 H71     -C20     -C5      : 108.948856  H71     -C20     -H67     : 108.948856
 H71     -C20     -H70     :  99.000000  H63     -C27     -C3      : 109.500000
 H64     -C27     -C3      : 109.500000  H64     -C27     -H63     : 109.442426
 H65     -C27     -C3      : 109.500000  H65     -C27     -H63     : 109.442426
 H65     -C27     -H64     : 109.442426  H60     -C28     -C4      : 109.500000
 H61     -C28     -C4      : 109.500000  H61     -C28     -H60     : 109.442426
 H62     -C28     -C4      : 109.500000  H62     -C28     -H60     : 109.442426
 H62     -C28     -H61     : 109.442426  C23     -P22     -Pd2     : 104.144657
 C31     -P22     -Pd2     : 113.703090  C31     -P22     -C23     : 107.879106
 C39     -P22     -Pd2     : 121.454276  C39     -P22     -C23     : 103.660446
 C39     -P22     -C31     : 104.933839  C24     -C23     -P22     : 121.408637
 C25     -C23     -P22     : 108.387463  C25     -C23     -C24     : 111.035381
 C29     -C23     -P22     : 100.302394  C29     -C23     -C24     : 107.018740
 C29     -C23     -C25     : 107.409483  H26     -C24     -C23     : 110.451995
 H29     -C24     -C23     : 110.398664  H29     -C24     -H26     : 107.325078
 H48     -C24     -C23     : 109.543930  H48     -C24     -H26     : 109.543930
 H48     -C24     -H29     : 109.543930  H27     -C25     -C23     : 109.218016
 H30     -C25     -C23     : 109.723222  H30     -C25     -H27     : 106.413473
 H49     -C25     -C23     : 110.465802  H49     -C25     -H27     : 110.465802
 H49     -C25     -H30     : 110.465802  H57     -C29     -C23     : 109.500000
 H58     -C29     -C23     : 109.500000  H58     -C29     -H57     : 109.442426
 H59     -C29     -C23     : 109.500000  H59     -C29     -H57     : 109.442426
 H59     -C29     -H58     : 109.442426  C32     -C31     -P22     : 107.567916
 C33     -C31     -P22     : 120.381598  C33     -C31     -C32     : 109.750084
 C36     -C31     -P22     : 101.622718  C36     -C31     -C32     : 107.981353
 C36     -C31     -C33     : 108.754292  H34     -C32     -C31     : 108.295598
 H37     -C32     -C31     : 109.092280  H37     -C32     -H34     : 106.294787
 H53     -C32     -C31     : 111.001005  H53     -C32     -H34     : 111.001005
 H53     -C32     -H37     : 111.001005  H35     -C33     -C31     : 109.223916
 H38     -C33     -C31     : 111.123104  H38     -C33     -H35     : 106.783140
 H50     -C33     -C31     : 109.885820  H50     -C33     -H35     : 109.885820
 H50     -C33     -H38     : 109.885820  H54     -C36     -C31     : 109.500000
 H55     -C36     -C31     : 109.500000  H55     -C36     -H54     : 109.442426
 H56     -C36     -C31     : 109.500000  H56     -C36     -H54     : 109.442426
 H56     -C36     -H55     : 109.442426  C40     -C39     -P22     : 121.689989
 C41     -C39     -P22     : 127.066818  C41     -C39     -C40     : 111.209557
 H66     -C40     -C39     : 120.000000  H68     -C40     -C39     : 108.948856
 H68     -C40     -H66     : 108.948856  H69     -C40     -C39     : 108.948856
 H69     -C40     -H66     : 108.948856  H69     -C40     -H68     :  99.000000
 C93     -C41     -C39     : 130.212136  C104    -C41     -C39     : 120.000000
 C104    -C41     -C93     : 109.787864  C73     -C68     -C69     : 120.002746
 H74     -C68     -C69     : 120.000393  H74     -C68     -C73     : 119.996860
 C70     -C69     -C68     : 120.000393  H75     -C69     -C68     : 119.995826
 H75     -C69     -C70     : 120.003781  C71     -C70     -C69     : 119.996860
 H76     -C70     -C69     : 119.999284  H76     -C70     -C71     : 120.003855
 C70     -C71     -C16     : 119.996860  C72     -C71     -C16     : 119.996860
 C72     -C71     -C70     : 120.006279  C73     -C72     -C71     : 119.996860
 H77     -C72     -C71     : 120.001259  H77     -C72     -C73     : 120.001881
 C72     -C73     -C68     : 119.996860  H78     -C73     -C68     : 120.003855
 H78     -C73     -C72     : 119.999284  C84     -C79     -C80     : 120.002746
 H85     -C79     -C80     : 120.000393  H85     -C79     -C84     : 119.996860
 C81     -C80     -C79     : 120.000393  H86     -C80     -C79     : 119.995826
 H86     -C80     -C81     : 120.003781  C82     -C81     -C80     : 119.996860
 H87     -C81     -C80     : 119.999284  H87     -C81     -C82     : 120.003855
 C81     -C82     -C16     : 119.996860  C83     -C82     -C16     : 119.996860
 C83     -C82     -C81     : 120.006279  C84     -C83     -C82     : 119.996860
 H88     -C83     -C82     : 120.001259  H88     -C83     -C84     : 120.001881
 C83     -C84     -C79     : 119.996860  H89     -C84     -C79     : 120.003855
 H89     -C84     -C83     : 119.999284  C95     -C90     -C91     : 120.002746
 H96     -C90     -C91     : 120.000393  H96     -C90     -C95     : 119.996860
 C92     -C91     -C90     : 120.000393  H97     -C91     -C90     : 119.995826
 H97     -C91     -C92     : 120.003781  C93     -C92     -C91     : 119.996860
 H98     -C92     -C91     : 119.999284  H98     -C92     -C93     : 120.003855
 C92     -C93     -C41     : 119.996860  C94     -C93     -C41     : 119.996860
 C94     -C93     -C92     : 120.006279  C95     -C94     -C93     : 119.996860
 H99     -C94     -C93     : 120.001259  H99     -C94     -C95     : 120.001881
 C94     -C95     -C90     : 119.996860  H100    -C95     -C90     : 120.003855
 H100    -C95     -C94     : 119.999284  C106    -C101    -C102    : 120.002746
 H107    -C101    -C102    : 120.000393  H107    -C101    -C106    : 119.996860
 C103    -C102    -C101    : 120.000393  H108    -C102    -C101    : 119.995826
 H108    -C102    -C103    : 120.003781  C104    -C103    -C102    : 119.996860
 H109    -C103    -C102    : 119.999284  H109    -C103    -C104    : 120.003855
 C103    -C104    -C41     : 119.996860  C105    -C104    -C41     : 119.996860
 C105    -C104    -C103    : 120.006279  C106    -C105    -C104    : 119.996860
 H110    -C105    -C104    : 120.001259  H110    -C105    -C106    : 120.001881
 C105    -C106    -C101    : 119.996860  H111    -C106    -C101    : 120.003855
 H111    -C106    -C105    : 119.999284
 
  torsional angles:
 
 P1      -Pd2     -P22     -C23     : -31.743045
 P1      -Pd2     -P22     -C31     :-148.899354
 P1      -Pd2     -P22     -C39     :  84.339182
 P1      -C3      -C6      -H32     : -66.676491
 P1      -C3      -C6      -H33     :  48.614161
 P1      -C3      -C6      -H47     : 171.220661
 P1      -C3      -C10     -H40     : -55.814895
 P1      -C3      -C10     -H41     :  61.883018
 P1      -C3      -C10     -H46     :-177.634239
 P1      -C3      -C27     -H63     : 180.000000
 P1      -C3      -C27     -H64     : -60.000000
 P1      -C3      -C27     -H65     :  60.000000
 P1      -C4      -C11     -H43     : -44.282964
 P1      -C4      -C11     -H44     :  72.122225
 P1      -C4      -C11     -H42     :-166.219072
 P1      -C4      -C15     -H51     : -65.751924
 P1      -C4      -C15     -H52     :  53.014342
 P1      -C4      -C15     -H45     : 173.525742
 P1      -C4      -C28     -H60     : 180.000000
 P1      -C4      -C28     -H61     : -60.000000
 P1      -C4      -C28     -H62     :  60.000000
 P1      -C5      -C16     -C71     :-179.831085
 P1      -C5      -C16     -C82     :   0.168915
 P1      -C5      -C20     -H67     :  -0.352741
 P1      -C5      -C20     -H70     :-126.841429
 P1      -C5      -C20     -H71     : 126.135946
 Pd2     -P1      -C3      -C6      : -45.470594
 Pd2     -P1      -C3      -C10     :-172.168127
 Pd2     -P1      -C3      -C27     :  67.682508
 Pd2     -P1      -C4      -C11     :  16.399332
 Pd2     -P1      -C4      -C15     : 146.918752
 Pd2     -P1      -C4      -C28     : -95.829417
 Pd2     -P1      -C5      -C16     :   9.672272
 Pd2     -P1      -C5      -C20     :-171.965032
 Pd2     -P22     -C23     -C24     :-156.216306
 Pd2     -P22     -C23     -C25     :  73.530145
 Pd2     -P22     -C23     -C29     : -38.858477
 Pd2     -P22     -C31     -C32     : -34.616873
 Pd2     -P22     -C31     -C33     :-161.235451
 Pd2     -P22     -C31     -C36     :  78.693300
 Pd2     -P22     -C39     -C40     : 154.476552
 Pd2     -P22     -C39     -C41     : -23.222904
 C3      -P1      -Pd2     -P22     :-130.135930
 C3      -P1      -C4      -C11     : 138.125042
 C3      -P1      -C4      -C15     : -91.355538
 C3      -P1      -C4      -C28     :  25.896293
 C3      -P1      -C5      -C16     :-121.516058
 C3      -P1      -C5      -C20     :  56.846639
 C4      -P1      -Pd2     -P22     : -12.776679
 C4      -P1      -C3      -C6      :-160.274123
 C4      -P1      -C3      -C10     :  73.028343
 C4      -P1      -C3      -C27     : -47.121021
 C4      -P1      -C5      -C16     : 125.101576
 C4      -P1      -C5      -C20     : -56.535727
 C5      -P1      -Pd2     -P22     : 102.790034
 C5      -P1      -C3      -C6      :  89.291070
 C5      -P1      -C3      -C10     : -37.406463
 C5      -P1      -C3      -C27     :-157.555828
 C5      -P1      -C4      -C11     :-110.619962
 C5      -P1      -C4      -C15     :  19.899459
 C5      -P1      -C4      -C28     : 137.151289
 C5      -C16     -C71     -C70     : 180.000000
 C5      -C16     -C71     -C72     :   0.000000
 C5      -C16     -C82     -C81     :-144.600000
 C5      -C16     -C82     -C83     :  35.400000
 C6      -C3      -C10     -H40     : 178.471334
 C6      -C3      -C10     -H41     : -63.830753
 C6      -C3      -C10     -H46     :  56.651990
 C6      -C3      -C27     -H63     : -67.083272
 C6      -C3      -C27     -H64     :  52.916728
 C6      -C3      -C27     -H65     : 172.916728
 C10     -C3      -C6      -H32     :  66.255498
 C10     -C3      -C6      -H33     :-178.453849
 C10     -C3      -C6      -H47     : -55.847350
 C10     -C3      -C27     -H63     :  51.697626
 C10     -C3      -C27     -H64     : 171.697626
 C10     -C3      -C27     -H65     : -68.302374
 C11     -C4      -C15     -H51     :  63.508917
 C11     -C4      -C15     -H52     :-177.724817
 C11     -C4      -C15     -H45     : -57.213417
 C11     -C4      -C28     -H60     :  67.053711
 C11     -C4      -C28     -H61     :-172.946289
 C11     -C4      -C28     -H62     : -52.946289
 C15     -C4      -C11     -H43     : 179.684522
 C15     -C4      -C11     -H44     : -63.910290
 C15     -C4      -C11     -H42     :  57.748413
 C15     -C4      -C28     -H60     : -52.284654
 C15     -C4      -C28     -H61     :  67.715346
 C15     -C4      -C28     -H62     :-172.284654
 C16     -C5      -C20     -H67     : 178.270929
 C16     -C5      -C20     -H70     :  51.782241
 C16     -C5      -C20     -H71     : -55.240384
 C16     -C71     -C70     -C69     : 180.000000
 C16     -C71     -C70     -H76     :   0.000000
 C16     -C71     -C72     -C73     : 180.000000
 C16     -C71     -C72     -H77     :  -0.000001
 C16     -C82     -C81     -C80     : 180.000000
 C16     -C82     -C81     -H87     :   0.000000
 C16     -C82     -C83     -C84     : 180.000000
 C16     -C82     -C83     -H88     :   0.000000
 C20     -C5      -C16     -C71     :   1.661611
 C20     -C5      -C16     -C82     :-178.338389
 C27     -C3      -C6      -H32     :-175.617034
 C27     -C3      -C6      -H33     : -60.326381
 C27     -C3      -C6      -H47     :  62.280118
 C27     -C3      -C10     -H40     :  60.845924
 C27     -C3      -C10     -H41     : 178.543837
 C27     -C3      -C10     -H46     : -60.973420
 C28     -C4      -C11     -H43     :  63.154473
 C28     -C4      -C11     -H44     : 179.559661
 C28     -C4      -C11     -H42     : -58.781636
 C28     -C4      -C15     -H51     :-179.684456
 C28     -C4      -C15     -H52     : -60.918190
 C28     -C4      -C15     -H45     :  59.593209
 P22     -C23     -C24     -H26     : -65.619165
 P22     -C23     -C24     -H29     :  52.920873
 P22     -C23     -C24     -H48     : 173.633939
 P22     -C23     -C25     -H27     :  71.658654
 P22     -C23     -C25     -H30     : -44.628170
 P22     -C23     -C25     -H49     :-166.651244
 P22     -C23     -C29     -H57     : 180.000000
 P22     -C23     -C29     -H58     : -60.000000
 P22     -C23     -C29     -H59     :  60.000000
 P22     -C31     -C32     -H34     : -65.831415
 P22     -C31     -C32     -H37     :  49.456160
 P22     -C31     -C32     -H53     : 172.078792
 P22     -C31     -C33     -H35     :  60.953417
 P22     -C31     -C33     -H38     : -56.598032
 P22     -C31     -C33     -H50     :-178.435523
 P22     -C31     -C36     -H54     : 180.000000
 P22     -C31     -C36     -H55     : -60.000000
 P22     -C31     -C36     -H56     :  60.000000
 P22     -C39     -C40     -H66     :  -0.198773
 P22     -C39     -C40     -H68     :-126.687461
 P22     -C39     -C40     -H69     : 126.289914
 P22     -C39     -C41     -C93     :  -0.553207
 P22     -C39     -C41     -C104    : 179.446793
 C23     -P22     -C31     -C32     :-149.581277
 C23     -P22     -C31     -C33     :  83.800145
 C23     -P22     -C31     -C36     : -36.271104
 C23     -P22     -C39     -C40     : -89.197690
 C23     -P22     -C39     -C41     :  93.102855
 C24     -C23     -P22     -C31     : -35.091846
 C24     -C23     -P22     -C39     :  75.828265
 C24     -C23     -C25     -H27     : -64.084952
 C24     -C23     -C25     -H30     : 179.628225
 C24     -C23     -C25     -H49     :  57.605150
 C24     -C23     -C29     -H57     : -52.441277
 C24     -C23     -C29     -H58     :  67.558723
 C24     -C23     -C29     -H59     :-172.441277
 C25     -C23     -P22     -C31     :-165.345394
 C25     -C23     -P22     -C39     : -54.425284
 C25     -C23     -C24     -H26     :  63.490776
 C25     -C23     -C24     -H29     :-177.969185
 C25     -C23     -C24     -H48     : -57.256119
 C25     -C23     -C29     -H57     :  66.858705
 C25     -C23     -C29     -H58     :-173.141295
 C25     -C23     -C29     -H59     : -53.141295
 H26     -C24     -C23     -C29     :-179.575788
 H27     -C25     -C23     -C29     : 179.221131
 C29     -C23     -P22     -C31     :  82.265984
 C29     -C23     -P22     -C39     :-166.813905
 C29     -C23     -C24     -H29     : -61.035750
 C29     -C23     -C24     -H48     :  59.677316
 C29     -C23     -C25     -H30     :  62.934307
 C29     -C23     -C25     -H49     : -59.088767
 C31     -P22     -C39     -C40     :  23.869713
 C31     -P22     -C39     -C41     :-153.829742
 C32     -C31     -P22     -C39     : 100.367246
 C32     -C31     -C33     -H35     : -64.655047
 C32     -C31     -C33     -H38     : 177.793504
 C32     -C31     -C33     -H50     :  55.956013
 C32     -C31     -C36     -H54     : -66.999731
 C32     -C31     -C36     -H55     :  53.000269
 C32     -C31     -C36     -H56     : 173.000269
 C33     -C31     -P22     -C39     : -26.251332
 C33     -C31     -C32     -H34     :  66.803819
 C33     -C31     -C32     -H37     :-177.908606
 C33     -C31     -C32     -H53     : -55.285974
 C33     -C31     -C36     -H54     :  52.038381
 C33     -C31     -C36     -H55     : 172.038381
 C33     -C31     -C36     -H56     : -67.961619
 H34     -C32     -C31     -C36     :-174.792782
 H35     -C33     -C31     -C36     : 177.420919
 C36     -C31     -P22     -C39     :-146.322581
 C36     -C31     -C32     -H37     : -59.505207
 C36     -C31     -C32     -H53     :  63.117425
 C36     -C31     -C33     -H38     :  59.869470
 C36     -C31     -C33     -H50     : -61.968021
 C39     -C41     -C93     -C92     : 122.399999
 C39     -C41     -C93     -C94     : -57.600001
 C39     -C41     -C104    -C103    : 180.000000
 C39     -C41     -C104    -C105    :   0.000000
 C40     -C39     -C41     -C93     :-178.453530
 C40     -C39     -C41     -C104    :   1.546470
 C41     -C39     -C40     -H66     : 177.832310
 C41     -C39     -C40     -H68     :  51.343623
 C41     -C39     -C40     -H69     : -55.679002
 C41     -C93     -C92     -C91     : 180.000000
 C41     -C93     -C92     -H98     :  -0.000001
 C41     -C93     -C94     -C95     : 180.000000
 C41     -C93     -C94     -H99     :   0.000000
 C41     -C104    -C103    -C102    : 180.000000
 C41     -C104    -C103    -H109    :   0.000000
 C41     -C104    -C105    -C106    : 179.999999
 C41     -C104    -C105    -H110    :   0.000000
 C68     -C69     -C70     -C71     :   0.000000
 C68     -C69     -C70     -H76     : 180.000000
 C68     -C73     -C72     -C71     :   0.000000
 C68     -C73     -C72     -H77     : 180.000000
 C69     -C68     -C73     -C72     :   0.000000
 C69     -C68     -C73     -H78     : 180.000000
 C69     -C70     -C71     -C72     :   0.000000
 C70     -C69     -C68     -C73     :   0.000000
 C70     -C69     -C68     -H74     :-179.999999
 C70     -C71     -C16     -C82     :  -0.000001
 C70     -C71     -C72     -C73     :   0.000000
 C70     -C71     -C72     -H77     :-179.999999
 C71     -C16     -C82     -C81     :  35.400000
 C71     -C16     -C82     -C83     :-144.600000
 C71     -C70     -C69     -H75     : 180.000000
 C71     -C72     -C73     -H78     : 180.000000
 C72     -C71     -C16     -C82     : 180.000000
 C72     -C71     -C70     -H76     : 180.000000
 C72     -C73     -C68     -H74     : 180.000000
 C73     -C68     -C69     -H75     : 180.000000
 H74     -C68     -C69     -H75     :   0.000000
 H74     -C68     -C73     -H78     :  -0.000001
 H75     -C69     -C70     -H76     :  -0.000001
 H77     -C72     -C73     -H78     :   0.000000
 C79     -C80     -C81     -C82     :   0.000000
 C79     -C80     -C81     -H87     : 180.000000
 C79     -C84     -C83     -C82     :   0.000001
 C79     -C84     -C83     -H88     : 180.000000
 C80     -C79     -C84     -C83     :   0.000000
 C80     -C79     -C84     -H89     : 180.000000
 C80     -C81     -C82     -C83     :   0.000000
 C81     -C80     -C79     -C84     :   0.000000
 C81     -C80     -C79     -H85     : 180.000000
 C81     -C82     -C83     -C84     :   0.000000
 C81     -C82     -C83     -H88     : 180.000000
 C82     -C81     -C80     -H86     : 180.000000
 C82     -C83     -C84     -H89     : 180.000000
 C83     -C82     -C81     -H87     : 180.000000
 C83     -C84     -C79     -H85     :-179.999999
 C84     -C79     -C80     -H86     : 180.000000
 H85     -C79     -C80     -H86     :   0.000000
 H85     -C79     -C84     -H89     :   0.000000
 H86     -C80     -C81     -H87     :   0.000000
 H88     -C83     -C84     -H89     :   0.000000
 C90     -C91     -C92     -C93     :  -0.000001
 C90     -C91     -C92     -H98     : 180.000000
 C90     -C95     -C94     -C93     :  -0.000001
 C90     -C95     -C94     -H99     : 180.000000
 C91     -C90     -C95     -C94     :   0.000000
 C91     -C90     -C95     -H100    : 180.000000
 C91     -C92     -C93     -C94     :   0.000000
 C92     -C91     -C90     -C95     :   0.000000
 C92     -C91     -C90     -H96     : 180.000000
 C92     -C93     -C41     -C104    : -57.600001
 C92     -C93     -C94     -C95     :   0.000000
 C92     -C93     -C94     -H99     : 180.000000
 C93     -C41     -C104    -C103    :  -0.000001
 C93     -C41     -C104    -C105    : 180.000000
 C93     -C92     -C91     -H97     : 180.000000
 C93     -C94     -C95     -H100    : 180.000000
 C94     -C93     -C41     -C104    : 122.399999
 C94     -C93     -C92     -H98     : 180.000000
 C94     -C95     -C90     -H96     : 180.000000
 C95     -C90     -C91     -H97     : 180.000000
 H96     -C90     -C91     -H97     :   0.000000
 H96     -C90     -C95     -H100    :  -0.000001
 H97     -C91     -C92     -H98     :  -0.000001
 H99     -C94     -C95     -H100    :   0.000000
 C101    -C102    -C103    -C104    :   0.000000
 C101    -C102    -C103    -H109    :-179.999999
 C101    -C106    -C105    -C104    :   0.000000
 C101    -C106    -C105    -H110    : 180.000000
 C102    -C101    -C106    -C105    :   0.000000
 C102    -C101    -C106    -H111    :-179.999999
 C102    -C103    -C104    -C105    :   0.000000
 C103    -C102    -C101    -C106    :   0.000000
 C103    -C102    -C101    -H107    :-179.999999
 C103    -C104    -C105    -C106    :   0.000000
 C103    -C104    -C105    -H110    : 180.000000
 C104    -C103    -C102    -H108    : 180.000000
 C104    -C105    -C106    -H111    : 180.000000
 C105    -C104    -C103    -H109    : 179.999999
 C105    -C106    -C101    -H107    : 180.000000
 C106    -C101    -C102    -H108    : 179.999999
 H107    -C101    -C102    -H108    :   0.000000
 H107    -C101    -C106    -H111    :   0.000000
 H108    -C102    -C103    -H109    :   0.000000
 H110    -C105    -C106    -H111    :   0.000000
 
  nuclear repulsion energy.......          8111.132000419 hartrees
  
  Detected an organometallic with only one TM atom. 
  
  
 
  Will use High-Quality Initial guess for organometallics
       including d-d repulsion (iguess=30)
 
 Non-default options chosen:
   SCF calculation type: DFT(b3pw91-d3)              
   DFT=Becke_3_Parameter/HF+Slater+Becke88+PW91+PW-GGAIIC (B3PW91-D3)
   Geometry will be optimized in redundant internal coordinates
   Solvation energy will be computed using PBF
     -solute cavity energy will not be included
     -surface area terms will not be included
   Vibrational frequencies and related properties will be computed
      from analytic second derivatives
   IR intensities will be computed
   Thermochemical properties will be computed
   Maximum number of geometry steps: 100
   Scaling standard convergence criteria by a factor of   5.00
   Solvent: benzene                                                         
   Internal dielectric constant:    1.000
   Continuum dielectric constant:   2.283
   Solvent probe molecule radius:   2.600
  
 Non-default print settings:
     11=  2
  
 Temporary integer options set:
     21= -1  73=  2
  
  atom       vdw   vdw2    cov     mass  grid  daf  charge   basis
  P1        2.147  2.074  1.060   30.974    Y    Y      Y    ps_6-31g*
  Pd2       1.450  1.450  1.280  105.903    Y    Y      Y    lacv3p*
  C3        1.949  1.900  0.770   12.000    Y    Y      Y    ps_6-31g*
  C4        1.949  1.900  0.770   12.000    Y    Y      Y    ps_6-31g*
  C5        1.949  1.900  0.770   12.000    Y    Y      Y    ps_6-31g*
  C6        1.949  1.900  0.770   12.000    Y    Y      Y    ps_6-31g*
  C10       1.949  1.900  0.770   12.000    Y    Y      Y    ps_6-31g*
  C11       1.949  1.900  0.770   12.000    Y    Y      Y    ps_6-31g*
  C15       1.949  1.900  0.770   12.000    Y    Y      Y    ps_6-31g*
  C16       1.949  1.900  0.770   12.000    Y    Y      Y    ps_6-31g*
  C20       1.949  1.900  0.770   12.000    Y    Y      Y    ps_6-31g*
  C27       1.949  1.900  0.770   12.000    Y    Y      Y    ps_6-31g*
  H32       1.597  1.150  0.320    1.008    Y    Y      Y    ps_6-31g*
  H33       1.597  1.150  0.320    1.008    Y    Y      Y    ps_6-31g*
  H40       1.597  1.150  0.320    1.008    Y    Y      Y    ps_6-31g*
  H41       1.597  1.150  0.320    1.008    Y    Y      Y    ps_6-31g*
  C28       1.949  1.900  0.770   12.000    Y    Y      Y    ps_6-31g*
  H43       1.597  1.150  0.320    1.008    Y    Y      Y    ps_6-31g*
  H44       1.597  1.150  0.320    1.008    Y    Y      Y    ps_6-31g*
  H51       1.597  1.150  0.320    1.008    Y    Y      Y    ps_6-31g*
  H52       1.597  1.150  0.320    1.008    Y    Y      Y    ps_6-31g*
  P22       2.147  2.074  1.060   30.974    Y    Y      Y    ps_6-31g*
  C23       1.949  1.900  0.770   12.000    Y    Y      Y    ps_6-31g*
  C24       1.949  1.900  0.770   12.000    Y    Y      Y    ps_6-31g*
  C25       1.949  1.900  0.770   12.000    Y    Y      Y    ps_6-31g*
  H26       1.597  1.150  0.320    1.008    Y    Y      Y    ps_6-31g*
  H27       1.597  1.150  0.320    1.008    Y    Y      Y    ps_6-31g*
  C29       1.949  1.900  0.770   12.000    Y    Y      Y    ps_6-31g*
  H29       1.597  1.150  0.320    1.008    Y    Y      Y    ps_6-31g*
  H30       1.597  1.150  0.320    1.008    Y    Y      Y    ps_6-31g*
  C31       1.949  1.900  0.770   12.000    Y    Y      Y    ps_6-31g*
  C32       1.949  1.900  0.770   12.000    Y    Y      Y    ps_6-31g*
  C33       1.949  1.900  0.770   12.000    Y    Y      Y    ps_6-31g*
  H34       1.597  1.150  0.320    1.008    Y    Y      Y    ps_6-31g*
  H35       1.597  1.150  0.320    1.008    Y    Y      Y    ps_6-31g*
  C36       1.949  1.900  0.770   12.000    Y    Y      Y    ps_6-31g*
  H37       1.597  1.150  0.320    1.008    Y    Y      Y    ps_6-31g*
  H38       1.597  1.150  0.320    1.008    Y    Y      Y    ps_6-31g*
  C39       1.949  1.900  0.770   12.000    Y    Y      Y    ps_6-31g*
  C40       1.949  1.900  0.770   12.000    Y    Y      Y    ps_6-31g*
  C41       1.949  1.900  0.770   12.000    Y    Y      Y    ps_6-31g*
  H42       1.597  1.150  0.320    1.008    Y    Y      Y    ps_6-31g*
  H45       1.597  1.150  0.320    1.008    Y    Y      Y    ps_6-31g*
  H46       1.597  1.150  0.320    1.008    Y    Y      Y    ps_6-31g*
  H47       1.597  1.150  0.320    1.008    Y    Y      Y    ps_6-31g*
  H48       1.597  1.150  0.320    1.008    Y    Y      Y    ps_6-31g*
  H49       1.597  1.150  0.320    1.008    Y    Y      Y    ps_6-31g*
  H50       1.597  1.150  0.320    1.008    Y    Y      Y    ps_6-31g*
  H53       1.597  1.150  0.320    1.008    Y    Y      Y    ps_6-31g*
  H54       1.597  1.150  0.320    1.008    Y    Y      Y    ps_6-31g*
  H55       1.597  1.150  0.320    1.008    Y    Y      Y    ps_6-31g*
  H56       1.597  1.150  0.320    1.008    Y    Y      Y    ps_6-31g*
  H57       1.597  1.150  0.320    1.008    Y    Y      Y    ps_6-31g*
  H58       1.597  1.150  0.320    1.008    Y    Y      Y    ps_6-31g*
  H59       1.597  1.150  0.320    1.008    Y    Y      Y    ps_6-31g*
  H60       1.597  1.150  0.320    1.008    Y    Y      Y    ps_6-31g*
  H61       1.597  1.150  0.320    1.008    Y    Y      Y    ps_6-31g*
  H62       1.597  1.150  0.320    1.008    Y    Y      Y    ps_6-31g*
  H63       1.597  1.150  0.320    1.008    Y    Y      Y    ps_6-31g*
  H64       1.597  1.150  0.320    1.008    Y    Y      Y    ps_6-31g*
  H65       1.597  1.150  0.320    1.008    Y    Y      Y    ps_6-31g*
  H66       1.597  1.150  0.320    1.008    Y    Y      Y    ps_6-31g*
  H67       1.597  1.150  0.320    1.008    Y    Y      Y    ps_6-31g*
  H68       1.597  1.150  0.320    1.008    Y    Y      Y    ps_6-31g*
  H69       1.597  1.150  0.320    1.008    Y    Y      Y    ps_6-31g*
  H70       1.597  1.150  0.320    1.008    Y    Y      Y    ps_6-31g*
  H71       1.597  1.150  0.320    1.008    Y    Y      Y    ps_6-31g*
  C68       1.949  1.900  0.770   12.000    Y    Y      Y    ps_6-31g*
  C69       1.949  1.900  0.770   12.000    Y    Y      Y    ps_6-31g*
  C70       1.949  1.900  0.770   12.000    Y    Y      Y    ps_6-31g*
  C71       1.949  1.900  0.770   12.000    Y    Y      Y    ps_6-31g*
  C72       1.949  1.900  0.770   12.000    Y    Y      Y    ps_6-31g*
  C73       1.949  1.900  0.770   12.000    Y    Y      Y    ps_6-31g*
  H74       1.597  1.150  0.320    1.008    Y    Y      Y    ps_6-31g*
  H75       1.597  1.150  0.320    1.008    Y    Y      Y    ps_6-31g*
  H76       1.597  1.150  0.320    1.008    Y    Y      Y    ps_6-31g*
  H77       1.597  1.150  0.320    1.008    Y    Y      Y    ps_6-31g*
  H78       1.597  1.150  0.320    1.008    Y    Y      Y    ps_6-31g*
  C79       1.949  1.900  0.770   12.000    Y    Y      Y    ps_6-31g*
  C80       1.949  1.900  0.770   12.000    Y    Y      Y    ps_6-31g*
  C81       1.949  1.900  0.770   12.000    Y    Y      Y    ps_6-31g*
  C82       1.949  1.900  0.770   12.000    Y    Y      Y    ps_6-31g*
  C83       1.949  1.900  0.770   12.000    Y    Y      Y    ps_6-31g*
  C84       1.949  1.900  0.770   12.000    Y    Y      Y    ps_6-31g*
  H85       1.597  1.150  0.320    1.008    Y    Y      Y    ps_6-31g*
  H86       1.597  1.150  0.320    1.008    Y    Y      Y    ps_6-31g*
  H87       1.597  1.150  0.320    1.008    Y    Y      Y    ps_6-31g*
  H88       1.597  1.150  0.320    1.008    Y    Y      Y    ps_6-31g*
  H89       1.597  1.150  0.320    1.008    Y    Y      Y    ps_6-31g*
  C90       1.949  1.900  0.770   12.000    Y    Y      Y    ps_6-31g*
  C91       1.949  1.900  0.770   12.000    Y    Y      Y    ps_6-31g*
  C92       1.949  1.900  0.770   12.000    Y    Y      Y    ps_6-31g*
  C93       1.949  1.900  0.770   12.000    Y    Y      Y    ps_6-31g*
  C94       1.949  1.900  0.770   12.000    Y    Y      Y    ps_6-31g*
  C95       1.949  1.900  0.770   12.000    Y    Y      Y    ps_6-31g*
  H96       1.597  1.150  0.320    1.008    Y    Y      Y    ps_6-31g*
  H97       1.597  1.150  0.320    1.008    Y    Y      Y    ps_6-31g*
  H98       1.597  1.150  0.320    1.008    Y    Y      Y    ps_6-31g*
  H99       1.597  1.150  0.320    1.008    Y    Y      Y    ps_6-31g*
  H100      1.597  1.150  0.320    1.008    Y    Y      Y    ps_6-31g*
  C101      1.949  1.900  0.770   12.000    Y    Y      Y    ps_6-31g*
  C102      1.949  1.900  0.770   12.000    Y    Y      Y    ps_6-31g*
  C103      1.949  1.900  0.770   12.000    Y    Y      Y    ps_6-31g*
  C104      1.949  1.900  0.770   12.000    Y    Y      Y    ps_6-31g*
  C105      1.949  1.900  0.770   12.000    Y    Y      Y    ps_6-31g*
  C106      1.949  1.900  0.770   12.000    Y    Y      Y    ps_6-31g*
  H107      1.597  1.150  0.320    1.008    Y    Y      Y    ps_6-31g*
  H108      1.597  1.150  0.320    1.008    Y    Y      Y    ps_6-31g*
  H109      1.597  1.150  0.320    1.008    Y    Y      Y    ps_6-31g*
  H110      1.597  1.150  0.320    1.008    Y    Y      Y    ps_6-31g*
  H111      1.597  1.150  0.320    1.008    Y    Y      Y    ps_6-31g*
 
  atom      formal  2spin      esp    mulk    frag
  P1           0       0        Y    0.000       0
  Pd2          0       0        Y    0.000       0
  P22          0       0        Y    0.000       0
  
  end of program pre
   
 Time(pre)  user:       4.859  user+sys:       4.859  wallclock:       1.011
  
  start of program onee
  
  smallest eigenvalue of S:    4.109E-04
  number of canonical orbitals.....          831
  end of program onee
   
 Time(onee)  user:      11.680  user+sys:      11.680  wallclock:       1.900
  
  start of program hfig
  
  initial wavefunction generated automatically from atomic wavefunctions
  Only one possible d-orb occupation 
  Skip d-d repulsion considerations 
 
  Irreducible     Total no   No of occupied orbitals 
  representation  orbitals   Shell_1  Shell_2    ...
  No Symm          831        193
  ------------------------
  Orbital occupation/shell    1.000
 
  end of program hfig
   
 Time(hfig)  user:       3.885  user+sys:       3.885  wallclock:       1.395
  
  start of program probe
  
  end of program probe
   
 Time(probe)  user:       2.142  user+sys:       2.142  wallclock:       0.659
  
  start of program grid
  
   grid     grid set  grid #  grid sym
  ------    --------  ------  --------
  coarse        0        0        1
  medium        2        1        1
  fine          0        0        1
  ultrafine     4        2        1
  charge       -1        3        1
  gradient      4        2        1
  density       0        0        1
  DFT-fine    -11        4        1
  DFT-med.    -10        5        1
  DFT-grad    -12        6        1
  DFT-der2     -8        7        1
  DFT-cphf     -9        8        1
  LMP2-enrg     4        2        1
  LMP2-grad     2        1        1
  DFT-cphf2   -15        9        1
  PBF-dens      0        0        1
  plotting      0        0        1
  Rel-grad    -17        0        1
  
  number of gridpoints: 
     atom           P1         Pd2          C3          C4          C5          C6         C10
  grid # 1         600         348          88          88          91          80          81
  grid # 2         421         313         362         363         379         242         236
  grid # 3           8         215           6           6          11           6           6
  grid # 4        8714        8714        8714        8714        8714        8714        8714
  grid # 5        1192        1192        1192        1192        1192        1192        1192
  grid # 6        9132        9132        5922        5922        5922        5922        5922
  grid # 7       23034       32968       13950       13950       13950       13950       13950
  grid # 8         722        1150         748         748         748         748         748
  grid # 9         366        2198         394         394         394         394         394
   
  number of gridpoints: 
     atom          C11         C15         C16         C20         C27         H32         H33
  grid # 1          80          80          99          79          79         105         101
  grid # 2         242         239         363         226         238         439         436
  grid # 3           6           6          33           6           6         225         163
  grid # 4        8714        8714        8714        8714        8714        8714        8714
  grid # 5        1192        1192        1192        1192        1192        1192        1192
  grid # 6        5922        5922        5922        5922        5922        5922        5922
  grid # 7       13950       13950       13950       13950       13950       15206       15206
  grid # 8         748         748         748         748         748         786         786
  grid # 9         394         394         394         394         394         420         420
   
  number of gridpoints: 
     atom          H40         H41         C28         H43         H44         H51         H52
  grid # 1         102         105          78          92         101         105         102
  grid # 2         428         431         226         389         424         444         427
  grid # 3         170         180           6           8         145         232         149
  grid # 4        8714        8714        8714        8714        8714        8714        8714
  grid # 5        1192        1192        1192        1192        1192        1192        1192
  grid # 6        5922        5922        5922        5922        5922        5922        5922
  grid # 7       15206       15206       13950       15206       15206       15206       15206
  grid # 8         786         786         748         786         786         786         786
  grid # 9         420         420         394         420         420         420         420
   
  number of gridpoints: 
     atom          P22         C23         C24         C25         H26         H27         C29
  grid # 1         607          88          80          81         105         103          79
  grid # 2         428         360         238         241         442         432         239
  grid # 3           8           6           6           6         229         178           6
  grid # 4        8714        8714        8714        8714        8714        8714        8714
  grid # 5        1192        1192        1192        1192        1192        1192        1192
  grid # 6        9132        5922        5922        5922        5922        5922        5922
  grid # 7       23034       13950       13950       13950       15206       15206       13950
  grid # 8         722         748         748         748         786         786         748
  grid # 9         366         394         394         394         420         420         394
   
  number of gridpoints: 
     atom          H29         H30         C31         C32         C33         H34         H35
  grid # 1          94          83          88          80          81         107         101
  grid # 2         398         350         362         241         236         451         412
  grid # 3         147          12           6           6           6         269         154
  grid # 4        8714        8714        8714        8714        8714        8714        8714
  grid # 5        1192        1192        1192        1192        1192        1192        1192
  grid # 6        5922        5922        5922        5922        5922        5922        5922
  grid # 7       15206       15206       13950       13950       13950       15206       15206
  grid # 8         786         786         748         748         748         786         786
  grid # 9         420         420         394         394         394         420         420
   
  number of gridpoints: 
     atom          C36         H37         H38         C39         C40         C41         H42
  grid # 1          80          82         101          91          78          98         100
  grid # 2         238         353         427         380         226         365         410
  grid # 3           6          35         166          12           6          16         139
  grid # 4        8714        8714        8714        8714        8714        8714        8714
  grid # 5        1192        1192        1192        1192        1192        1192        1192
  grid # 6        5922        5922        5922        5922        5922        5922        5922
  grid # 7       13950       15206       15206       13950       13950       13950       15206
  grid # 8         748         786         786         748         748         748         786
  grid # 9         394         420         420         394         394         394         420
   
  number of gridpoints: 
     atom          H45         H46         H47         H48         H49         H50         H53
  grid # 1         109         109         109         109         108         109         108
  grid # 2         446         447         450         446         445         447         440
  grid # 3         272         274         292         273         258         275         234
  grid # 4        8714        8714        8714        8714        8714        8714        8714
  grid # 5        1192        1192        1192        1192        1192        1192        1192
  grid # 6        5922        5922        5922        5922        5922        5922        5922
  grid # 7       15206       15206       15206       15206       15206       15206       15206
  grid # 8         786         786         786         786         786         786         786
  grid # 9         420         420         420         420         420         420         420
   
  number of gridpoints: 
     atom          H54         H55         H56         H57         H58         H59         H60
  grid # 1         105          90          87         108          96          95         101
  grid # 2         429         384         377         446         398         416         413
  grid # 3         173          19          62         250          73          49         121
  grid # 4        8714        8714        8714        8714        8714        8714        8714
  grid # 5        1192        1192        1192        1192        1192        1192        1192
  grid # 6        5922        5922        5922        5922        5922        5922        5922
  grid # 7       15206       15206       15206       15206       15206       15206       15206
  grid # 8         786         786         786         786         786         786         786
  grid # 9         420         420         420         420         420         420         420
   
  number of gridpoints: 
     atom          H61         H62         H63         H64         H65         H66         H67
  grid # 1          84          84         108          96          75          92          97
  grid # 2         364         360         442         415         319         387         409
  grid # 3          72           8         223          72          22          77          96
  grid # 4        8714        8714        8714        8714        8714        8714        8714
  grid # 5        1192        1192        1192        1192        1192        1192        1192
  grid # 6        5922        5922        5922        5922        5922        5922        5922
  grid # 7       15206       15206       15206       15206       15206       15206       15206
  grid # 8         786         786         786         786         786         786         786
  grid # 9         420         420         420         420         420         420         420
   
  number of gridpoints: 
     atom          H68         H69         H70         H71         C68         C69         C70
  grid # 1          95          94          94          95          97          97          96
  grid # 2         389         396         384         382         326         325         321
  grid # 3         179         179         157         137          54          52          39
  grid # 4        8714        8714        8714        8714        8714        8714        8714
  grid # 5        1192        1192        1192        1192        1192        1192        1192
  grid # 6        5922        5922        5922        5922        5922        5922        5922
  grid # 7       15206       15206       15206       15206       13950       13950       13950
  grid # 8         786         786         786         786         748         748         748
  grid # 9         420         420         420         420         394         394         394
   
  number of gridpoints: 
     atom          C71         C72         C73         H74         H75         H76         H77
  grid # 1         100          95          97         118         118         103          80
  grid # 2         362         315         326         467         467         414         341
  grid # 3          43          32          54         422         417         165          71
  grid # 4        8714        8714        8714        8714        8714        8714        8714
  grid # 5        1192        1192        1192        1192        1192        1192        1192
  grid # 6        5922        5922        5922        5922        5922        5922        5922
  grid # 7       13950       13950       13950       15206       15206       15206       15206
  grid # 8         748         748         748         786         786         786         786
  grid # 9         394         394         394         420         420         420         420
   
  number of gridpoints: 
     atom          H78         C79         C80         C81         C82         C83         C84
  grid # 1         118          93          95          93          99          96          94
  grid # 2         467         308         322         309         359         322         316
  grid # 3         420          30          20          15          24          30          30
  grid # 4        8714        8714        8714        8714        8714        8714        8714
  grid # 5        1192        1192        1192        1192        1192        1192        1192
  grid # 6        5922        5922        5922        5922        5922        5922        5922
  grid # 7       15206       13950       13950       13950       13950       13950       13950
  grid # 8         786         748         748         748         748         748         748
  grid # 9         420         394         394         394         394         394         394
   
  number of gridpoints: 
     atom          H85         H86         H87         H88         H89         C90         C91
  grid # 1         106         117         105         101          82          93          94
  grid # 2         442         465         423         420         358         301         316
  grid # 3         238         396         223          73         113          23          12
  grid # 4        8714        8714        8714        8714        8714        8714        8714
  grid # 5        1192        1192        1192        1192        1192        1192        1192
  grid # 6        5922        5922        5922        5922        5922        5922        5922
  grid # 7       15206       15206       15206       15206       15206       13950       13950
  grid # 8         786         786         786         786         786         748         748
  grid # 9         420         420         420         420         420         394         394
   
  number of gridpoints: 
     atom          C92         C93         C94         C95         H96         H97         H98
  grid # 1          94          99          93          93         105         116         110
  grid # 2         309         354         316         307         439         460         454
  grid # 3           6           6          18          24         258         341         289
  grid # 4        8714        8714        8714        8714        8714        8714        8714
  grid # 5        1192        1192        1192        1192        1192        1192        1192
  grid # 6        5922        5922        5922        5922        5922        5922        5922
  grid # 7       13950       13950       13950       13950       15206       15206       15206
  grid # 8         748         748         748         748         786         786         786
  grid # 9         394         394         394         394         420         420         420
   
  number of gridpoints: 
     atom          H99        H100        C101        C102        C103        C104        C105
  grid # 1          87         100          97          97          96          99          95
  grid # 2         375         407         326         325         323         361         317
  grid # 3          87         162          54          52          39          37          32
  grid # 4        8714        8714        8714        8714        8714        8714        8714
  grid # 5        1192        1192        1192        1192        1192        1192        1192
  grid # 6        5922        5922        5922        5922        5922        5922        5922
  grid # 7       15206       15206       13950       13950       13950       13950       13950
  grid # 8         786         786         748         748         748         748         748
  grid # 9         420         420         394         394         394         394         394
   
  number of gridpoints: 
     atom         C106        H107        H108        H109        H110        H111       total
  grid # 1          97         118         118         107          80         118       11954
  grid # 2         326         467         467         437         342         467       41099
  grid # 3          54         422         421         187          68         420       12832
  grid # 4        8714        8714        8714        8714        8714        8714      967254
  grid # 5        1192        1192        1192        1192        1192        1192      132312
  grid # 6        5922        5922        5922        5922        5922        5922      666972
  grid # 7       13950       15206       15206       15206       15206       15206     1663508
  grid # 8         748         786         786         786         786         786       85734
  grid # 9         394         420         420         420         420         420       47094
   
  end of program grid
   
 Time(grid)  user:     924.668  user+sys:     924.668  wallclock:      62.002
  
  start of program rwr
  
  end of program rwr
   
 Time(rwr)  user:      77.099  user+sys:      77.099  wallclock:      21.909
  
  start of program scf
  
 number of electrons..........        386
 number of alpha electrons....        193
 number of beta electrons.....        193
 number of orbitals, total....        831
 number of doubly-occ'd orbs..        193
 number of open shell orbs....          0
 number of occupied orbitals..        193
 number of virtual orbitals...        638
 number of hamiltonians.......          1
 number of shells.............          1
 SCF type: DFT=Becke_3_Parameter/HF+Slater+Becke88+PW91+PW-GGAIIC (B3PW91-D3)
 Energy computed using pseudospectral method.
 Convergence Criterion:
    Energy (econv):       1.00E-05
    RMS density (dconv):  5.00E-06
  
       i  u  d  i  g                   
       t  p  i  c  r                                 RMS    maximum
       e  d  i  u  i                       energy  density   DIIS  
       r  t  s  t  d       total energy    change  change    error 
  
etot    1  N  N  5  M   -2592.37607640043           1.8E-03  2.0E-01
etot    2  Y  Y  6  M   -2596.19990834628  3.8E+00  3.2E-03  1.5E-01
etot    3  Y  Y  6  M   -2597.46664859759  1.3E+00  1.3E-03  2.6E-02
etot    4  N  Y  2  U   -2597.85602156329  3.9E-01  7.5E-04  5.6E-02
etot    5  Y  Y  6  M   -2597.94965424055  9.4E-02  5.9E-04  3.8E-02
etot    6  N  Y  2  U   -2597.95867722502  9.0E-03  7.3E-04  2.2E-02
etot    7  Y  Y  6  M   -2597.98177271570  2.3E-02  1.1E-04  3.6E-03
etot    8  N  Y  2  U   -2597.99513241018  1.3E-02  3.7E-05  1.3E-03
etot    9  N  Y  2  U   -2597.99545861844  3.3E-04  2.3E-05  5.8E-04
etot   10  N  Y  2  U   -2597.99550639355  4.8E-05  5.2E-06  1.0E-04
etot   11  N  Y  2  U   -2597.99551214844  5.8E-06  2.7E-06  1.1E-04
etot   12  N  N  2  U   -2597.99551366111  1.5E-06  0.0E+00  0.0E+00
 
  Computing the dispersion energy correction and its gradients...
  
  
 Energy components, in hartrees:
   (A)  Nuclear repulsion............    8111.13200041866
   (E)  Total one-electron terms.....  -19756.27575231615
   (F)    Electron-nuclear...........  -22265.48564170767
   (H)    Kinetic....................    2509.20988939152
   (I)  Total two-electron terms.....    9047.14823823638
   (J)    Coulomb....................    9379.79512858408
   (K)    Exchange+Correlation.......    -332.64689034770
   (L)  Electronic energy............  -10709.12751407977  (E+I)
   (N0) D3 correction................      -0.22445324809
   (N)  Total energy.................   -2598.21996690920  (A+L+N0)
   (O)  Gas phase energy.............   -2598.21996690920
  
 SCFE: SCF energy: DFT(b3pw91-d3)     -2598.21996690920 hartrees   iterations:  12
  
 
 HOMO energy:    -0.14816
 LUMO energy:    -0.04743
 
  Orbital energies (hartrees): 
   -77.05173   -77.04726   -10.19117   -10.18725   -10.18437   -10.18389
   -10.18207   -10.18000   -10.17819   -10.17809   -10.17711   -10.17531
   -10.17428   -10.17329   -10.17110   -10.17075   -10.17072   -10.17025
   -10.16925   -10.16860   -10.16854   -10.16812   -10.16786   -10.16694
   -10.16668   -10.16642   -10.16547   -10.16326   -10.16302   -10.16159
   -10.16068   -10.15767   -10.15653   -10.15572   -10.15480   -10.14856
   -10.14674   -10.14486   -10.14339   -10.14326   -10.14292   -10.13880
   -10.13719   -10.13625   -10.13551   -10.13453   -10.12938   -10.08451
    -6.55262    -6.54907    -4.71088    -4.71022    -4.70745    -4.70680
    -4.70631    -4.70329    -3.25643    -1.99307    -1.97427    -1.97121
    -0.88914    -0.88642    -0.87857    -0.85527    -0.84920    -0.83913
    -0.82855    -0.82233    -0.81333    -0.80270    -0.79098    -0.78781
    -0.77184    -0.75392    -0.75150    -0.73960    -0.73487    -0.73278
    -0.73164    -0.71696    -0.71223    -0.70693    -0.70030    -0.69587
    -0.69055    -0.68534    -0.68055    -0.65665    -0.65085    -0.64940
    -0.62589    -0.61400    -0.61162    -0.60733    -0.60081    -0.59798
    -0.58372    -0.58235    -0.56610    -0.55972    -0.55711    -0.55067
    -0.54551    -0.53285    -0.52082    -0.51297    -0.51010    -0.50350
    -0.49440    -0.49160    -0.48805    -0.47845    -0.47676    -0.47369
    -0.46861    -0.46590    -0.46534    -0.46245    -0.45482    -0.45042
    -0.44756    -0.44255    -0.44192    -0.43743    -0.43570    -0.43459
    -0.43236    -0.42809    -0.42744    -0.42618    -0.41991    -0.41851
    -0.41764    -0.41508    -0.41206    -0.40805    -0.40607    -0.40239
    -0.40070    -0.39754    -0.39007    -0.38898    -0.38630    -0.38369
    -0.37834    -0.37692    -0.37375    -0.37182    -0.36957    -0.36738
    -0.36471    -0.35762    -0.35714    -0.35562    -0.35135    -0.35057
    -0.34884    -0.34640    -0.34220    -0.33999    -0.33437    -0.33099
    -0.32578    -0.32458    -0.32037    -0.31505    -0.31212    -0.31118
    -0.30590    -0.30215    -0.29923    -0.29668    -0.28700    -0.28431
    -0.27852    -0.27210    -0.25504    -0.24971    -0.24432    -0.24351
    -0.24275    -0.23938    -0.23357    -0.23215    -0.22702    -0.21016
    -0.20859    -0.20502    -0.19981    -0.18822    -0.18513    -0.18326
    -0.14816    -0.04743    -0.04149    -0.01690    -0.00643    -0.00476
    -0.00237     0.00153     0.00614     0.02446     0.03588
 
  end of program scf
   
 Time(scf)  user:    1186.343  user+sys:    1186.343  wallclock:     104.022
  
  start of program der1a
  
  end of program der1a
   
 Time(der1a)  user:      28.221  user+sys:      28.221  wallclock:       2.511
  
  start of program rwr
  
  end of program rwr
   
 Time(rwr)  user:      78.003  user+sys:      78.003  wallclock:      26.554
  
  start of program der1b
  
   
  forces (hartrees/bohr) : total     
   
 atom  label           x              y              z
 ---- --------   -------------  -------------  -------------
    1 P1         -1.719567E-02   2.001142E-02  -5.149014E-03
    2 Pd2         9.820204E-03   1.537236E-03   4.839897E-03
    3 C3          1.355517E-02  -2.045560E-02   3.776623E-03
    4 C4          7.300310E-03  -2.442582E-02  -8.267583E-03
    5 C5          7.451819E-03   3.659140E-02   5.807204E-02
    6 C6         -2.061323E-02   9.409516E-03   1.094045E-03
    7 C10        -1.534310E-02   1.207867E-02   6.244849E-03
    8 C11        -1.462019E-02   3.200441E-02  -1.790133E-02
    9 C15         5.225723E-03   1.757223E-02   2.495948E-03
   10 C16         6.831903E-03  -1.916208E-02   7.434267E-03
   11 C20         3.540031E-02  -9.621974E-02  -1.076770E-02
   12 C27         1.248881E-01   4.455577E-02  -7.251582E-05
   13 H32         7.010436E-03   3.259240E-03  -2.235914E-03
   14 H33         5.163611E-03  -2.153074E-03  -3.472457E-05
   15 H40         2.354657E-03  -2.975480E-03  -3.413999E-03
   16 H41         4.709506E-03  -2.396007E-03  -3.378022E-03
   17 C28        -1.674858E-01  -8.750649E-04  -2.761443E-02
   18 H43        -4.653320E-03   5.070771E-03  -1.561778E-02
   19 H44        -2.698274E-03  -4.237040E-03  -2.427694E-03
   20 H51        -1.494243E-03  -1.736375E-03  -1.063511E-03
   21 H52        -4.070411E-03  -5.874651E-03   1.467596E-03
   22 P22         1.661066E-02  -2.467881E-02   7.665744E-03
   23 C23        -1.548302E-02   8.323704E-03  -1.326283E-02
   24 C24         1.506795E-02  -1.260660E-02   1.064333E-02
   25 C25         1.285019E-03   1.964579E-02   1.724178E-02
   26 H26        -3.116675E-03  -5.531694E-04   1.565494E-03
   27 H27        -6.446537E-03  -5.040862E-04   1.467292E-03
   28 C29        -1.085534E-02  -3.049462E-03   4.160375E-04
   29 H29        -1.579981E-02  -1.607644E-02   9.417901E-03
   30 H30        -3.372977E-02   3.209477E-02   1.478060E-02
   31 C31        -1.162105E-02   1.618387E-02  -1.014058E-03
   32 C32         2.174905E-02  -5.536918E-02   3.421117E-02
   33 C33         5.382108E-03   2.723669E-03  -8.228523E-03
   34 H34         5.107515E-03   4.861917E-03   5.682430E-03
   35 H35         4.290875E-03   2.768358E-02   7.416753E-04
   36 C36         9.923766E-03  -6.190310E-03   1.919061E-02
   37 H37         3.049626E-02  -7.892811E-02   5.951728E-02
   38 H38        -1.532923E-03   7.627761E-03   2.210883E-03
   39 C39         2.184130E-04  -3.187600E-02  -6.346788E-02
   40 C40        -3.658028E-02   7.986224E-02   2.242550E-02
   41 C41        -2.310438E-03   1.724440E-02   4.394855E-03
   42 H42        -1.282114E-02   9.138493E-03  -7.808062E-04
   43 H45        -2.899017E-03  -2.923260E-03  -3.799769E-04
   44 H46         2.740895E-03  -1.469741E-03  -1.603023E-03
   45 H47         2.643512E-03  -1.533406E-04  -1.054038E-03
   46 H48        -3.959974E-03  -9.247202E-04   1.013808E-03
   47 H49        -4.199831E-03  -9.297959E-04  -3.144289E-04
   48 H50        -8.489229E-04   5.559410E-03   9.598918E-04
   49 H53         2.339122E-03   4.946254E-03   8.529410E-05
   50 H54        -1.289488E-04   2.835952E-03   3.194939E-03
   51 H55        -1.088425E-03  -1.368940E-03   2.039650E-02
   52 H56         1.463899E-02   2.284426E-02  -3.702496E-03
   53 H57        -7.326254E-03   5.973668E-04  -1.510951E-03
   54 H58        -1.542131E-02  -1.012512E-02  -1.490509E-02
   55 H59        -5.636436E-04   5.141315E-03  -3.389950E-03
   56 H60        -9.563131E-03  -2.584355E-04  -7.586745E-03
   57 H61        -1.006013E-01  -1.359578E-02  -6.279325E-02
   58 H62        -3.879231E-02   6.315794E-03  -1.565143E-02
   59 H63         1.680981E-02   5.775202E-03   1.076535E-03
   60 H64         6.800756E-03   2.516803E-04   4.638259E-03
   61 H65         1.634652E-01   1.772688E-02   3.044249E-02
   62 H66        -9.737283E-03  -2.173334E-02  -6.606461E-03
   63 H67         5.691622E-03  -9.819031E-03   4.110570E-03
   64 H68         1.301956E-02   5.080008E-02  -1.862603E-02
   65 H69        -4.881403E-02   2.969690E-02  -7.890129E-03
   66 H70         4.810485E-02  -2.773265E-02   6.125545E-03
   67 H71        -1.103163E-02  -5.728447E-02   2.623018E-02
   68 C68        -3.421985E-03  -2.557504E-03  -9.666334E-03
   69 C69         2.892326E-03  -4.387104E-03   5.930293E-03
   70 C70        -1.857393E-03   3.496806E-02  -3.199903E-02
   71 C71         5.252699E-03  -1.359826E-02   6.940353E-03
   72 C72        -4.420074E-02   6.996692E-02  -6.271361E-02
   73 C73        -4.913232E-03   1.792866E-02   5.526066E-03
   74 H74         3.870516E-03  -5.076057E-03   6.913142E-03
   75 H75         3.631235E-03  -9.647068E-03  -2.325136E-03
   76 H76         1.114082E-02   1.245775E-02  -4.283807E-02
   77 H77        -5.084147E-02   1.069746E-01  -4.873675E-02
   78 H78         1.860464E-03   3.035811E-03   9.634406E-03
   79 C79         4.303810E-03   2.101873E-02  -1.894368E-02
   80 C80         1.734991E-05   1.001541E-03   3.471530E-03
   81 C81        -1.034768E-02  -1.071479E-02   3.687717E-02
   82 C82         3.510375E-04  -1.266096E-02   1.387774E-03
   83 C83         3.217703E-03   6.675425E-03   1.428138E-02
   84 C84        -1.027205E-02   4.455065E-02  -5.024866E-02
   85 H85         1.602825E-04  -3.253659E-05  -1.580522E-02
   86 H86         6.635343E-03  -7.235555E-03  -3.566002E-03
   87 H87         4.853895E-04  -2.087771E-02   3.287151E-02
   88 H88        -3.788048E-03   1.485294E-02   1.940636E-03
   89 H89        -3.728950E-02   8.409507E-02  -6.245683E-02
   90 C90         1.510629E-02  -4.134386E-02   3.437769E-02
   91 C91        -2.349893E-03  -6.864891E-03  -9.230995E-04
   92 C92         3.264211E-03   7.663012E-03  -1.262506E-02
   93 C93        -7.739859E-03   2.199376E-02  -2.159072E-02
   94 C94         1.125781E-02  -3.308613E-02  -1.452188E-02
   95 C95         6.587145E-03  -4.375908E-02   4.559331E-02
   96 H96         5.130733E-03  -2.660609E-04   1.473879E-02
   97 H97        -9.445966E-03   4.974861E-03   4.124066E-03
   98 H98        -9.545111E-03   2.453437E-03  -7.526813E-03
   99 H99         4.074807E-02  -3.896915E-02  -1.050891E-02
  100 H100        2.213576E-02  -9.857626E-03   1.304909E-02
  101 C101        2.192411E-03   1.508045E-03   9.751650E-03
  102 C102       -2.627347E-03   4.567658E-03  -6.838006E-03
  103 C103        7.288153E-03  -2.909790E-02   1.371791E-02
  104 C104       -4.639833E-03   1.478061E-02  -1.325595E-03
  105 C105        3.984996E-02  -7.198940E-02   5.825502E-02
  106 C106        4.364524E-03  -1.686360E-02  -6.612603E-03
  107 H107       -3.564516E-03   5.603057E-03  -6.712578E-03
  108 H108       -3.401359E-03   9.676441E-03   2.849892E-03
  109 H109       -4.325541E-04  -3.366565E-03   2.134726E-02
  110 H110        4.851626E-02  -1.079057E-01   3.863680E-02
  111 H111       -1.295397E-03  -2.243990E-03  -9.805675E-03
 -------------   -------------  -------------  -------------
     total        9.368778E-04  -3.442554E-04  -1.514945E-03
   
  end of program der1b
   
 Time(der1b)  user:     348.617  user+sys:     348.617  wallclock:      28.364
  
  start of program geopt
  
 ----------------------------------------------------------------------------
  Geometry optimization step  1
  Total energy:     -2598.21996690920 hartrees
 ----------------------------------------------------------------------------
  
  
  Level shifts adjusted to satisfy step-size constraints
   Step size:    0.3007204
   Cos(theta):   0.7124231
   Final level shift:  -3.0207190E+00
  
  gradient maximum:        1.7908E+00 .  (  2.2500E-03 )
  gradient rms:            2.2426E-01 .  (  1.5000E-03 )
  displacement maximum:    9.8583E-02 .  (  9.0000E-03 )
  displacement rms:        1.5762E-02 .  (  6.0000E-03 )
  
  predicted energy change:  -5.9489E-01
  step size:     0.30071
  trust radius:  0.30000
  
  molecular structure not yet converged...
  
  center of mass moved by:
     x:    -4.9217E-03     y:    -1.9434E-02     z:     9.6688E-03
  
  new geometry: 
                                   angstroms
  atom               x                 y                 z
  P1            0.2081330545      0.1453482069     -0.6219724929 
  Pd2           0.3480835535      0.3238957297      1.6721403868 
  C3            1.8435188654     -0.2643519651     -1.4664038119 
  C4           -1.0779772730     -1.1947066338     -0.9870789939 
  C5           -0.5107990399      1.4033677574     -1.7840671765 
  C6            2.9134286608      0.6652009827     -0.8694946481 
  C10           1.9526320098     -0.2650222354     -2.9967117618 
  C11          -1.9073588884     -1.4218382934      0.2844373922 
  C15          -1.9775391814     -1.1247593416     -2.2258122461 
  C16          -0.8833891521      2.7436890678     -1.5190984490 
  C20          -0.6635319403      1.0158861151     -3.1373210582 
  C27           2.1505800269     -1.6767358821     -0.9500079631 
  H32           2.6844518100      1.6976485049     -1.1671030693 
  H33           2.8444017324      0.6377055054      0.2254413338 
  H40           1.2154550376     -0.9367840539     -3.4498520944 
  H41           1.7399173132      0.7429018012     -3.3777280131 
  C28          -0.2273071842     -2.4641300379     -1.1976241379 
  H43          -1.2393597018     -1.4721658733      1.1526250349 
  H44          -2.5699935375     -0.5596273491      0.4447491825 
  H51          -2.6572715810     -0.2649183814     -2.1652861715 
  H52          -1.3730182053     -1.0029101047     -3.1328344892 
  P22           0.0426199474      0.1379516894      3.9501429312 
  C23          -1.8175752857     -0.1026135163      4.2241637100 
  C24          -2.4944603955      0.2560850245      5.5530455284 
  C25          -2.2211694225     -1.5245139759      3.8149408068 
[...]
    C39      Y    -0.00001   0.00009  -0.00019
    C39      Z    -0.00000   0.00011   0.00105
    C40      X     0.00004  -0.00002   0.04739
    C40      Y    -0.00003  -0.00007  -0.06738
    C40      Z    -0.00000  -0.00003  -0.00865
    C41      X    -0.00000   0.00018   0.00001
    C41      Y     0.00000  -0.00003   0.00005
    C41      Z     0.00001  -0.00004   0.00029
    H42      X     0.00010  -0.00009  -0.00002
    H42      Y     0.00013  -0.00003  -0.00002
    H42      Z     0.00004  -0.00007  -0.00001
    H45      X     0.00021  -0.00001   0.00000
    H45      Y     0.00021  -0.00000  -0.00000
    H45      Z     0.00005  -0.00002   0.00000
    H46      X    -0.00023  -0.00033  -0.00004
    H46      Y     0.00005   0.00006   0.00000
    H46      Z    -0.00001   0.00005   0.00001
    H47      X    -0.00030  -0.00044  -0.00002
    H47      Y     0.00011   0.00009  -0.00000
    H47      Z     0.00000   0.00005   0.00000
    H48      X    -0.00036   0.00023   0.00482
    H48      Y     0.00008  -0.00010   0.00040
    H48      Z     0.00003  -0.00009  -0.00229
    H49      X    -0.00023   0.00132   0.00075
    H49      Y     0.00001   0.00008  -0.00022
    H49      Z     0.00007   0.00027  -0.00011
    H50      X    -0.00014   0.00005  -0.00389
    H50      Y    -0.00007   0.00005  -0.00530
    H50      Z    -0.00008  -0.00008   0.00003
    H53      X    -0.00020  -0.00000   0.00029
    H53      Y    -0.00014   0.00002   0.00030
    H53      Z    -0.00008  -0.00002   0.00014
    H54      X     0.00230  -0.00008   0.00014
    H54      Y     0.00221  -0.00003   0.00020
    H54      Z     0.00018  -0.00006  -0.00004
    H55      X     0.00004   0.00001   0.00028
    H55      Y     0.00137   0.00010   0.00008
    H55      Z     0.00163   0.00009   0.00147
    H56      X     0.00716  -0.00005  -0.00005
    H56      Y    -0.00344   0.00000   0.00004
    H56      Z    -0.00373  -0.00002  -0.00012
    H57      X    -0.00038   0.00018  -0.00024
    H57      Y     0.00026  -0.00005   0.00003
    H57      Z     0.00012  -0.00006   0.00022
    H58      X    -0.00443   0.00038   0.00040
    H58      Y    -0.00876   0.00076   0.00054
    H58      Z     0.00249  -0.00016  -0.00001
    H59      X     0.00008  -0.00006  -0.00031
    H59      Y    -0.00181  -0.00000   0.00193
    H59      Z    -0.00258  -0.00008   0.00260
    H60      X     0.00002  -0.00034  -0.00002
    H60      Y     0.00008  -0.00027  -0.00002
    H60      Z    -0.00003  -0.00038  -0.00001
    H61      X    -0.00024  -0.00201  -0.00012
    H61      Y     0.00011   0.00099   0.00005
    H61      Z     0.00010   0.00122   0.00007
    H62      X     0.00000   0.00107   0.00002
    H62      Y     0.00002   0.00023  -0.00003
    H62      Z    -0.00002   0.00351  -0.00000
    H63      X    -0.00015   0.00008  -0.00006
    H63      Y     0.00005   0.00005   0.00001
    H63      Z    -0.00002   0.00003   0.00001
    H64      X    -0.00006   0.00028   0.00000
    H64      Y     0.00004  -0.00070  -0.00002
    H64      Z     0.00019  -0.00110  -0.00000
    H65      X     0.00033  -0.00012   0.00004
    H65      Y     0.00056  -0.00019   0.00005
    H65      Z     0.00013   0.00040   0.00004
    H66      X    -0.00026  -0.00069  -0.49566
    H66      Y     0.00045   0.00081   0.74695
    H66      Z     0.00012   0.00041   0.22000
    H67      X     0.00007   0.00003   0.00001
    H67      Y     0.00061   0.00009   0.00002
    H67      Z     0.00061   0.00006   0.00002
    H68      X    -0.00020   0.00044  -0.15511
    H68      Y     0.00001  -0.00004  -0.01879
    H68      Z    -0.00013   0.00024  -0.09920
    H69      X    -0.00003   0.00019   0.07418
    H69      Y    -0.00009   0.00046   0.09284
    H69      Z     0.00001   0.00007  -0.03488
    H70      X    -0.00038  -0.00011  -0.00001
    H70      Y    -0.00003  -0.00002  -0.00001
    H70      Z     0.00022  -0.00002   0.00000
    H71      X     0.00037   0.00000  -0.00002
    H71      Y    -0.00080  -0.00006   0.00005
    H71      Z     0.00042   0.00005  -0.00003
    C68      X    -0.00037  -0.00001   0.00000
    C68      Y     0.00058   0.00002  -0.00001
    C68      Z    -0.00060  -0.00002   0.00001
    C69      X     0.00009   0.00000  -0.00000
    C69      Y     0.00096   0.00003  -0.00001
    C69      Z     0.00012   0.00000  -0.00000
    C70      X     0.00058   0.00001  -0.00001
    C70      Y     0.00038   0.00000  -0.00000
    C70      Z     0.00101   0.00002  -0.00001
    C71      X    -0.00002  -0.00000  -0.00000
    C71      Y    -0.00003  -0.00000   0.00000
    C71      Z     0.00008  -0.00000   0.00000
    C72      X    -0.00007   0.00000  -0.00000
    C72      Y    -0.00081   0.00000   0.00000
    C72      Z    -0.00008   0.00000  -0.00000
    C73      X    -0.00042  -0.00001   0.00000
    C73      Y    -0.00031  -0.00001   0.00000
    C73      Z    -0.00066  -0.00001   0.00001
    H74      X     0.00402   0.00011  -0.00005
    H74      Y    -0.00640  -0.00018   0.00008
    H74      Z     0.00650   0.00018  -0.00008
    H75      X    -0.00108  -0.00003   0.00001
    H75      Y    -0.01049  -0.00028   0.00013
    H75      Z    -0.00150  -0.00004   0.00002
    H76      X    -0.00611  -0.00010   0.00006
    H76      Y    -0.00456  -0.00007   0.00004
    H76      Z    -0.01081  -0.00017   0.00009
    H77      X     0.00090  -0.00001   0.00000
    H77      Y     0.00880  -0.00004  -0.00001
    H77      Z     0.00114  -0.00001   0.00000
    H78      X     0.00465   0.00009  -0.00005
    H78      Y     0.00317   0.00006  -0.00003
    H78      Z     0.00712   0.00014  -0.00007
    C79      X    -0.01174  -0.00001   0.00001
    C79      Y     0.01396   0.00002  -0.00001
    C79      Z     0.02173   0.00003  -0.00001
    C80      X    -0.01544  -0.00002   0.00001
    C80      Y     0.00007  -0.00000   0.00000
    C80      Z     0.00165  -0.00000   0.00000
    C81      X    -0.00605   0.00000   0.00000
    C81      Y    -0.00415   0.00000   0.00000
    C81      Z    -0.00674   0.00000   0.00000
    C82      X    -0.00062   0.00000  -0.00000
    C82      Y    -0.00127   0.00000   0.00000
    C82      Z    -0.00198   0.00000   0.00000
    C83      X     0.05674  -0.00013  -0.00003
    C83      Y    -0.00321   0.00000   0.00000
    C83      Z    -0.01128   0.00002   0.00001
    C84      X     0.03343   0.00000  -0.00003
    C84      Y     0.02473  -0.00000  -0.00002
    C84      Z     0.03431   0.00000  -0.00003
    H85      X     0.11098   0.00015  -0.00007
    H85      Y    -0.15327  -0.00021   0.00008
    H85      Z    -0.23725  -0.00032   0.00014
    H86      X     0.16385   0.00022  -0.00008
    H86      Y    -0.00531  -0.00001   0.00000
    H86      Z    -0.02466  -0.00003   0.00001
    H87      X     0.06758  -0.00005  -0.00002
    H87      Y     0.04322  -0.00002  -0.00002
    H87      Z     0.07179  -0.00004  -0.00002
    H88      X    -0.63775   0.00152   0.00028
    H88      Y     0.02598  -0.00003  -0.00001
    H88      Z     0.11167  -0.00027  -0.00006
    H89      X    -0.37495  -0.00004   0.00032
    H89      Y    -0.26814  -0.00003   0.00023
    H89      Z    -0.37357  -0.00003   0.00032
    C90      X    -0.00000  -0.00146  -0.00001
    C90      Y     0.00015   0.00602   0.00003
    C90      Z     0.00020   0.00823   0.00004
    C91      X    -0.00017  -0.00503  -0.00002
    C91      Y     0.00005   0.00149   0.00001
    C91      Z     0.00007   0.00185   0.00002
    C92      X    -0.00009  -0.00300   0.00012
    C92      Y    -0.00003  -0.00070   0.00001
    C92      Z    -0.00005  -0.00124   0.00003
    C93      X     0.00000  -0.00194   0.00002
    C93      Y    -0.00000  -0.00128   0.00007
    C93      Z     0.00000  -0.00196   0.00006
    C94      X    -0.00003   0.06813  -0.00010
    C94      Y     0.00000  -0.02289   0.00003
    C94      Z     0.00001  -0.03192   0.00003
    C95      X     0.00020   0.02304   0.00006
    C95      Y     0.00006   0.00919   0.00001
    C95      Z     0.00009   0.01335   0.00002
    H96      X     0.00004   0.00311   0.00000
    H96      Y    -0.00163  -0.06267  -0.00041
    H96      Z    -0.00221  -0.08582  -0.00055
    H97      X     0.00183   0.05198   0.00033
    H97      Y    -0.00062  -0.01707  -0.00012
    H97      Z    -0.00078  -0.02208  -0.00014
    H98      X     0.00096   0.02957  -0.00136
    H98      Y     0.00028   0.00795  -0.00038
    H98      Z     0.00053   0.01525  -0.00064
    H99      X     0.00040  -0.77956   0.00117
    H99      Y    -0.00011   0.25844  -0.00040
    H99      Z    -0.00016   0.35686  -0.00048
    H100     X    -0.00213  -0.25583  -0.00061
    H100     Y    -0.00071  -0.08706  -0.00022
    H100     Z    -0.00102  -0.12712  -0.00030
    C101     X    -0.00003  -0.00003  -0.00018
    C101     Y     0.00003   0.00003   0.00010
    C101     Z    -0.00003  -0.00004  -0.00017
    C102     X     0.00001   0.00002   0.00012
    C102     Y     0.00005   0.00014   0.00020
    C102     Z    -0.00001  -0.00003   0.00003
    C103     X     0.00004   0.00031   0.00015
    C103     Y     0.00002   0.00017   0.00021
    C103     Z     0.00003   0.00022   0.00008
    C104     X     0.00000  -0.00003   0.00001
    C104     Y    -0.00000  -0.00001  -0.00004
    C104     Z    -0.00000   0.00009  -0.00008
    C105     X     0.00001  -0.00001  -0.00007
    C105     Y     0.00002  -0.00001  -0.00045
    C105     Z    -0.00000  -0.00000   0.00002
    C106     X    -0.00002  -0.00006  -0.00031
    C106     Y    -0.00001  -0.00004  -0.00009
    C106     Z    -0.00001  -0.00005  -0.00022
    H107     X     0.00032   0.00032   0.00155
    H107     Y    -0.00033  -0.00035  -0.00164
    H107     Z     0.00037   0.00039   0.00181
    H108     X    -0.00015  -0.00036  -0.00055
    H108     Y    -0.00059  -0.00155  -0.00236
    H108     Z     0.00009   0.00024   0.00031
    H109     X    -0.00046  -0.00316  -0.00185
    H109     Y    -0.00024  -0.00181  -0.00102
    H109     Z    -0.00030  -0.00223  -0.00123
    H110     X    -0.00006  -0.00004   0.00124
    H110     Y    -0.00019  -0.00003   0.00402
    H110     Z     0.00003   0.00003  -0.00081
    H111     X     0.00016   0.00070   0.00332
    H111     Y     0.00009   0.00035   0.00161
    H111     Z     0.00010   0.00041   0.00194
  
  Number of imaginary frequencies:   0
   
  Writing vibrational animation data to L2_PL747.vib
  Writing IR vibrational spectrum data to L2_PL747_vib.spm
  rotational symmetry number:  1

  rotational temperatures (K):      0.004892      0.001864      0.001575
   
  The Quasi-Harmonic approximation will be applied to compute
  vibrational constributions to thermodynamic properties.
  Frequencies will be adjusted to a minimum value of  100.00 cm^-1.

  vibrational temperatures:
       mode:      1        2        3        4        5        6
  temp. (K):   143.88   143.88   143.88   143.88   143.88   143.88
   
       mode:      7        8        9       10       11       12
  temp. (K):   143.88   143.88   143.88   143.88   143.88   143.88
   
       mode:     13       14       15       16       17       18
  temp. (K):   143.88   143.88   143.88   143.88   143.88   143.88
   
       mode:     19       20       21       22       23       24
  temp. (K):   143.88   154.39   163.00   167.42   172.92   174.53
   
       mode:     25       26       27       28       29       30
  temp. (K):   185.93   190.63   213.28   219.45   228.36   240.23
   
       mode:     31       32       33       34       35       36
  temp. (K):   254.97   286.12   289.22   290.85   311.04   327.99
   
       mode:     37       38       39       40       41       42
  temp. (K):   335.04   344.75   346.90   355.44   357.68   366.37
   
       mode:     43       44       45       46       47       48
  temp. (K):   366.52   376.84   377.39   381.32   385.07   386.47
   
       mode:     49       50       51       52       53       54
  temp. (K):   399.89   412.34   419.65   424.51   428.39   434.54
   
       mode:     55       56       57       58       59       60
  temp. (K):   434.87   452.46   455.63   457.62   461.46   472.27
   
       mode:     61       62       63       64       65       66
  temp. (K):   485.09   512.98   531.28   532.12   535.17   552.65
   
       mode:     67       68       69       70       71       72
  temp. (K):   560.54   575.27   577.15   589.27   590.26   597.69
   
       mode:     73       74       75       76       77       78
  temp. (K):   601.31   604.45   605.81   607.68   611.69   612.39
   
       mode:     79       80       81       82       83       84
  temp. (K):   627.66   663.28   668.71   685.46   693.40   715.67
   
       mode:     85       86       87       88       89       90
  temp. (K):   721.59   725.47   749.37   787.11   802.08   828.18
   
       mode:     91       92       93       94       95       96
  temp. (K):   834.85   863.27   869.23   897.98   898.34   902.28
   
       mode:     97       98       99      100      101      102
  temp. (K):   903.59   905.15   906.46   951.82   957.26   999.82
   
       mode:    103      104      105      106      107      108
  temp. (K):  1005.38  1033.11  1038.10  1042.75  1048.23  1099.13
   
       mode:    109      110      111      112      113      114
  temp. (K):  1099.80  1126.39  1131.64  1160.83  1164.08  1202.34
   
       mode:    115      116      117      118      119      120
  temp. (K):  1203.54  1204.67  1206.42  1242.51  1248.04  1251.56
   
       mode:    121      122      123      124      125      126
  temp. (K):  1257.74  1326.42  1329.62  1349.29  1350.30  1366.32
   
       mode:    127      128      129      130      131      132
  temp. (K):  1366.39  1372.48  1374.61  1379.47  1380.40  1381.80
   
       mode:    133      134      135      136      137      138
  temp. (K):  1383.19  1390.27  1393.52  1407.11  1409.87  1412.54
   
       mode:    139      140      141      142      143      144
  temp. (K):  1415.79  1430.19  1431.42  1437.14  1440.16  1457.11
   
       mode:    145      146      147      148      149      150
  temp. (K):  1457.47  1459.64  1461.26  1464.74  1464.85  1466.90
   
       mode:    151      152      153      154      155      156
  temp. (K):  1467.39  1468.42  1476.03  1494.15  1502.11  1503.02
   
       mode:    157      158      159      160      161      162
  temp. (K):  1512.10  1516.39  1519.47  1522.82  1523.83  1525.04
   
       mode:    163      164      165      166      167      168
  temp. (K):  1529.73  1531.24  1533.45  1536.14  1536.28  1606.09
   
       mode:    169      170      171      172      173      174
  temp. (K):  1608.45  1609.46  1610.73  1635.88  1649.28  1729.71
   
       mode:    175      176      177      178      179      180
  temp. (K):  1730.14  1730.46  1731.41  1738.15  1739.17  1741.83
   
       mode:    181      182      183      184      185      186
  temp. (K):  1745.36  1750.23  1752.60  1756.80  1758.98  1760.67
   
       mode:    187      188      189      190      191      192
  temp. (K):  1761.31  1769.85  1773.68  1779.42  1779.52  1795.24
   
       mode:    193      194      195      196      197      198
  temp. (K):  1796.41  1799.83  1804.33  1862.08  1876.47  1932.61
   
       mode:    199      200      201      202      203      204
  temp. (K):  1933.47  1938.45  1942.14  1973.77  1974.96  1980.88
   
       mode:    205      206      207      208      209      210
  temp. (K):  1982.65  2034.16  2035.21  2038.40  2042.22  2044.52
   
       mode:    211      212      213      214      215      216
  temp. (K):  2044.92  2047.15  2049.48  2062.88  2067.39  2083.06
   
       mode:    217      218      219      220      221      222
  temp. (K):  2084.98  2095.57  2099.11  2139.66  2140.01  2144.06
   
       mode:    223      224      225      226      227      228
  temp. (K):  2144.25  2144.91  2147.24  2155.32  2158.08  2159.80
   
       mode:    229      230      231      232      233      234
  temp. (K):  2162.93  2165.67  2167.61  2168.79  2172.14  2175.00
   
       mode:    235      236      237      238      239      240
  temp. (K):  2179.73  2180.03  2182.10  2187.39  2190.40  2195.38
   
       mode:    241      242      243      244      245      246
  temp. (K):  2196.65  2207.18  2208.30  2210.64  2211.78  2212.29
   
       mode:    247      248      249      250      251      252
  temp. (K):  2214.41  2215.85  2217.22  2218.55  2219.91  2225.88
   
       mode:    253      254      255      256      257      258
  temp. (K):  2227.69  2233.67  2234.62  2352.53  2356.60  2360.37
   
       mode:    259      260      261      262      263      264
  temp. (K):  2362.53  2371.30  2375.49  2394.97  2396.40  2400.79
   
       mode:    265      266      267      268      269      270
  temp. (K):  2401.22  4347.74  4349.69  4354.80  4357.69  4358.81
   
       mode:    271      272      273      274      275      276
  temp. (K):  4361.63  4366.90  4369.58  4372.85  4373.96  4375.93
   
       mode:    277      278      279      280      281      282
  temp. (K):  4379.22  4402.03  4432.69  4445.33  4453.82  4466.24
   
       mode:    283      284      285      286      287      288
  temp. (K):  4468.43  4470.39  4471.75  4476.52  4477.71  4481.54
   
       mode:    289      290      291      292      293      294
  temp. (K):  4485.99  4487.34  4494.68  4505.19  4512.12  4518.23
   
       mode:    295      296      297      298      299      300
  temp. (K):  4518.55  4519.41  4523.99  4529.40  4530.62  4541.21
   
       mode:    301      302      303      304      305      306
  temp. (K):  4542.97  4555.92  4558.74  4572.82  4573.58  4575.30
   
       mode:    307      308      309      310      311      312
  temp. (K):  4575.80  4578.53  4580.42  4582.31  4587.93  4589.23
   
       mode:    313      314      315      316      317      318
  temp. (K):  4590.37  4593.43  4599.62  4603.57  4606.77  4606.81
   
       mode:    319      320      321      322      323      324
  temp. (K):  4607.84  4612.40  4616.65  4618.80  4619.97  4624.01
   
       mode:    325      326      327
  temp. (K):  4627.42  4644.27  4653.91
   
   
  Thermodynamic properties calculated assuming an ideal gas

  In the table below, the units for temperature
  are kelvins, the units for U, H, and G are
  kcal/mol and the units for Cv and S are cal/(mol K)

  The zero point energy (ZPE):    609.220 kcal/mol
  is not included in U, H, or G in the table below
  
 
  =============================================================================
  Thermodynamic properties for P = 1.00E+00 atm, calculated at   1 temperatures


  T =   298.15 K, P = 1.00E+00 atm
   
                  U         Cv          S          H          G        ln(Q)
              =========  =========  =========  =========  =========  =========
  trans.          0.889      2.981     45.850      1.481    -12.189   20.57255
  rot.            0.889      2.981     39.045      0.889    -10.753   18.14818
  vib.           31.121    204.459    188.416     31.121    -25.055   42.28869
  elec.           0.000      0.000      0.000      0.000      0.000    0.00000
  ----------------------------------------------------------------------------
  total          32.898    210.420    273.311     33.491    -47.997   81.00942
   
   Total internal energy, Utot(SCFE + ZPE + U):   -2598.135152 hartrees
   Total enthalpy, Htot (Utot + nRT), with n=1:   -2598.134208 hartrees
    Total Gibbs free energy, Gtot (Htot - T*S):   -2598.264067 hartrees
   
  end of program freq
   
 Time(freq)  user:       1.236  user+sys:       1.236  wallclock:       0.431
  
  start of program post
  
  Writing input files for PBF
  end of program post
   
 Time(post)  user:       0.347  user+sys:       0.347  wallclock:       0.106

 Total cpu seconds     user:  275402.860   user+sys:  275402.860
  
 Total elapsed time:    31507 seconds

Job L2_PL747 completed on bp1-compute084.data.bp.acrc.priv at Tue Dec  2 07:11:11 2025
