Job L_Ar_Br_N_N_trans_PL747 started on bp1-compute064 at Tue Dec  2 15:23:05 2025
jobid: bp1-compute064-0-692f0441

  +--------------------------------------------------------------------+
  |  Jaguar version 12.5, release 138                                  |
  |                                                                    |
  |  Copyright Schrodinger, Inc.                                       |
  |  All Rights Reserved.                                              |
  |                                                                    |
  |  The following have contributed to Jaguar (listed alphabetically): |
  |  Ty Balduf, Mike Beachy, Chandler Bennett, Art Bochevarov,         |
  |  Dale Braden, Yixiang Cao, Alan Chien, Chris Cortis,               |
  |  Rich Friesner, Jim Furness, Bill Goddard, Hod Greeley,            |
  |  Tom Hughes, Leif Jacobson, Jean-Marc Langlois, Daniel Levine,     |
  |  Rob Murphy, Dean Philipp, Tom Pollard, Murco Ringnalda,           |
  |  Daniel Mainz, Pablo Videla, Mark Watson, Haoyu Yu.                |
  |                                                                    |
  |  Use of this program should be acknowledged in publications as:    |
  |                                                                    |
  |  Jaguar, version 12.5, Schrodinger, Inc., New York, NY, 2024.      |
  |                                                                    |
  |  A. D. Bochevarov, E. Harder, T. F. Hughes, J. R. Greenwood,       |
  |  D. A. Braden, D. M. Philipp, D. Rinaldo, M. D. Halls,             |
  |  J. Zhang, R. A. Friesner, "Jaguar: A High-Performance Quantum     |
  |  Chemistry Software Program with Strengths in Life and Materials   |
  |  Sciences", Int. J. Quantum Chem., 2013, 113(18), 2110-2142.       |
  +--------------------------------------------------------------------+
  
  start of program pre
  
  Job name: L_Ar_Br_N_N_trans_PL747
  Executables used: /software/local/apps/schrodinger2024-3/jaguar-v12.5/bin/Linux-x86_64
  Temporary files : /tmp/ar21627/L_Ar_Br_N_N_trans_PL747#bp1-compute064-0-692f0441
  Basis file : using default basis file from /software/local/apps/schrodinger2024-3
  Maestro file (input):  L_Ar_Br_N_N_trans_PL747.mae
  Maestro file (output): L_Ar_Br_N_N_trans_PL747.01.mae
  
 Contents of input file: &gen and (if present) &atomic sections only
 ----------------Contents start----------------
&gen
dftname=b3pw91-d3
basis=6-31G*
numd=5
ip11=2
iaccg=3
isolv=2
igeopt=1
solvent=benzene
ifreq=1
&
&atomic
atom basis
Pd2 lacv3p*
Br3 lacv3p*
&
 -----------------Contents end-----------------
 
  PS calculation requested. Using PS version of 6-31g*
  basis set:               non_standard                    
  net molecular charge:    0
  multiplicity:            1
  
  Using up to  18 threads per process
  
  This run will use ECP on            2  atoms
  number of basis functions....          660
  
 Input geometry:
                                   angstroms
  atom               x                 y                 z
  P1            0.0000000000      0.0000000000      0.0000000000 
  Pd2           0.0000000000      0.0000000000      2.3493403021 
  C73           4.7519077370      0.0000000000      2.8836920289 
  C74           4.1294037361      1.2250171566      2.6985385258 
  C75           2.7414975505      1.2610367759      2.5434029555 
  C76           1.9913329963      0.0835378704      2.5485782283 
  C77           2.6425009405     -1.1290802361      2.8061575265 
  C78           4.0287364629     -1.1811511343      2.9601613181 
  F79           6.0961282932     -0.0417838585      3.0188039613 
  H80           4.7227280495      2.1356277267      2.6878250072 
  H82           2.0751628471     -2.0488324947      2.9163426942 
  H83           4.5431061114     -2.1194136099      3.1501496744 
  H14           2.2595401251      2.2250630350      2.4411518899 
  C6            1.6904966643      0.2684382075     -2.3661662097 
  C7            1.5755231157      0.6259416531     -0.8747336756 
  C8            2.7393859929     -0.0643773355     -0.1470841958 
  C9            1.6877398659      2.1511354930     -0.7272635479 
  C10          -1.5733021217      0.8424829420     -0.6873714380 
  C11          -1.8218109544      2.1159179953      0.1325062974 
  C12          -2.7398546527     -0.1232276530     -0.4252752425 
  C13          -1.5516018459      1.2288811026     -2.1734050868 
  C14          -0.0802221288     -1.7650171579     -0.5117800633 
  C15           0.0789669964     -2.7112129162      0.4444733776 
  C16          -0.2944441473     -2.1761704425     -1.9567173608 
  C17          -0.0824108722     -2.5250797711      1.9163043002 
  C18           0.9014494807     -3.0070824528      2.8109956648 
  C19           0.5912929730     -3.2487158489      4.1384854386 
  C20          -0.7117090411     -3.0468532743      4.6131987254 
  C21          -1.6909770500     -2.5649221284      3.7577786688 
  C22          -1.3816267294     -2.2849836650      2.4195580670 
  C23           0.3188639056     -4.1352802720      0.0756877681 
  C24          -0.5388600390     -5.1522158194      0.5158032738 
  C25          -0.2879678045     -6.4813787280      0.1843426732 
  C26           0.8373960802     -6.8164478758     -0.5704373404 
  C27           1.7107346849     -5.8137531128     -0.9933361631 
  C28           1.4503090508     -4.4829637290     -0.6749713549 
  H29           0.8485660872      0.6117079980     -2.9692963300 
  H30           1.8160471216     -0.8048730476     -2.5227922773 
  H31           2.5926588355      0.7565809863     -2.7598049922 
  H32           2.7912501493      0.2276132349      0.9017348576 
  H33           3.6849757169      0.2230773691     -0.6261220693 
  H34           2.6525170196     -1.1563327817     -0.1981429135 
  H35           0.9383030938      2.6765135092     -1.3284119835 
  H36           2.6747202602      2.4655660155     -1.0917478096 
  H37           1.5954580383      2.4803333174      0.3078628215 
  H38          -0.9950648309      2.8280416089      0.0606466192 
  H39          -1.9745327347      1.8733591717      1.1885054868 
  H40          -2.7294346849      2.6127135716     -0.2359372689 
  H41          -2.8228568966     -0.3601221872      0.6408952682 
  H42          -2.6479311310     -1.0608907860     -0.9835070021 
  H43          -3.6798039719      0.3576561585     -0.7272553747 
  H44          -0.7768172860      1.9670116526     -2.3989315715 
  H45          -2.5177453515      1.6891732634     -2.4223325391 
  H46          -1.4245736854      0.3756723645     -2.8446988429 
  H47          -0.9969336752     -3.0161313009     -2.0032152073 
  H48           0.6251559719     -2.5065901856     -2.4486073632 
  H49          -0.7005058028     -1.3632908321     -2.5582858580 
  H50           1.8965280421     -3.2210488730      2.4300996927 
  H51           1.3627690830     -3.6071079058      4.8158718610 
  H52          -0.9489449043     -3.2560747305      5.6526984179 
  H53          -2.6985936689     -2.3844288608      4.1216744785 
  H54          -2.1732852838     -2.0213517927      1.7250144202 
  H55          -1.4053565283     -4.8966467788      1.1212281969 
  H56          -0.9677237320     -7.2599871808      0.5243017813 
  H57           1.0382798790     -7.8563004040     -0.8195607595 
  H58           2.5994872955     -6.0683328421     -1.5672549181 
  H59           2.1406218971     -3.7034626124     -0.9900783629 
  N118          0.0353474214     -0.4351966094      4.4872874979 
  H119          0.2436832279     -1.4315213237      4.5221066469 
  H120         -0.9521070388     -0.3007102565      4.7065040580 
  C121          0.8751299869      0.3455125117      5.3346142487 
  C122          2.5468213511      1.9584622811      6.8830164847 
  C123          2.1255380915     -0.1273657571      5.7322370151 
  C124          0.4575339656      1.6260176960      5.7068514619 
  C125          1.2932416191      2.4246905267      6.4815618075 
  C126          2.9575186699      0.6818832216      6.5029660926 
  H127          2.4651411662     -1.1060068601      5.4054457261 
  H128         -0.5067481338      1.9910798663      5.3594244377 
  H129          0.9634823385      3.4214693362      6.7675113874 
  H130          3.9359270266      0.3106854677      6.7996254844 
  H131          3.1990758011      2.5884646613      7.4836607829 
  Br3          -2.3699806788      1.2367417650      3.0190376008 
   
  principal moments of inertia:
        amu*angstrom^2:              5431.93659              7083.57764              7927.95907
                g*cm^2:          9.01994179E-37          1.17625559E-36          1.31646841E-36
   
  rotational constants:
               cm^(-1):      0.00310343      0.00237982      0.00212635
                   GHz:      0.09303846      0.07134516      0.06374642
   
  Molecular weight:     711.13 amu
   
  Stoichiometry: PdC35PNH42BrF
  Molecular Point Group: C1      
  Point Group used: C1
  
 
Number of optimization coordinates:   276
Number of independent coordinates:    276
Number of non-redundant coordinates:  240
Number of frozen coordinates:           0
Number of harmonic constraints:         0
 
Number of geometric degrees of freedom:   240
Maximum geometric degrees of freedom:     240
 " " " " " excluding dummy atoms:         240
 
 
  bond lengths (angstroms):
 
 P1      -Pd2     :   2.349340      P1      -C7      :   1.907678
 P1      -C10     :   1.912469      P1      -C14     :   1.839467
 Pd2     -C76     :   2.003018      Pd2     -N118    :   2.182078
 Pd2     -Br3     :   2.755872      C73     -C74     :   1.386528
 C73     -C78     :   1.387062      C73     -F79     :   1.351640
 C74     -C75     :   1.397014      C74     -H80     :   1.086904
 C75     -C76     :   1.396165      C75     -H14     :   1.082629
 C76     -C77     :   1.400289      C77     -C78     :   1.395735
 C77     -H82     :   1.086258      C78     -H83     :   1.086742
 C6      -C7      :   1.537985      C6      -H29     :   1.091076
 C6      -H30     :   1.091921      C6      -H31     :   1.098695
 C7      -C8      :   1.536421      C7      -C9      :   1.536410
 C8      -H32     :   1.089940      C8      -H33     :   1.098293
 C8      -H34     :   1.096595      C9      -H35     :   1.095015
 C9      -H36     :   1.098110      C9      -H37     :   1.090126
 C10     -C11     :   1.534794      C10     -C12     :   1.536924
 C10     -C13     :   1.535601      C11     -H38     :   1.093523
 C11     -H39     :   1.094209      C11     -H40     :   1.098334
 C12     -H41     :   1.095321      C12     -H42     :   1.095119
 C12     -H43     :   1.098156      C13     -H44     :   1.093613
 C13     -H45     :   1.098757      C13     -H46     :   1.093040
 C14     -C15     :   1.354640      C14     -C16     :   1.517492
 C15     -C17     :   1.492305      C15     -C23     :   1.490477
 C16     -H47     :   1.095987      C16     -H48     :   1.093982
 C16     -H49     :   1.089745      C17     -C18     :   1.414489
 C17     -C22     :   1.413815      C18     -C19     :   1.384490
 C18     -H50     :   1.086759      C19     -C20     :   1.401398
 C19     -H51     :   1.087416      C20     -C21     :   1.386711
 C20     -H52     :   1.086561      C21     -C22     :   1.401748
 C21     -H53     :   1.086411      C22     -H54     :   1.085641
 C23     -C24     :   1.401267      C23     -C28     :   1.401621
 C24     -C25     :   1.392655      C24     -H55     :   1.087507
 C25     -C26     :   1.395854      C25     -H56     :   1.088059
 C26     -C27     :   1.395335      C26     -H57     :   1.087984
 C27     -C28     :   1.392903      C27     -H58     :   1.088152
 C28     -H59     :   1.087863      N118    -H119    :   1.018469
 N118    -H120    :   1.020396      N118    -C121    :   1.425729
 C121    -C123    :   1.394718      C121    -C124    :   1.397369
 C122    -C125    :   1.396423      C122    -C126    :   1.393831
 C122    -H131    :   1.087710      C123    -C126    :   1.393233
 C123    -H127    :   1.086214      C124    -C125    :   1.391568
 C124    -H128    :   1.088033      C125    -H129    :   1.088153
 C126    -H130    :   1.087694
 
  bond angles:
 
 C7      -P1      -Pd2     : 117.292499  C10     -P1      -Pd2     : 111.064322
 C10     -P1      -C7      : 111.720067  C14     -P1      -Pd2     : 106.154110
 C14     -P1      -C7      : 102.901823  C14     -P1      -C10     : 106.667488
 C76     -Pd2     -P1      :  95.708586  N118    -Pd2     -P1      : 168.457301
 N118    -Pd2     -C76     :  83.958789  Br3     -Pd2     -P1      : 104.064106
 Br3     -Pd2     -C76     : 144.298668  Br3     -Pd2     -N118    :  82.261067
 C78     -C73     -C74     : 121.711357  F79     -C73     -C74     : 119.154266
 F79     -C73     -C78     : 119.122069  C75     -C74     -C73     : 118.923930
 H80     -C74     -C73     : 119.764928  H80     -C74     -C75     : 121.307437
 C76     -C75     -C74     : 120.773389  H14     -C75     -C74     : 118.406104
 H14     -C75     -C76     : 120.806808  C75     -C76     -Pd2     : 124.678739
 C77     -C76     -Pd2     : 116.390823  C77     -C76     -C75     : 118.761921
 C78     -C77     -C76     : 120.961531  H82     -C77     -C76     : 120.598541
 H82     -C77     -C78     : 118.421271  C77     -C78     -C73     : 118.683340
 H83     -C78     -C73     : 119.872413  H83     -C78     -C77     : 121.439081
 H29     -C6      -C7      : 113.905845  H30     -C6      -C7      : 112.097394
 H30     -C6      -H29     : 108.583557  H31     -C6      -C7      : 107.790769
 H31     -C6      -H29     : 107.204742  H31     -C6      -H30     : 106.912781
 C6      -C7      -P1      : 115.475387  C8      -C7      -P1      : 105.131506
 C8      -C7      -C6      : 107.349284  C9      -C7      -P1      : 110.000678
 C9      -C7      -C6      : 108.564406  C9      -C7      -C8      : 110.196301
 H32     -C8      -C7      : 111.802704  H33     -C8      -C7      : 109.149192
 H33     -C8      -H32     : 107.976431  H34     -C8      -C7      : 111.428683
 H34     -C8      -H32     : 108.381134  H34     -C8      -H33     : 107.969815
 H35     -C9      -C7      : 111.938215  H36     -C9      -C7      : 108.544158
 H36     -C9      -H35     : 107.190137  H37     -C9      -C7      : 112.627296
 H37     -C9      -H35     : 108.570077  H37     -C9      -H36     : 107.745552
 C11     -C10     -P1      : 107.861010  C12     -C10     -P1      : 106.637797
 C12     -C10     -C11     : 107.899294  C13     -C10     -P1      : 116.553664
 C13     -C10     -C11     : 108.087051  C13     -C10     -C12     : 109.503314
 H38     -C11     -C10     : 112.507504  H39     -C11     -C10     : 110.745216
 H39     -C11     -H38     : 108.258263  H40     -C11     -C10     : 109.262450
 H40     -C11     -H38     : 107.948460  H40     -C11     -H39     : 107.979231
 H41     -C12     -C10     : 111.063871  H42     -C12     -C10     : 112.790183
 H42     -C12     -H41     : 108.503218  H43     -C12     -C10     : 109.124621
 H43     -C12     -H41     : 107.308525  H43     -C12     -H42     : 107.855206
 H44     -C13     -C10     : 112.297204  H45     -C13     -C10     : 108.193465
 H45     -C13     -H44     : 107.066792  H46     -C13     -C10     : 113.550396
 H46     -C13     -H44     : 108.533926  H46     -C13     -H45     : 106.861121
 C15     -C14     -P1      : 117.949321  C16     -C14     -P1      : 122.076605
 C16     -C14     -C15     : 119.966833  C17     -C15     -C14     : 126.612203
 C23     -C15     -C14     : 120.771536  C23     -C15     -C17     : 112.371470
 H47     -C16     -C14     : 109.787380  H48     -C16     -C14     : 113.035562
 H48     -C16     -H47     : 106.752663  H49     -C16     -C14     : 112.094157
 H49     -C16     -H47     : 108.024618  H49     -C16     -H48     : 106.876708
 C18     -C17     -C15     : 120.405764  C22     -C17     -C15     : 118.139961
 C22     -C17     -C18     : 118.157674  C19     -C18     -C17     : 120.672473
 H50     -C18     -C17     : 118.834474  H50     -C18     -C19     : 120.452213
 C20     -C19     -C18     : 120.527359  H51     -C19     -C18     : 119.727330
 H51     -C19     -C20     : 119.742698  C21     -C20     -C19     : 119.847806
 H52     -C20     -C19     : 119.956445  H52     -C20     -C21     : 120.191144
 C22     -C21     -C20     : 120.163689  H53     -C21     -C20     : 120.403047
 H53     -C21     -C22     : 119.424509  C21     -C22     -C17     : 120.577861
 H54     -C22     -C17     : 118.921872  H54     -C22     -C21     : 119.889465
 C24     -C23     -C15     : 121.141727  C28     -C23     -C15     : 119.963443
 C28     -C23     -C24     : 118.836178  C25     -C24     -C23     : 120.504910
 H55     -C24     -C23     : 119.473058  H55     -C24     -C25     : 120.022015
 C26     -C25     -C24     : 120.201519  H56     -C25     -C24     : 119.739422
 H56     -C25     -C26     : 120.056386  C27     -C26     -C25     : 119.735573
 H57     -C26     -C25     : 120.139051  H57     -C26     -C27     : 120.122519
 C28     -C27     -C26     : 120.017584  H58     -C27     -C26     : 120.194413
 H58     -C27     -C28     : 119.787066  C27     -C28     -C23     : 120.686017
 H59     -C28     -C23     : 119.316070  H59     -C28     -C27     : 119.983143
 H119    -N118    -Pd2     : 103.409837  H120    -N118    -Pd2     :  99.702236
 H120    -N118    -H119    : 108.635216  C121    -N118    -Pd2     : 118.856783
 C121    -N118    -H119    : 113.258057  C121    -N118    -H120    : 111.725152
 C123    -C121    -N118    : 120.787076  C124    -C121    -N118    : 118.952235
 C124    -C121    -C123    : 120.177041  C126    -C122    -C125    : 119.466318
 H131    -C122    -C125    : 120.244579  H131    -C122    -C126    : 120.288524
 C126    -C123    -C121    : 119.745472  H127    -C123    -C121    : 119.999987
 H127    -C123    -C126    : 120.201911  C125    -C124    -C121    : 119.654426
 H128    -C124    -C121    : 119.160514  H128    -C124    -C125    : 121.160978
 C124    -C125    -C122    : 120.500549  H129    -C125    -C122    : 120.154666
 H129    -C125    -C124    : 119.343576  C123    -C126    -C122    : 120.455125
 H130    -C126    -C122    : 120.214803  H130    -C126    -C123    : 119.328351
 
  torsional angles:
 
 P1      -Pd2     -C76     -C75     :  85.773820
 P1      -Pd2     -C76     -C77     : -99.019380
 P1      -Pd2     -N118    -H119    :   7.364799
 P1      -Pd2     -N118    -H120    :-104.599404
 P1      -Pd2     -N118    -C121    : 133.868217
 P1      -C7      -C6      -H29     :  56.552522
 P1      -C7      -C6      -H30     : -67.240458
 P1      -C7      -C6      -H31     : 175.370534
 P1      -C7      -C8      -H32     : -62.706657
 P1      -C7      -C8      -H33     : 177.901526
 P1      -C7      -C8      -H34     :  58.749884
 P1      -C7      -C9      -H35     : -70.993592
 P1      -C7      -C9      -H36     : 170.895794
 P1      -C7      -C9      -H37     :  51.679096
 P1      -C10     -C11     -H38     :  60.807662
 P1      -C10     -C11     -H39     : -60.497422
 P1      -C10     -C11     -H40     :-179.314292
 P1      -C10     -C12     -H41     :  57.097466
 P1      -C10     -C12     -H42     : -64.955472
 P1      -C10     -C12     -H43     : 175.196556
 P1      -C10     -C13     -H44     : -62.591602
 P1      -C10     -C13     -H45     : 179.460415
 P1      -C10     -C13     -H46     :  61.016065
 P1      -C14     -C15     -C17     :  19.379020
 P1      -C14     -C15     -C23     :-166.753994
 P1      -C14     -C16     -H47     :-138.306125
 P1      -C14     -C16     -H48     : 102.625797
 P1      -C14     -C16     -H49     : -18.243276
 Pd2     -P1      -C7      -C6      : 164.343757
 Pd2     -P1      -C7      -C8      :  46.243720
 Pd2     -P1      -C7      -C9      : -72.377451
 Pd2     -P1      -C10     -C11     :  43.485809
 Pd2     -P1      -C10     -C12     : -72.192186
 Pd2     -P1      -C10     -C13     : 165.200299
 Pd2     -P1      -C14     -C15     :  -9.717758
 Pd2     -P1      -C14     -C16     : 171.262255
 Pd2     -C76     -C75     -C74     : 179.541743
 Pd2     -C76     -C75     -H14     :   0.909564
 Pd2     -C76     -C77     -C78     : 179.915385
 Pd2     -C76     -C77     -H82     :  -1.680645
 Pd2     -N118    -C121    -C123    : -98.748600
 Pd2     -N118    -C121    -C124    :  77.931494
 C73     -C74     -C75     -C76     :  -1.201093
 C73     -C74     -C75     -H14     : 177.463279
 C73     -C78     -C77     -C76     :   1.461041
 C73     -C78     -C77     -H82     :-176.976904
 C74     -C73     -C78     -C77     :   1.914037
 C74     -C73     -C78     -H83     :-177.271140
 C74     -C75     -C76     -C77     :   4.439939
 C75     -C74     -C73     -C78     :  -2.046790
 C75     -C74     -C73     -F79     : 179.241014
 C75     -C76     -Pd2     -N118    :-105.825230
 C75     -C76     -Pd2     -Br3     : -38.116599
 C75     -C76     -C77     -C78     :  -4.580440
 C75     -C76     -C77     -H82     : 173.823530
 C76     -Pd2     -P1      -C7      : -19.265304
 C76     -Pd2     -P1      -C10     :-149.429335
 C76     -Pd2     -P1      -C14     :  95.004561
 C76     -Pd2     -N118    -H119    : -81.585197
 C76     -Pd2     -N118    -H120    : 166.450600
 C76     -Pd2     -N118    -C121    :  44.918220
 C76     -C75     -C74     -H80     : 179.500900
 C76     -C77     -C78     -H83     :-179.367097
 C77     -C76     -Pd2     -N118    :  69.381570
 C77     -C76     -Pd2     -Br3     : 137.090201
 C77     -C76     -C75     -H14     :-174.192240
 C77     -C78     -C73     -F79     :-179.373364
 C78     -C73     -C74     -H80     : 177.262279
 F79     -C73     -C74     -H80     :  -1.449917
 F79     -C73     -C78     -H83     :   1.441459
 H80     -C74     -C75     -H14     :  -1.834728
 H82     -C77     -C78     -H83     :   2.194958
 C6      -C7      -P1      -C10     : -65.798234
 C6      -C7      -P1      -C14     :  48.279841
 C6      -C7      -C8      -H32     : 173.837918
 C6      -C7      -C8      -H33     :  54.446101
 C6      -C7      -C8      -H34     : -64.705541
 C6      -C7      -C9      -H35     :  56.242207
 C6      -C7      -C9      -H36     : -61.868407
 C6      -C7      -C9      -H37     : 178.914894
 C7      -P1      -Pd2     -N118    :-107.024026
 C7      -P1      -Pd2     -Br3     : 130.775321
 C7      -P1      -C10     -C11     : -89.541464
 C7      -P1      -C10     -C12     : 154.780541
 C7      -P1      -C10     -C13     :  32.173026
 C7      -P1      -C14     -C15     : 114.068493
 C7      -P1      -C14     -C16     : -64.951494
 C8      -C7      -P1      -C10     : 176.101729
 C8      -C7      -P1      -C14     : -69.820195
 C8      -C7      -C6      -H29     : 173.410345
 C8      -C7      -C6      -H30     :  49.617365
 C8      -C7      -C6      -H31     : -67.771643
 C8      -C7      -C9      -H35     : 173.546388
 C8      -C7      -C9      -H36     :  55.435774
 C8      -C7      -C9      -H37     : -63.780924
 C9      -C7      -P1      -C10     :  57.480559
 C9      -C7      -P1      -C14     : 171.558634
 C9      -C7      -C6      -H29     : -67.480992
 C9      -C7      -C6      -H30     : 168.726028
 C9      -C7      -C6      -H31     :  51.337020
 C9      -C7      -C8      -H32     :  55.782979
 C9      -C7      -C8      -H33     : -63.608838
 C9      -C7      -C8      -H34     : 177.239520
 C10     -P1      -Pd2     -N118    : 122.811943
 C10     -P1      -Pd2     -Br3     :   0.611290
 C10     -P1      -C14     -C15     :-128.228501
 C10     -P1      -C14     -C16     :  52.751513
 C11     -C10     -P1      -C14     : 158.733583
 C11     -C10     -C12     -H41     : -58.554826
 C11     -C10     -C12     -H42     : 179.392236
 C11     -C10     -C12     -H43     :  59.544264
 C11     -C10     -C13     -H44     :  59.003944
 C11     -C10     -C13     -H45     : -58.944039
 C11     -C10     -C13     -H46     :-177.388388
 C12     -C10     -P1      -C14     :  43.055588
 C12     -C10     -C11     -H38     : 175.654623
 C12     -C10     -C11     -H39     :  54.349540
 C12     -C10     -C11     -H40     : -64.467330
 C12     -C10     -C13     -H44     : 176.305825
 C12     -C10     -C13     -H45     :  58.357842
 C12     -C10     -C13     -H46     : -60.086507
 C13     -C10     -P1      -C14     : -79.551927
 C13     -C10     -C11     -H38     : -66.014336
 C13     -C10     -C11     -H39     : 172.680581
 C13     -C10     -C11     -H40     :  53.863711
 C13     -C10     -C12     -H41     :-175.974549
 C13     -C10     -C12     -H42     :  61.972513
 C13     -C10     -C12     -H43     : -57.875459
 C14     -P1      -Pd2     -N118    :   7.245840
 C14     -P1      -Pd2     -Br3     :-114.954814
 C14     -C15     -C17     -C18     :-132.130957
 C14     -C15     -C17     -C22     :  68.743618
 C14     -C15     -C23     -C24     :-122.221470
 C14     -C15     -C23     -C28     :  60.596262
 C15     -C14     -C16     -H47     :  42.693175
 C15     -C14     -C16     -H48     : -76.374902
 C15     -C14     -C16     -H49     : 162.756025
 C15     -C17     -C18     -C19     :-158.449185
 C15     -C17     -C18     -H50     :  19.236938
 C15     -C17     -C22     -C21     : 157.348963
 C15     -C17     -C22     -H54     : -13.681987
 C15     -C23     -C24     -C25     :-178.778820
 C15     -C23     -C24     -H55     :   1.174858
 C15     -C23     -C28     -C27     : 178.037996
 C15     -C23     -C28     -H59     :  -0.563789
 C16     -C14     -C15     -C17     :-161.579525
 C16     -C14     -C15     -C23     :  12.287461
 C17     -C15     -C23     -C24     :  52.457456
 C17     -C15     -C23     -C28     :-124.724812
 C17     -C18     -C19     -C20     :   1.368325
 C17     -C18     -C19     -H51     :-179.221255
 C17     -C22     -C21     -C20     :   1.803375
 C17     -C22     -C21     -H53     :-179.268513
 C18     -C17     -C15     -C23     :  53.566013
 C18     -C17     -C22     -C21     :  -2.251291
 C18     -C17     -C22     -H54     :-173.282241
 C18     -C19     -C20     -C21     :  -1.853629
 C18     -C19     -C20     -H52     : 178.925374
 C19     -C18     -C17     -C22     :   0.672625
 C19     -C20     -C21     -C22     :   0.265325
 C19     -C20     -C21     -H53     :-178.652201
 C20     -C19     -C18     -H50     :-176.280295
 C20     -C21     -C22     -H54     : 172.747830
 C21     -C20     -C19     -H51     : 178.736041
 C22     -C17     -C15     -C23     :-105.559411
 C22     -C17     -C18     -H50     : 178.358748
 C22     -C21     -C20     -H52     : 179.484472
 C23     -C24     -C25     -C26     :   1.210423
 C23     -C24     -C25     -H56     :-179.383878
 C23     -C28     -C27     -C26     :   0.342609
 C23     -C28     -C27     -H58     :-179.306080
 C24     -C23     -C28     -C27     :   0.790986
 C24     -C23     -C28     -H59     :-177.810799
 C24     -C25     -C26     -C27     :  -0.056200
 C24     -C25     -C26     -H57     : 179.329763
 C25     -C24     -C23     -C28     :  -1.565461
 C25     -C26     -C27     -C28     :  -0.715655
 C25     -C26     -C27     -H58     : 178.931588
 C26     -C25     -C24     -H55     :-178.743001
 C26     -C27     -C28     -H59     : 178.935094
 C27     -C26     -C25     -H56     :-179.460005
 C28     -C23     -C24     -H55     : 178.388217
 C28     -C27     -C26     -H57     : 179.898280
 H50     -C18     -C19     -H51     :   3.130126
 H51     -C19     -C20     -H52     :  -0.484956
 H52     -C20     -C21     -H53     :   0.566946
 H53     -C21     -C22     -H54     :  -8.324058
 H55     -C24     -C25     -H56     :   0.662698
 H56     -C25     -C26     -H57     :  -0.074043
 H57     -C26     -C27     -H58     :  -0.454477
 H58     -C27     -C28     -H59     :  -0.713594
 N118    -C121    -C123    -C126    : 176.661059
 N118    -C121    -C123    -H127    :  -0.706190
 N118    -C121    -C124    -C125    :-176.995538
 N118    -C121    -C124    -H128    :   1.240509
 H119    -N118    -Pd2     -Br3     : 131.433448
 H119    -N118    -C121    -C123    :  22.923436
 H119    -N118    -C121    -C124    :-160.396469
 H120    -N118    -Pd2     -Br3     :  19.469244
 H120    -N118    -C121    -C123    : 145.992975
 H120    -N118    -C121    -C124    : -37.326931
 C121    -N118    -Pd2     -Br3     :-102.063135
 C121    -C123    -C126    -C122    :   0.225139
 C121    -C123    -C126    -H130    :-179.298625
 C121    -C124    -C125    -C122    :   0.324738
 C121    -C124    -C125    -H129    : 179.925363
 C122    -C125    -C124    -H128    :-177.875139
 C122    -C126    -C123    -H127    : 177.587000
 C123    -C121    -C124    -C125    :  -0.294680
 C123    -C121    -C124    -H128    : 177.941368
 C123    -C126    -C122    -C125    :  -0.195826
 C123    -C126    -C122    -H131    :-179.919724
 C124    -C121    -C123    -C126    :   0.021516
 C124    -C121    -C123    -H127    :-177.345733
 C124    -C125    -C122    -C126    :  -0.080786
 C124    -C125    -C122    -H131    : 179.643235
 C125    -C122    -C126    -H130    : 179.323704
 C126    -C122    -C125    -H129    :-179.678167
 H127    -C123    -C126    -H130    :  -1.936764
 H128    -C124    -C125    -H129    :   1.725486
 H129    -C125    -C122    -H131    :   0.045855
 H130    -C126    -C122    -H131    :  -0.400194
 
  nuclear repulsion energy.......          5637.157392810 hartrees
  
  Detected an organometallic with only one TM atom. 
  
  Oxidation state on metal       2 is     2
  Formal multiplet on metal      2 is     1
  Formal charge on ligand        3 is    -1
  Formal multiplet on ligand     3 is     1
  Formal charge on ligand        5 is    -1
  Formal multiplet on ligand     5 is     1
  
 
  Will use High-Quality Initial guess for organometallics
       including d-d repulsion (iguess=30)
 
 Non-default options chosen:
   SCF calculation type: DFT(b3pw91-d3)              
   DFT=Becke_3_Parameter/HF+Slater+Becke88+PW91+PW-GGAIIC (B3PW91-D3)
   Geometry will be optimized in redundant internal coordinates
   Solvation energy will be computed using PBF
     -solute cavity energy will not be included
     -surface area terms will not be included
   Vibrational frequencies and related properties will be computed
      from analytic second derivatives
   IR intensities will be computed
   Thermochemical properties will be computed
   Maximum number of geometry steps: 100
   Scaling standard convergence criteria by a factor of   5.00
   Solvent: benzene                                                         
   Internal dielectric constant:    1.000
   Continuum dielectric constant:   2.283
   Solvent probe molecule radius:   2.600
  
 Non-default print settings:
     11=  2
  
 Temporary integer options set:
     21= -1  73=  2
  
  atom       vdw   vdw2    cov     mass  grid  daf  charge   basis
  P1        2.147  2.074  1.060   30.974    Y    Y      Y    ps_6-31g*
  Pd2       1.450  1.450  1.280  105.903    Y    Y      Y    lacv3p*
  C73       1.949  1.900  0.770   12.000    Y    Y      Y    ps_6-31g*
  C74       1.949  1.900  0.770   12.000    Y    Y      Y    ps_6-31g*
  C75       1.949  1.900  0.770   12.000    Y    Y      Y    ps_6-31g*
  C76       1.949  1.900  0.770   12.000    Y    Y      Y    ps_6-31g*
  C77       1.949  1.900  0.770   12.000    Y    Y      Y    ps_6-31g*
  C78       1.949  1.900  0.770   12.000    Y    Y      Y    ps_6-31g*
  F79       1.736  1.682  0.720   18.998    Y    Y      Y    ps_6-31g*
  H80       1.597  1.150  0.320    1.008    Y    Y      Y    ps_6-31g*
  H82       1.597  1.150  0.320    1.008    Y    Y      Y    ps_6-31g*
  H83       1.597  1.150  0.320    1.008    Y    Y      Y    ps_6-31g*
  H14       1.597  1.150  0.320    1.008    Y    Y      Y    ps_6-31g*
  C6        1.949  1.900  0.770   12.000    Y    Y      Y    ps_6-31g*
  C7        1.949  1.900  0.770   12.000    Y    Y      Y    ps_6-31g*
  C8        1.949  1.900  0.770   12.000    Y    Y      Y    ps_6-31g*
  C9        1.949  1.900  0.770   12.000    Y    Y      Y    ps_6-31g*
  C10       1.949  1.900  0.770   12.000    Y    Y      Y    ps_6-31g*
  C11       1.949  1.900  0.770   12.000    Y    Y      Y    ps_6-31g*
  C12       1.949  1.900  0.770   12.000    Y    Y      Y    ps_6-31g*
  C13       1.949  1.900  0.770   12.000    Y    Y      Y    ps_6-31g*
  C14       1.949  1.900  0.770   12.000    Y    Y      Y    ps_6-31g*
  C15       1.949  1.900  0.770   12.000    Y    Y      Y    ps_6-31g*
  C16       1.949  1.900  0.770   12.000    Y    Y      Y    ps_6-31g*
  C17       1.949  1.900  0.770   12.000    Y    Y      Y    ps_6-31g*
  C18       1.949  1.900  0.770   12.000    Y    Y      Y    ps_6-31g*
  C19       1.949  1.900  0.770   12.000    Y    Y      Y    ps_6-31g*
  C20       1.949  1.900  0.770   12.000    Y    Y      Y    ps_6-31g*
  C21       1.949  1.900  0.770   12.000    Y    Y      Y    ps_6-31g*
  C22       1.949  1.900  0.770   12.000    Y    Y      Y    ps_6-31g*
  C23       1.949  1.900  0.770   12.000    Y    Y      Y    ps_6-31g*
  C24       1.949  1.900  0.770   12.000    Y    Y      Y    ps_6-31g*
  C25       1.949  1.900  0.770   12.000    Y    Y      Y    ps_6-31g*
  C26       1.949  1.900  0.770   12.000    Y    Y      Y    ps_6-31g*
  C27       1.949  1.900  0.770   12.000    Y    Y      Y    ps_6-31g*
  C28       1.949  1.900  0.770   12.000    Y    Y      Y    ps_6-31g*
  H29       1.597  1.150  0.320    1.008    Y    Y      Y    ps_6-31g*
  H30       1.597  1.150  0.320    1.008    Y    Y      Y    ps_6-31g*
  H31       1.597  1.150  0.320    1.008    Y    Y      Y    ps_6-31g*
  H32       1.597  1.150  0.320    1.008    Y    Y      Y    ps_6-31g*
  H33       1.597  1.150  0.320    1.008    Y    Y      Y    ps_6-31g*
  H34       1.597  1.150  0.320    1.008    Y    Y      Y    ps_6-31g*
  H35       1.597  1.150  0.320    1.008    Y    Y      Y    ps_6-31g*
  H36       1.597  1.150  0.320    1.008    Y    Y      Y    ps_6-31g*
  H37       1.597  1.150  0.320    1.008    Y    Y      Y    ps_6-31g*
  H38       1.597  1.150  0.320    1.008    Y    Y      Y    ps_6-31g*
  H39       1.597  1.150  0.320    1.008    Y    Y      Y    ps_6-31g*
  H40       1.597  1.150  0.320    1.008    Y    Y      Y    ps_6-31g*
  H41       1.597  1.150  0.320    1.008    Y    Y      Y    ps_6-31g*
  H42       1.597  1.150  0.320    1.008    Y    Y      Y    ps_6-31g*
  H43       1.597  1.150  0.320    1.008    Y    Y      Y    ps_6-31g*
  H44       1.597  1.150  0.320    1.008    Y    Y      Y    ps_6-31g*
  H45       1.597  1.150  0.320    1.008    Y    Y      Y    ps_6-31g*
  H46       1.597  1.150  0.320    1.008    Y    Y      Y    ps_6-31g*
  H47       1.597  1.150  0.320    1.008    Y    Y      Y    ps_6-31g*
  H48       1.597  1.150  0.320    1.008    Y    Y      Y    ps_6-31g*
  H49       1.597  1.150  0.320    1.008    Y    Y      Y    ps_6-31g*
  H50       1.597  1.150  0.320    1.008    Y    Y      Y    ps_6-31g*
  H51       1.597  1.150  0.320    1.008    Y    Y      Y    ps_6-31g*
  H52       1.597  1.150  0.320    1.008    Y    Y      Y    ps_6-31g*
  H53       1.597  1.150  0.320    1.008    Y    Y      Y    ps_6-31g*
  H54       1.597  1.150  0.320    1.008    Y    Y      Y    ps_6-31g*
  H55       1.597  1.150  0.320    1.008    Y    Y      Y    ps_6-31g*
  H56       1.597  1.150  0.320    1.008    Y    Y      Y    ps_6-31g*
  H57       1.597  1.150  0.320    1.008    Y    Y      Y    ps_6-31g*
  H58       1.597  1.150  0.320    1.008    Y    Y      Y    ps_6-31g*
  H59       1.597  1.150  0.320    1.008    Y    Y      Y    ps_6-31g*
  N118      1.831  1.600  0.750   14.003    Y    Y      Y    ps_6-31g*
  H119      1.597  1.150  0.320    1.008    Y    Y      Y    ps_6-31g*
  H120      1.597  1.150  0.320    1.008    Y    Y      Y    ps_6-31g*
  C121      1.949  1.900  0.770   12.000    Y    Y      Y    ps_6-31g*
  C122      1.949  1.900  0.770   12.000    Y    Y      Y    ps_6-31g*
  C123      1.949  1.900  0.770   12.000    Y    Y      Y    ps_6-31g*
  C124      1.949  1.900  0.770   12.000    Y    Y      Y    ps_6-31g*
  C125      1.949  1.900  0.770   12.000    Y    Y      Y    ps_6-31g*
  C126      1.949  1.900  0.770   12.000    Y    Y      Y    ps_6-31g*
  H127      1.597  1.150  0.320    1.008    Y    Y      Y    ps_6-31g*
  H128      1.597  1.150  0.320    1.008    Y    Y      Y    ps_6-31g*
  H129      1.597  1.150  0.320    1.008    Y    Y      Y    ps_6-31g*
  H130      1.597  1.150  0.320    1.008    Y    Y      Y    ps_6-31g*
  H131      1.597  1.150  0.320    1.008    Y    Y      Y    ps_6-31g*
  Br3       2.095  2.095  1.140   78.918    Y    Y      Y    lav3p*
 
  atom      formal  2spin      esp    mulk    frag
  P1           0       0        Y    0.000       0
  Pd2          2       0        Y    0.000       0
  C73         -1       0        Y    0.000       0
  N118         0       0        Y    0.000       0
  Br3         -1       0        Y    0.000       0
  
  end of program pre
   
 Time(pre)  user:       4.769  user+sys:       4.769  wallclock:       2.650
  
  start of program onee
  
  smallest eigenvalue of S:    4.385E-04
  number of canonical orbitals.....          656
  end of program onee
   
 Time(onee)  user:      10.885  user+sys:      10.885  wallclock:       1.844
  
  start of program hfig
  
  initial wavefunction generated automatically from atomic wavefunctions
  Only one state below 0.010000
  Skip d-d repulsion considerations 
 
  Irreducible     Total no   No of occupied orbitals 
  representation  orbitals   Shell_1  Shell_2    ...
  No Symm          656        154
  ------------------------
  Orbital occupation/shell    1.000
 
  end of program hfig
   
 Time(hfig)  user:       2.342  user+sys:       2.342  wallclock:       1.090
  
  start of program probe
  
  end of program probe
   
 Time(probe)  user:       1.302  user+sys:       1.302  wallclock:       0.460
  
  start of program grid
  
   grid     grid set  grid #  grid sym
  ------    --------  ------  --------
  coarse        0        0        1
  medium        2        1        1
  fine          0        0        1
  ultrafine     4        2        1
  charge       -1        3        1
  gradient      4        2        1
  density       0        0        1
  DFT-fine    -11        4        1
  DFT-med.    -10        5        1
  DFT-grad    -12        6        1
  DFT-der2     -8        7        1
  DFT-cphf     -9        8        1
  LMP2-enrg     4        2        1
  LMP2-grad     2        1        1
  DFT-cphf2   -15        9        1
  PBF-dens      0        0        1
  plotting      0        0        1
  Rel-grad    -17        0        1
  
  number of gridpoints: 
     atom           P1         Pd2         C73         C74         C75         C76         C77
  grid # 1         609         347          78          92          93          97          94
  grid # 2         426         296         328         318         308         370         319
  grid # 3           6         205          23          14           9           6           6
  grid # 4        8714        8714        8714        8714        8714        8714        8714
  grid # 5        1192        1192        1192        1192        1192        1192        1192
  grid # 6        9132        9132        5922        5922        5922        5922        5922
  grid # 7       23034       32968       13950       13950       13950       13950       13950
  grid # 8         722        1150         748         748         748         748         748
  grid # 9         366        2198         394         394         394         394         394
   
  number of gridpoints: 
     atom          C78         F79         H80         H82         H83         H14          C6
  grid # 1          92         583         113          90         114         111          81
  grid # 2         317         565         463         379         459         448         236
  grid # 3          12         341         376          26         360         205           6
  grid # 4        8714        8714        8714        8714        8714        8714        8714
  grid # 5        1192        1192        1192        1192        1192        1192        1192
  grid # 6        5922        5922        5922        5922        5922        5922        5922
  grid # 7       13950       23190       15206       15206       15206       15206       13950
  grid # 8         748         770         786         786         786         786         748
  grid # 9         394         420         420         420         420         420         394
   
  number of gridpoints: 
     atom           C7          C8          C9         C10         C11         C12         C13
  grid # 1          87          78          79          87          81          79          81
  grid # 2         370         240         242         365         235         240         234
  grid # 3           6           6           6           6           6           6           6
  grid # 4        8714        8714        8714        8714        8714        8714        8714
  grid # 5        1192        1192        1192        1192        1192        1192        1192
  grid # 6        5922        5922        5922        5922        5922        5922        5922
  grid # 7       13950       13950       13950       13950       13950       13950       13950
  grid # 8         748         748         748         748         748         748         748
  grid # 9         394         394         394         394         394         394         394
   
  number of gridpoints: 
     atom          C14         C15         C16         C17         C18         C19         C20
  grid # 1          86          98          79          99          92          93          93
  grid # 2         385         358         242         355         299         309         308
  grid # 3           6           9           6           7          12          19          19
  grid # 4        8714        8714        8714        8714        8714        8714        8714
  grid # 5        1192        1192        1192        1192        1192        1192        1192
  grid # 6        5922        5922        5922        5922        5922        5922        5922
  grid # 7       13950       13950       13950       13950       13950       13950       13950
  grid # 8         748         748         748         748         748         748         748
  grid # 9         394         394         394         394         394         394         394
   
  number of gridpoints: 
     atom          C21         C22         C23         C24         C25         C26         C27
  grid # 1          94          94         100          95          97          97          97
  grid # 2         319         319         360         326         324         324         324
  grid # 3          15           7          12          27          46          50          42
  grid # 4        8714        8714        8714        8714        8714        8714        8714
  grid # 5        1192        1192        1192        1192        1192        1192        1192
  grid # 6        5922        5922        5922        5922        5922        5922        5922
  grid # 7       13950       13950       13950       13950       13950       13950       13950
  grid # 8         748         748         748         748         748         748         748
  grid # 9         394         394         394         394         394         394         394
   
  number of gridpoints: 
     atom          C28         H29         H30         H31         H32         H33         H34
  grid # 1          95         102         101         109          93         108         104
  grid # 2         325         425         423         446         404         447         432
  grid # 3          22         142         145         262          27         243         110
  grid # 4        8714        8714        8714        8714        8714        8714        8714
  grid # 5        1192        1192        1192        1192        1192        1192        1192
  grid # 6        5922        5922        5922        5922        5922        5922        5922
  grid # 7       13950       15206       15206       15206       15206       15206       15206
  grid # 8         748         786         786         786         786         786         786
  grid # 9         394         420         420         420         420         420         420
   
  number of gridpoints: 
     atom          H35         H36         H37         H38         H39         H40         H41
  grid # 1         102         109         102         105          90         109          98
  grid # 2         429         446         431         437         424         446         422
  grid # 3         159         260         116         179          67         264          92
  grid # 4        8714        8714        8714        8714        8714        8714        8714
  grid # 5        1192        1192        1192        1192        1192        1192        1192
  grid # 6        5922        5922        5922        5922        5922        5922        5922
  grid # 7       15206       15206       15206       15206       15206       15206       15206
  grid # 8         786         786         786         786         786         786         786
  grid # 9         420         420         420         420         420         420         420
   
  number of gridpoints: 
     atom          H42         H43         H44         H45         H46         H47         H48
  grid # 1         104         108         100         109         101         108         105
  grid # 2         436         447         428         446         425         448         427
  grid # 3         171         272         156         265         153         265         166
  grid # 4        8714        8714        8714        8714        8714        8714        8714
  grid # 5        1192        1192        1192        1192        1192        1192        1192
  grid # 6        5922        5922        5922        5922        5922        5922        5922
  grid # 7       15206       15206       15206       15206       15206       15206       15206
  grid # 8         786         786         786         786         786         786         786
  grid # 9         420         420         420         420         420         420         420
   
  number of gridpoints: 
     atom          H49         H50         H51         H52         H53         H54         H55
  grid # 1          99         100         115         117         117         106         111
  grid # 2         413         414         457         466         460         433         453
  grid # 3         105         175         310         380         334         134         275
  grid # 4        8714        8714        8714        8714        8714        8714        8714
  grid # 5        1192        1192        1192        1192        1192        1192        1192
  grid # 6        5922        5922        5922        5922        5922        5922        5922
  grid # 7       15206       15206       15206       15206       15206       15206       15206
  grid # 8         786         786         786         786         786         786         786
  grid # 9         420         420         420         420         420         420         420
   
  number of gridpoints: 
     atom          H56         H57         H58         H59        N118        H119        H120
  grid # 1         118         118         118         111         100          94         100
  grid # 2         467         467         467         443         310         391         416
  grid # 3         420         420         418         190           6          30         121
  grid # 4        8714        8714        8714        8714        8714        8714        8714
  grid # 5        1192        1192        1192        1192        1192        1192        1192
  grid # 6        5922        5922        5922        5922        5922        5922        5922
  grid # 7       15206       15206       15206       15206       13958       15206       15206
  grid # 8         786         786         786         786         756         786         786
  grid # 9         420         420         420         420         406         420         420
   
  number of gridpoints: 
     atom         C121        C122        C123        C124        C125        C126        H127
  grid # 1          97          96          96          96          96          96         109
  grid # 2         351         325         322         324         326         325         437
  grid # 3          29          42          34          35          41          38         151
  grid # 4        8714        8714        8714        8714        8714        8714        8714
  grid # 5        1192        1192        1192        1192        1192        1192        1192
  grid # 6        5922        5922        5922        5922        5922        5922        5922
  grid # 7       13950       13950       13950       13950       13950       13950       15206
  grid # 8         748         748         748         748         748         748         786
  grid # 9         394         394         394         394         394         394         420
   
  number of gridpoints: 
     atom         H128        H129        H130        H131         Br3       total
  grid # 1         111         118         117         118         489        9805
  grid # 2         451         466         465         466         457       31476
  grid # 3         237         414         376         413         237       10815
  grid # 4        8714        8714        8714        8714        8714      714548
  grid # 5        1192        1192        1192        1192        1192       97744
  grid # 6        5922        5922        5922        5922        9132      495234
  grid # 7       15206       15206       15206       15206       11582     1231634
  grid # 8         786         786         786         786         694       63284
  grid # 9         420         420         420         420         358       35178
   
  end of program grid
   
 Time(grid)  user:     394.351  user+sys:     394.351  wallclock:      27.119
  
  start of program rwr
  
  end of program rwr
   
 Time(rwr)  user:      41.197  user+sys:      41.197  wallclock:      12.485
  
  start of program scf
  
 number of electrons..........        308
 number of alpha electrons....        154
 number of beta electrons.....        154
 number of orbitals, total....        656
 number of doubly-occ'd orbs..        154
 number of open shell orbs....          0
 number of occupied orbitals..        154
 number of virtual orbitals...        502
 number of hamiltonians.......          1
 number of shells.............          1
 SCF type: DFT=Becke_3_Parameter/HF+Slater+Becke88+PW91+PW-GGAIIC (B3PW91-D3)
 Energy computed using pseudospectral method.
 Convergence Criterion:
    Energy (econv):       1.00E-05
    RMS density (dconv):  5.00E-06
  
       i  u  d  i  g                   
       t  p  i  c  r                                 RMS    maximum
       e  d  i  u  i                       energy  density   DIIS  
       r  t  s  t  d       total energy    change  change    error 
  
etot    1  N  N  5  M   -1989.35145554643           2.0E-03  2.0E-01
etot    2  Y  Y  6  M   -1992.67739409243  3.3E+00  3.3E-03  1.2E-01
etot    3  Y  Y  6  M   -1993.73531233630  1.1E+00  1.5E-03  6.3E-02
etot    4  N  Y  2  U   -1994.00699957882  2.7E-01  8.7E-04  4.0E-02
etot    5  Y  Y  6  M   -1994.20384597075  2.0E-01  4.9E-04  2.6E-02
etot    6  N  Y  2  U   -1994.22413712059  2.0E-02  7.7E-04  1.6E-02
etot    7  Y  Y  6  M   -1994.22205864136 -2.1E-03  1.8E-04  6.1E-03
etot    8  Y  Y  6  M   -1994.23265058786  1.1E-02  6.2E-05  1.8E-03
etot    9  N  Y  2  U   -1994.23513319571  2.5E-03  1.6E-05  2.3E-04
etot   10  N  Y  2  U   -1994.23515386116  2.1E-05  4.8E-06  1.1E-04
etot   11  N  N  2  U   -1994.23515689161  3.0E-06  0.0E+00  0.0E+00
 
  Computing the dispersion energy correction and its gradients...
  
  
 Energy components, in hartrees:
   (A)  Nuclear repulsion............    5637.15739280960
   (E)  Total one-electron terms.....  -14000.48662633042
   (F)    Electron-nuclear...........  -15895.39390808433
   (H)    Kinetic....................    1894.90728175391
   (I)  Total two-electron terms.....    6369.09407662922
   (J)    Coulomb....................    6630.52520199265
   (K)    Exchange+Correlation.......    -261.43112536343
   (L)  Electronic energy............   -7631.39254970121  (E+I)
   (N0) D3 correction................      -0.17006517121
   (N)  Total energy.................   -1994.40522206282  (A+L+N0)
   (O)  Gas phase energy.............   -1994.40522206282
  
 SCFE: SCF energy: DFT(b3pw91-d3)     -1994.40522206282 hartrees   iterations:  11
  
 
 HOMO energy:    -0.19153
 LUMO energy:    -0.06005
 
  Orbital energies (hartrees): 
   -77.08466   -24.67930   -14.34990   -10.24574   -10.21485   -10.20939
   -10.20597   -10.20411   -10.20338   -10.19899   -10.19894   -10.19794
   -10.19650   -10.19495   -10.19323   -10.18882   -10.18784   -10.18764
   -10.18731   -10.18723   -10.18664   -10.17675   -10.17379   -10.17255
   -10.17018   -10.16782   -10.16626   -10.16470   -10.16428   -10.16331
   -10.16268   -10.16204   -10.16129   -10.15859   -10.15355   -10.15330
   -10.13780   -10.12006    -6.58439    -4.74231    -4.74162    -4.73977
    -3.34500    -2.07774    -2.07461    -2.04410    -1.21146    -0.93887
    -0.89838    -0.87652    -0.85868    -0.84327    -0.83816    -0.82449
    -0.81069    -0.78716    -0.77883    -0.76349    -0.76200    -0.75065
    -0.74242    -0.73790    -0.72761    -0.70845    -0.69602    -0.69533
    -0.68519    -0.67930    -0.66422    -0.65440    -0.64881    -0.62855
    -0.62032    -0.61659    -0.61155    -0.60671    -0.59916    -0.59551
    -0.56384    -0.55448    -0.55237    -0.53683    -0.52674    -0.52415
    -0.51723    -0.51016    -0.48803    -0.48183    -0.47972    -0.47715
    -0.47668    -0.47010    -0.46655    -0.46304    -0.46189    -0.45670
    -0.45387    -0.45257    -0.44637    -0.44445    -0.43856    -0.43685
    -0.43301    -0.43225    -0.43014    -0.42760    -0.42571    -0.41901
    -0.41659    -0.41312    -0.41172    -0.40516    -0.39541    -0.39094
    -0.39012    -0.38705    -0.38157    -0.38116    -0.37683    -0.37413
    -0.37127    -0.36815    -0.36317    -0.36175    -0.35694    -0.35457
    -0.35040    -0.34912    -0.34461    -0.33932    -0.33514    -0.33380
    -0.32898    -0.32770    -0.31640    -0.31547    -0.30914    -0.30332
    -0.29712    -0.29028    -0.28416    -0.27813    -0.26894    -0.26769
    -0.25642    -0.25200    -0.24578    -0.24493    -0.22952    -0.22416
    -0.22023    -0.20956    -0.19913    -0.19153    -0.06005    -0.05758
    -0.03688    -0.03005    -0.01811    -0.00831     0.00534     0.00766
     0.01379     0.01572
 
  end of program scf
   
 Time(scf)  user:     525.092  user+sys:     525.092  wallclock:      50.393
  
  start of program der1a
  
  end of program der1a
   
 Time(der1a)  user:      31.127  user+sys:      31.127  wallclock:       2.703
  
  start of program rwr
  
  end of program rwr
   
 Time(rwr)  user:      37.807  user+sys:      37.807  wallclock:      15.485
  
  start of program der1b
  
   
  forces (hartrees/bohr) : total     
   
 atom  label           x              y              z
 ---- --------   -------------  -------------  -------------
    1 P1         -1.907467E-03   6.956130E-03   1.269196E-03
    2 Pd2        -5.037417E-03   1.402523E-02   1.710472E-04
    3 C73         3.785309E-03  -1.527390E-04  -4.160424E-04
    4 C74        -2.006811E-03   1.893147E-03   4.156640E-03
    5 C75        -1.130427E-03   6.436776E-03   1.574557E-02
    6 C76         2.431130E-05  -1.497942E-02   1.406096E-02
    7 C77         2.187764E-02   3.006315E-02   5.275342E-03
    8 C78        -3.091510E-03  -6.474210E-05  -2.083088E-04
    9 F79        -2.417516E-03   2.561971E-04  -4.345713E-04
   10 H80        -1.481397E-04  -7.301366E-04  -6.211257E-05
   11 H82         2.645814E-02   4.401188E-02   3.075765E-03
   12 H83         1.486856E-03  -3.139357E-04   1.580957E-04
   13 H14        -1.827089E-03   1.822158E-03  -2.430064E-03
   14 C6         -1.355920E-03   1.295076E-03  -6.540585E-04
   15 C7          2.026788E-03  -3.102881E-03  -1.713662E-04
   16 C8          4.784788E-03   9.149821E-04  -1.149276E-02
   17 C9         -1.016124E-03  -1.411716E-03  -8.364182E-04
   18 C10        -1.689708E-03   3.046782E-03  -6.208675E-04
   19 C11         5.681022E-03   3.763964E-03  -1.079164E-02
   20 C12         3.392087E-04  -2.402443E-03   5.201352E-04
   21 C13         1.269430E-03  -2.281463E-03  -8.155879E-04
   22 C14         1.104594E-03  -9.472871E-04   3.097134E-03
   23 C15         8.071625E-04   2.543944E-04  -8.890958E-04
   24 C16        -9.745505E-05   3.702127E-04   2.742884E-04
   25 C17        -1.339411E-03  -5.594216E-03  -1.228026E-03
   26 C18        -2.823571E-02  -3.989117E-02  -1.198393E-02
   27 C19        -2.727452E-03  -1.591817E-02   6.168412E-03
   28 C20        -1.936865E-03  -1.474167E-02   6.484663E-04
   29 C21        -6.998213E-03  -2.362551E-03  -6.870909E-03
   30 C22        -2.616884E-03  -8.408483E-03   3.711641E-03
   31 C23         3.800670E-05  -9.117824E-04   3.004686E-04
   32 C24         3.043370E-05  -7.322128E-04  -3.400743E-04
   33 C25         4.403258E-04   1.882937E-04  -2.632255E-04
   34 C26        -5.429965E-05   7.225627E-04   1.643306E-04
   35 C27        -6.756148E-04  -1.260704E-04   4.156799E-04
   36 C28         3.451242E-04  -4.726355E-04   2.233899E-04
   37 H29        -3.198459E-04  -1.297962E-05  -5.032179E-04
   38 H30         1.787985E-04   3.191080E-04   4.104688E-04
   39 H31        -1.058644E-04  -3.389646E-04   1.955687E-04
   40 H32         3.561184E-03  -4.943617E-03  -2.528107E-02
   41 H33        -1.708707E-04  -4.459817E-04  -2.262959E-03
   42 H34        -8.270758E-05   3.092831E-05  -8.133939E-05
   43 H35        -1.416890E-04   5.181467E-05   9.832145E-04
   44 H36         1.720554E-04  -1.758037E-04   8.015800E-04
   45 H37        -1.292823E-03   4.461783E-06   2.130569E-03
   46 H38         1.532510E-03   1.612642E-03  -1.986793E-03
   47 H39         2.668033E-03   9.403354E-03  -1.965543E-02
   48 H40        -7.923540E-05  -1.641905E-04  -7.575249E-04
   49 H41        -9.418565E-04   1.748042E-03  -8.759601E-04
   50 H42        -3.179084E-05  -2.260831E-04  -1.368781E-03
   51 H43         6.107256E-04   1.251277E-04   6.050245E-04
   52 H44        -1.235514E-04   3.146209E-05   2.490343E-05
   53 H45         5.178003E-04  -2.698594E-04   6.923537E-04
   54 H46         1.362080E-04  -3.213165E-04  -1.278551E-03
   55 H47         1.204433E-04   1.504325E-04   1.445775E-04
   56 H48         4.089111E-05  -6.155384E-05   4.451566E-04
   57 H49         1.408633E-05   1.183425E-04   4.709804E-04
   58 H50        -1.700219E-02  -3.084067E-02  -6.969143E-03
   59 H51         1.154447E-04  -6.039427E-04   1.069133E-05
   60 H52         4.847017E-04  -9.199069E-05   3.307432E-04
   61 H53         1.205896E-04   5.461714E-05  -8.175091E-04
   62 H54         9.745091E-04   1.900189E-03   8.993861E-04
   63 H55         4.536458E-04   2.652668E-04  -1.012648E-04
   64 H56         2.898424E-04   4.256551E-04  -2.386177E-04
   65 H57        -1.310980E-04   5.029563E-04   1.153037E-04
   66 H58        -5.177608E-04   1.136687E-04   2.876479E-04
   67 H59        -4.611634E-04   3.807760E-04   1.474891E-04
   68 N118        6.157006E-03   2.510093E-02   5.963770E-04
   69 H119        3.609124E-03   1.056334E-02   4.638877E-03
   70 H120        1.496186E-04   1.861694E-03  -1.550806E-04
   71 C121       -1.024942E-03   2.762383E-03  -1.319908E-04
   72 C122       -2.971322E-04  -1.665229E-04  -3.763702E-04
   73 C123       -7.477529E-05  -1.495279E-04   2.029133E-03
   74 C124        5.077180E-04   2.821131E-04   8.707234E-04
   75 C125        5.629268E-05  -6.313780E-04   5.940350E-05
   76 C126       -4.785835E-04  -5.671616E-05  -2.049175E-05
   77 H127       -8.551392E-04   3.493302E-04   1.333926E-03
   78 H128        1.078093E-04  -2.185837E-04  -3.263964E-04
   79 H129        1.888528E-04  -5.097425E-04  -1.229989E-04
   80 H130       -2.965004E-04   1.232276E-04  -1.877925E-04
   81 H131       -1.910796E-04  -3.227629E-04  -3.206377E-04
   82 Br3        -4.859925E-03  -1.936029E-02   3.375726E-02
 -------------   -------------  -------------  -------------
     total       -2.523537E-03  -1.155412E-03  -2.911072E-03
   
  end of program der1b
   
 Time(der1b)  user:     196.322  user+sys:     196.322  wallclock:      17.187
  
  start of program geopt
  
 ----------------------------------------------------------------------------
  Geometry optimization step  1
  Total energy:     -1994.40522206282 hartrees
 ----------------------------------------------------------------------------
  
  
  Level shifts adjusted to satisfy step-size constraints
   Step size:    0.3005875
   Cos(theta):   0.5515096
   Final level shift:  -3.3432130E-01
  
  gradient maximum:        5.8421E-01 .  (  2.2500E-03 )
  gradient rms:            7.4891E-02 .  (  1.5000E-03 )
  displacement maximum:    9.0800E-02 .  (  9.0000E-03 )
  displacement rms:        1.6337E-02 .  (  6.0000E-03 )
  
  predicted energy change:  -1.1441E-01
  step size:     0.27142
  trust radius:  0.30000
  
  molecular structure not yet converged...
  
  center of mass moved by:
     x:     6.9224E-03     y:    -1.7250E-02     z:     1.0132E-01
  
  new geometry: 
                                   angstroms
  atom               x                 y                 z
  P1            0.0202841196      0.0041835190      0.0170785528 
  Pd2           0.0419782370      0.0657527496      2.3830188128 
  C73           4.7587839560      0.2002965358      3.0864823364 
  C74           4.1209355967      1.4114210772      2.8570100754 
  C75           2.7414870176      1.4145154215      2.6430687130 
  C76           2.0248770840      0.2176448737      2.6372310411 
  C77           2.6763586570     -0.9681853112      2.9349942645 
  C78           4.0549806561     -0.9954098775      3.1490667438 
  F79           6.0951875455      0.1876202603      3.2781100443 
  H80           4.6967172793      2.3327469204      2.8578411514 
  H82           2.0692661749     -1.8771652552      3.0205902554 
  H83           4.5814915498     -1.9198234307      3.3744224160 
  H14           2.2398099720      2.3652305164      2.4995620714 
  C6            1.5199201836      0.2887017057     -2.4713936511 
  C7            1.5329217283      0.6273685471     -0.9710808296 
  C8            2.7603172165     -0.0929794839     -0.4048581210 
  C9            1.6663544663      2.1458293454     -0.7882837516 
  C10          -1.4998551146      0.8498409809     -0.7836211344 
  C11          -1.6855358758      2.2343477334     -0.1479322344 
  C12          -2.7236537083     -0.0051617541     -0.4173583996 
  C13          -1.4457213194      1.0282753920     -2.3082645894 
  C14          -0.0668592064     -1.7689349992     -0.4989095494 
  C15           0.0826309885     -2.7709720782      0.4060825801 
  C16          -0.2963824505     -2.1524994147     -1.9477942432 
  C17          -0.0338966042     -2.6944400878      1.8895894988 
  C18           0.9403892460     -3.3257881657      2.7027247990 
  C19           0.6413011510     -3.6571334269      4.0177461704 
  C20          -0.6374084260     -3.4259746045      4.5367851457 
  C21          -1.6125512190     -2.8168747267      3.7580663904 
  C22          -1.3079550795     -2.4292119553      2.4479300438 
  C23           0.2427633687     -4.1794527249     -0.0522018358 
  C24          -0.6490255254     -5.1818045110      0.3506279375 
  C25          -0.4606878462     -6.4995932319     -0.0571743957 
  C26           0.6372339874     -6.8390864940     -0.8486666808 
  C27           1.5388901527     -5.8497790779     -1.2402654998 
  C28           1.3410717181     -4.5295282768     -0.8470265936 
  H29           0.6359096225      0.6493093604     -3.0001356329 
  H30           1.6194804154     -0.7836792593     -2.6498019399 
  H31           2.3931115609      0.7707420446     -2.9316150037 
  H32           2.9216135065      0.1607644575      0.6416461592 
  H33           3.6476015503      0.2092681596     -0.9782561457 
  H34           2.6597936736     -1.1817500362     -0.4882502494 
  H35           0.8779401386      2.6932082696     -1.3147424064 
  H36           2.6265263706      2.4661628975     -1.2137992696 
  H37           1.6509626749      2.4423263999      0.2622049151 
  H38          -0.8179811978      2.8840611546     -0.3050123138 
  H39          -1.8668257749      2.1544275885      0.9314480290 
  H40          -2.5603482850      2.7222814221     -0.5988306845 
  H41          -2.8245801191     -0.1026186357      0.6681358324 
  H42          -2.6868492654     -1.0077467127     -0.8579498690 
  H43          -3.6309412591      0.4912959130     -0.7851310377 
  H44          -0.6226320456      1.6768188581     -2.6209427331 
  H45          -2.3780302072      1.5126832468     -2.6280158795 
  H46          -1.3725587765      0.0860531356     -2.8589177752 
  H47          -1.0029577621     -2.9883615030     -2.0023241684 
  H48           0.6175191550     -2.4782307612     -2.4529989529 
  H49          -0.7043517394     -1.3264337931     -2.5294595505 
  H50           1.8735849029     -3.6327001347      2.2527452063 
  H51           1.3983872224     -4.1285754459      4.6402945545 
  H52          -0.8624966537     -3.7096786280      5.5614182879 
  H53          -2.6000890083     -2.6170109089      4.1636674296 
  H54          -2.0969901258     -2.0601444972      1.8010291922 
  H55          -1.4873813374     -4.9240601298      0.9931926696 
  H56          -1.1660435430     -7.2667173394      0.2543059272 
  H57           0.7907368845     -7.8710658525     -1.1557986701 
  H58           2.4057499653     -6.1083533698     -1.8442619769 
  H59           2.0581387602     -3.7620798379     -1.1301811327 
  N118          0.0849581080     -0.3126298503      4.5353156553 
  H119          0.3037322260     -1.3186108090      4.5995385774 
  H120         -0.9034874335     -0.1768599045      4.7491944884 
  C121          0.9050097439      0.5004757559      5.3735825727 
  C122          2.5393551186      2.1727314294      6.8997868162 
  C123          2.1530658116      0.0517772869      5.8037164732 
  C124          0.4707517676      1.7867966702      5.7041515831 
  C125          1.2875567300      2.6145646526      6.4680847783 
  C126          2.9657844655      0.8901679553      6.5619628125 
  H127          2.5051828455     -0.9332332505      5.5137674110 
  H128         -0.4911870663      2.1327084242      5.3317599226 
  H129          0.9447802806      3.6155440600      6.7207094602 
  H130          3.9431022962      0.5366713147      6.8820790168 
  H131          3.1771760845      2.8254305109      7.4911072091 
  Br3          -2.4123251329      1.0281972300      3.1731711614 
   
 
  bond lengths (angstroms):
 
 P1      -Pd2     :   2.366841      P1      -C7      :   1.911254
 P1      -C10     :   1.914962      P1      -C14     :   1.848726
 Pd2     -C76     :   2.004890      Pd2     -N118    :   2.185727
 Pd2     -Br3     :   2.752135      C73     -C74     :   1.387923
 C73     -C78     :   1.388874      C73     -F79     :   1.350132
 C74     -C75     :   1.395944      C74     -H80     :   1.086447
 C75     -C76     :   1.395014      C75     -H14     :   1.084497
 C76     -C77     :   1.385382      C77     -C78     :   1.395409
 C77     -H82     :   1.096418      C78     -H83     :   1.087446
 C6      -C7      :   1.538117      C6      -H29     :   1.091366
 C6      -H30     :   1.091670      C6      -H31     :   1.098467
 C7      -C8      :   1.531669      C7      -C9      :   1.535234
 C8      -H32     :   1.088841      C8      -H33     :   1.098823
 C8      -H34     :   1.096577      C9      -H35     :   1.094705
 C9      -H36     :   1.098001      C9      -H37     :   1.091638
 C10     -C11     :   1.534743      C10     -C12     :   1.537160
 C10     -C13     :   1.536004      C11     -H38     :   1.095195
 C11     -H39     :   1.097413      C11     -H40     :   1.098492
 C12     -H41     :   1.094524      C12     -H42     :   1.095743
 C12     -H43     :   1.097678      C13     -H44     :   1.093550
 C13     -H45     :   1.098222      C13     -H46     :   1.093780
 C14     -C15     :   1.358468      C14     -C16     :   1.516268
 C15     -C17     :   1.490043      C15     -C23     :   1.489794
 C16     -H47     :   1.095850      C16     -H48     :   1.093869
 C16     -H49     :   1.089568      C17     -C18     :   1.417400
 C17     -C22     :   1.416091      C18     -C19     :   1.388713
 C18     -H50     :   1.080523      C19     -C20     :   1.399262
 C19     -H51     :   1.087660      C20     -C21     :   1.388636
 C20     -H52     :   1.086750      C21     -C22     :   1.399828
 C21     -H53     :   1.086135      C22     -H54     :   1.085020
 C23     -C24     :   1.400810      C23     -C28     :   1.400207
 C24     -C25     :   1.392243      C24     -H55     :   1.087273
 C25     -C26     :   1.395402      C25     -H56     :   1.087670
 C26     -C27     :   1.394655      C26     -H57     :   1.087600
 C27     -C28     :   1.391701      C27     -H58     :   1.087712
 C28     -H59     :   1.087814      N118    -H119    :   1.031496
 N118    -H120    :   1.020393      N118    -C121    :   1.426996
 C121    -C123    :   1.394270      C121    -C124    :   1.397311
 C122    -C125    :   1.395916      C122    -C126    :   1.393175
 C122    -H131    :   1.087424      C123    -C126    :   1.392246
 C123    -H127    :   1.085496      C124    -C125    :   1.391389
 C124    -H128    :   1.087960      C125    -H129    :   1.087784
 C126    -H130    :   1.087467
 
  bond angles:
 
 C7      -P1      -Pd2     : 120.072057  C10     -P1      -Pd2     : 114.441102
 C10     -P1      -C7      : 105.550580  C14     -P1      -Pd2     : 107.720867
 C14     -P1      -C7      : 101.872163  C14     -P1      -C10     : 105.630059
 C76     -Pd2     -P1      :  97.919635  N118    -Pd2     -P1      : 168.523848
 N118    -Pd2     -C76     :  82.461658  Br3     -Pd2     -P1      : 106.733420
 Br3     -Pd2     -C76     : 144.995007  Br3     -Pd2     -N118    :  78.191671
 C78     -C73     -C74     : 121.723259  F79     -C73     -C74     : 119.114514
 F79     -C73     -C78     : 119.150974  C75     -C74     -C73     : 118.777747
 H80     -C74     -C73     : 119.756174  H80     -C74     -C75     : 121.462662
 C76     -C75     -C74     : 120.421895  H14     -C75     -C74     : 118.642755
 H14     -C75     -C76     : 120.926845  C75     -C76     -Pd2     : 125.000946
 C77     -C76     -Pd2     : 115.309029  C77     -C76     -C75     : 119.466542
 C78     -C77     -C76     : 120.948651  H82     -C77     -C76     : 117.776626
 H82     -C77     -C78     : 121.258001  C77     -C78     -C73     : 118.485618
 H83     -C78     -C73     : 119.724770  H83     -C78     -C77     : 121.784402
 H29     -C6      -C7      : 113.995443  H30     -C6      -C7      : 112.020096
 H30     -C6      -H29     : 108.619146  H31     -C6      -C7      : 107.777860
 H31     -C6      -H29     : 107.212054  H31     -C6      -H30     : 106.864503
 C6      -C7      -P1      : 115.203290  C8      -C7      -P1      : 106.842168
 C8      -C7      -C6      : 105.296385  C9      -C7      -P1      : 109.252058
 C9      -C7      -C6      : 109.551463  C9      -C7      -C8      : 110.579094
 H32     -C8      -C7      : 111.371376  H33     -C8      -C7      : 108.953644
 H33     -C8      -H32     : 108.531175  H34     -C8      -C7      : 111.431103
 H34     -C8      -H32     : 108.545160  H34     -C8      -H33     : 107.905343
 H35     -C9      -C7      : 112.006016  H36     -C9      -C7      : 108.567125
 H36     -C9      -H35     : 107.310591  H37     -C9      -C7      : 112.457266
 H37     -C9      -H35     : 108.470753  H37     -C9      -H36     : 107.819453
 C11     -C10     -P1      : 108.737249  C12     -C10     -P1      : 106.662673
 C12     -C10     -C11     : 107.864092  C13     -C10     -P1      : 115.999244
 C13     -C10     -C11     : 108.095583  C13     -C10     -C12     : 109.219255
 H38     -C11     -C10     : 112.328884  H39     -C11     -C10     : 111.203541
 H39     -C11     -H38     : 108.368879  H40     -C11     -C10     : 109.089007
 H40     -C11     -H38     : 107.966765  H40     -C11     -H39     : 107.728950
 H41     -C12     -C10     : 111.053873  H42     -C12     -C10     : 112.729707
 H42     -C12     -H41     : 108.687336  H43     -C12     -C10     : 109.065722
 H43     -C12     -H41     : 107.237700  H43     -C12     -H42     : 107.870742
 H44     -C13     -C10     : 112.286385  H45     -C13     -C10     : 108.078584
 H45     -C13     -H44     : 107.105175  H46     -C13     -C10     : 113.703470
 H46     -C13     -H44     : 108.456889  H46     -C13     -H45     : 106.868226
 C15     -C14     -P1      : 121.086629  C16     -C14     -P1      : 121.094895
 C16     -C14     -C15     : 117.816686  C17     -C15     -C14     : 128.080756
 C23     -C15     -C14     : 120.282373  C23     -C15     -C17     : 111.298784
 H47     -C16     -C14     : 109.761234  H48     -C16     -C14     : 112.966027
 H48     -C16     -H47     : 106.772937  H49     -C16     -C14     : 112.025291
 H49     -C16     -H47     : 108.077241  H49     -C16     -H48     : 106.979778
 C18     -C17     -C15     : 119.638807  C22     -C17     -C15     : 118.198880
 C22     -C17     -C18     : 118.402738  C19     -C18     -C17     : 120.097730
 H50     -C18     -C17     : 118.768044  H50     -C18     -C19     : 120.835895
 C20     -C19     -C18     : 120.574137  H51     -C19     -C18     : 119.703269
 H51     -C19     -C20     : 119.695472  C21     -C20     -C19     : 120.409618
 H52     -C20     -C19     : 119.728115  H52     -C20     -C21     : 119.853768
 C22     -C21     -C20     : 119.572169  H53     -C21     -C20     : 120.649393
 H53     -C21     -C22     : 119.761487  C21     -C22     -C17     : 120.858629
 H54     -C22     -C17     : 118.875114  H54     -C22     -C21     : 119.601989
 C24     -C23     -C15     : 121.305934  C28     -C23     -C15     : 119.689521
 C28     -C23     -C24     : 118.927285  C25     -C24     -C23     : 120.459764
 H55     -C24     -C23     : 119.419562  H55     -C24     -C25     : 120.118601
 C26     -C25     -C24     : 120.189631  H56     -C25     -C24     : 119.733390
 H56     -C25     -C26     : 120.072279  C27     -C26     -C25     : 119.693818
 H57     -C26     -C25     : 120.137707  H57     -C26     -C27     : 120.168147
 C28     -C27     -C26     : 120.112772  H58     -C27     -C26     : 120.167287
 H58     -C27     -C28     : 119.716040  C27     -C28     -C23     : 120.601900
 H59     -C28     -C23     : 119.237212  H59     -C28     -C27     : 120.134355
 H119    -N118    -Pd2     : 103.551144  H120    -N118    -Pd2     :  99.457512
 H120    -N118    -H119    : 108.794106  C121    -N118    -Pd2     : 119.413491
 C121    -N118    -H119    : 113.406303  C121    -N118    -H120    : 110.961024
 C123    -C121    -N118    : 120.814373  C124    -C121    -N118    : 119.007115
 C124    -C121    -C123    : 120.096667  C126    -C122    -C125    : 119.398499
 H131    -C122    -C125    : 120.276569  H131    -C122    -C126    : 120.324506
 C126    -C123    -C121    : 119.785443  H127    -C123    -C121    : 119.999121
 H127    -C123    -C126    : 120.169364  C125    -C124    -C121    : 119.677323
 H128    -C124    -C121    : 119.110617  H128    -C124    -C125    : 121.186166
 C124    -C125    -C122    : 120.525964  H129    -C125    -C122    : 120.133695
 H129    -C125    -C124    : 119.338636  C123    -C126    -C122    : 120.514861
 H130    -C126    -C122    : 120.195836  H130    -C126    -C123    : 119.287316
 
  torsional angles:
 
 P1      -Pd2     -C76     -C75     :  86.620902
 P1      -Pd2     -C76     -C77     : -98.865357
 P1      -Pd2     -N118    -H119    :   9.413955
 P1      -Pd2     -N118    -H120    :-102.678987
 P1      -Pd2     -N118    -C121    : 136.641031
 P1      -C7      -C6      -H29     :  56.518259
 P1      -C7      -C6      -H30     : -67.330706
 P1      -C7      -C6      -H31     : 175.391340
 P1      -C7      -C8      -H32     : -62.664923
 P1      -C7      -C8      -H33     : 177.649421
 P1      -C7      -C8      -H34     :  58.701347
 P1      -C7      -C9      -H35     : -71.214593
 P1      -C7      -C9      -H36     : 170.471151
 P1      -C7      -C9      -H37     :  51.252001
 P1      -C10     -C11     -H38     :  60.683458
 P1      -C10     -C11     -H39     : -60.968157
 P1      -C10     -C11     -H40     :-179.646184
 P1      -C10     -C12     -H41     :  57.238685
 P1      -C10     -C12     -H42     : -65.002939
 P1      -C10     -C12     -H43     : 175.208369
 P1      -C10     -C13     -H44     : -62.635016
 P1      -C10     -C13     -H45     : 179.449393
 P1      -C10     -C13     -H46     :  60.980396
 P1      -C14     -C15     -C17     :  17.775997
 P1      -C14     -C15     -C23     :-169.511845
 P1      -C14     -C16     -H47     :-138.248722
 P1      -C14     -C16     -H48     : 102.720473
 P1      -C14     -C16     -H49     : -18.182033
 Pd2     -P1      -C7      -C6      : 168.567572
 Pd2     -P1      -C7      -C8      :  52.009375
 Pd2     -P1      -C7      -C9      : -67.642858
 Pd2     -P1      -C10     -C11     :  48.673682
 Pd2     -P1      -C10     -C12     : -67.407983
 Pd2     -P1      -C10     -C13     : 170.702901
 Pd2     -P1      -C14     -C15     :  -9.350137
 Pd2     -P1      -C14     -C16     : 171.147395
 Pd2     -C76     -C75     -C74     : 178.640308
 Pd2     -C76     -C75     -H14     :  -0.284348
 Pd2     -C76     -C77     -C78     :-179.331819
 Pd2     -C76     -C77     -H82     :  -0.801040
 Pd2     -N118    -C121    -C123    : -99.658800
 Pd2     -N118    -C121    -C124    :  77.054590
 C73     -C74     -C75     -C76     :  -1.124937
 C73     -C74     -C75     -H14     : 177.823985
 C73     -C78     -C77     -C76     :   1.413390
 C73     -C78     -C77     -H82     :-177.065934
 C74     -C73     -C78     -C77     :   1.894635
 C74     -C73     -C78     -H83     :-177.289968
 C74     -C75     -C76     -C77     :   4.337541
 C75     -C74     -C73     -C78     :  -2.027341
 C75     -C74     -C73     -F79     : 179.203702
 C75     -C76     -Pd2     -N118    :-104.954449
 C75     -C76     -Pd2     -Br3     : -48.239056
 C75     -C76     -C77     -C78     :  -4.492645
 C75     -C76     -C77     -H82     : 174.038135
 C76     -Pd2     -P1      -C7      : -18.896872
 C76     -Pd2     -P1      -C10     :-146.013623
 C76     -Pd2     -P1      -C14     :  96.862572
 C76     -Pd2     -N118    -H119    : -83.264478
 C76     -Pd2     -N118    -H120    : 164.642580
 C76     -Pd2     -N118    -C121    :  43.962598
 C76     -C75     -C74     -H80     : 179.549357
 C76     -C77     -C78     -H83     :-179.419640
 C77     -C76     -Pd2     -N118    :  69.559292
 C77     -C76     -Pd2     -Br3     : 126.274685
 C77     -C76     -C75     -H14     :-174.587116
 C77     -C78     -C73     -F79     :-179.336844
 C78     -C73     -C74     -H80     : 177.310144
 F79     -C73     -C74     -H80     :  -1.458813
 F79     -C73     -C78     -H83     :   1.478552
 H80     -C74     -C75     -H14     :  -1.501721
 H82     -C77     -C78     -H83     :   2.101036
 C6      -C7      -P1      -C10     : -60.329800
 C6      -C7      -P1      -C14     :  49.807807
 C6      -C7      -C8      -H32     : 174.375296
 C6      -C7      -C8      -H33     :  54.689640
 C6      -C7      -C8      -H34     : -64.258434
 C6      -C7      -C9      -H35     :  55.847868
 C6      -C7      -C9      -H36     : -62.466388
 C6      -C7      -C9      -H37     : 178.314462
[...]
    C23      X     0.00000   0.00000   0.00013  -0.00000   0.00001  -0.00000
    C23      Y     0.00000   0.00000   0.00002   0.00002  -0.00000   0.00002
    C23      Z     0.00000   0.00000  -0.00008   0.00006   0.00001  -0.00001
    C24      X    -0.00001  -0.00004   0.00028   0.00002   0.00001   0.00001
    C24      Y     0.00002   0.00008  -0.00062  -0.00003  -0.00001  -0.00000
    C24      Z     0.00001   0.00003  -0.00026  -0.00001   0.00000  -0.00000
    C25      X    -0.00003  -0.00016   0.00021  -0.00001  -0.00000   0.00000
    C25      Y     0.00000   0.00001   0.00005  -0.00000   0.00000  -0.00000
    C25      Z     0.00000   0.00001  -0.00002  -0.00001  -0.00000   0.00000
    C26      X    -0.00002  -0.00010   0.00004   0.00001  -0.00000  -0.00000
    C26      Y    -0.00003  -0.00016   0.00003   0.00002  -0.00000   0.00000
    C26      Z    -0.00001  -0.00004   0.00001   0.00001  -0.00000  -0.00000
    C27      X     0.00002   0.00009  -0.00006  -0.00002   0.00000  -0.00000
    C27      Y    -0.00004  -0.00015   0.00003  -0.00001  -0.00000   0.00001
    C27      Z    -0.00001  -0.00004   0.00002  -0.00000  -0.00000   0.00000
    C28      X     0.00002   0.00009  -0.00022   0.00030  -0.00001   0.00001
    C28      Y     0.00000   0.00000   0.00013  -0.00003  -0.00000  -0.00000
    C28      Z     0.00000   0.00000   0.00002  -0.00001  -0.00000  -0.00001
    H29      X    -0.00164  -0.00038   0.00021   0.00022  -0.00006  -0.00000
    H29      Y     0.00143   0.00035  -0.00019  -0.00017   0.00006   0.00001
    H29      Z    -0.00130  -0.00042   0.00016   0.00027  -0.00004  -0.00003
    H30      X     0.00041   0.00018  -0.00005   0.00003  -0.00003   0.00002
    H30      Y     0.00122   0.00028  -0.00023   0.00020  -0.00018   0.00009
    H30      Z     0.00040   0.00014  -0.00007   0.00010  -0.00005   0.00004
    H31      X    -0.00037  -0.00037  -0.00005   0.00004   0.00003  -0.00003
    H31      Y    -0.00019  -0.00014  -0.00001   0.00001  -0.00001   0.00000
    H31      Z     0.00035   0.00040   0.00001  -0.00009  -0.00012   0.00006
    H32      X     0.00724   0.00622   0.00010  -0.00085   0.00002  -0.00002
    H32      Y     0.00499   0.00421   0.00014   0.00102   0.00009  -0.00010
    H32      Z     0.07119   0.06022   0.00069  -0.00738   0.00023  -0.00016
    H33      X    -0.00803  -0.00700  -0.00033   0.00249   0.00001  -0.00000
    H33      Y    -0.00264  -0.00227  -0.00014   0.00020  -0.00003   0.00005
    H33      Z     0.00274   0.00241   0.00018  -0.00185  -0.00000  -0.00002
    H34      X     0.00432   0.00347  -0.00018   0.00335  -0.00007   0.00006
    H34      Y     0.01770   0.01403  -0.00087   0.01779  -0.00035   0.00029
    H34      Z     0.00342   0.00261  -0.00030  -0.00300  -0.00017   0.00016
    H35      X    -0.00071  -0.00187   0.00018   0.00017   0.00000  -0.00005
    H35      Y     0.00077   0.00209  -0.00020  -0.00061  -0.00000   0.00009
    H35      Z    -0.00063  -0.00073   0.00010   0.00013  -0.00001  -0.00004
    H36      X    -0.00171   0.00086  -0.00002  -0.00023   0.00008  -0.00006
    H36      Y    -0.00024  -0.00000  -0.00002   0.00007   0.00000   0.00000
    H36      Z     0.00087  -0.00029  -0.00001   0.00009  -0.00006   0.00004
    H37      X     0.00112  -0.00150   0.00002  -0.00004  -0.00002   0.00002
    H37      Y     0.00103  -0.00142   0.00003   0.00004   0.00002   0.00000
    H37      Z     0.00655  -0.01084   0.00017   0.00009   0.00013  -0.00005
    H38      X     0.00764  -0.00610   0.00008   0.00003  -0.00046  -0.00010
    H38      Y     0.00369  -0.00293   0.00006   0.00003  -0.00029  -0.00005
    H38      Z     0.00107  -0.00098  -0.00003   0.00003   0.00009   0.00001
    H39      X     0.00109  -0.00097  -0.00014   0.00007   0.00034  -0.00005
    H39      Y     0.00146  -0.00114  -0.00013   0.00006   0.00026   0.00003
    H39      Z    -0.00343   0.00274   0.00024  -0.00016  -0.00026   0.00019
    H40      X     0.00051  -0.00027   0.00012  -0.00000  -0.00022   0.00003
    H40      Y    -0.00057   0.00034  -0.00015   0.00000   0.00027  -0.00001
    H40      Z     0.00028  -0.00013   0.00004  -0.00001  -0.00016   0.00008
    H41      X     0.00001   0.00030  -0.00022  -0.00000   0.00012   0.00004
    H41      Y     0.00002   0.00128  -0.00089   0.00001   0.00071   0.00026
    H41      Z    -0.00003  -0.00197   0.00147   0.00000  -0.00164  -0.00078
    H42      X     0.00008  -0.00009  -0.00000   0.00000  -0.00006   0.00003
    H42      Y     0.00023  -0.00037   0.00005   0.00002  -0.00010   0.00002
    H42      Z     0.00031  -0.00044  -0.00005   0.00003   0.00026   0.00029
    H43      X    -0.00011  -0.00021   0.00031   0.00003  -0.00011  -0.00004
    H43      Y     0.00010   0.00019  -0.00031  -0.00002  -0.00006   0.00001
    H43      Z    -0.00000   0.00002  -0.00000   0.00001   0.00004   0.00001
    H44      X     0.00052  -0.00065   0.00001   0.00011  -0.00023  -0.00011
    H44      Y     0.00025  -0.00041   0.00002   0.00011  -0.00018  -0.00008
    H44      Z    -0.00011   0.00010  -0.00001  -0.00003   0.00010   0.00003
    H45      X    -0.00010  -0.00018   0.00011   0.00009  -0.00010  -0.00005
    H45      Y     0.00005   0.00014  -0.00011  -0.00005   0.00020   0.00006
    H45      Z    -0.00002   0.00002   0.00004  -0.00001  -0.00016  -0.00001
    H46      X     0.00007   0.00002  -0.00002  -0.00001   0.00003   0.00002
    H46      Y     0.00048   0.00021  -0.00012  -0.00003  -0.00009   0.00006
    H46      Z     0.00049   0.00022  -0.00014  -0.00003  -0.00013   0.00009
    H47      X    -0.00013  -0.00046   0.00038   0.00044  -0.00017  -0.00004
    H47      Y    -0.00003  -0.00007  -0.00001   0.00009  -0.00009  -0.00003
    H47      Z     0.00003   0.00005   0.00012  -0.00008  -0.00005  -0.00005
    H48      X    -0.00005  -0.00002  -0.00050  -0.00004  -0.00006  -0.00001
    H48      Y     0.00014   0.00013   0.00075   0.00007  -0.00006   0.00008
    H48      Z     0.00008   0.00008   0.00054   0.00012  -0.00010   0.00002
    H49      X    -0.00001  -0.00012   0.00018   0.00009   0.00002   0.00003
    H49      Y    -0.00020  -0.00093   0.00076   0.00054  -0.00008   0.00009
    H49      Z     0.00012   0.00059  -0.00032  -0.00025   0.00015  -0.00017
    H50      X    -0.00189  -0.00238   0.00010  -0.56522  -0.00034   0.00025
    H50      Y    -0.00070  -0.00090   0.00031  -0.24683  -0.00006   0.00006
    H50      Z     0.00239   0.00296  -0.00048   0.72400   0.00043  -0.00046
    H51      X     0.00501   0.00665  -0.01505  -0.07482  -0.00037   0.00016
    H51      Y    -0.00191  -0.00223  -0.00051  -0.00152  -0.00001   0.00010
    H51      Z     0.00072   0.00094  -0.00154  -0.01187   0.00000   0.00006
    H52      X    -0.00159  -0.00201  -0.01066  -0.00163   0.00008  -0.00061
    H52      Y     0.00107   0.00132   0.00539   0.00150  -0.00039   0.00124
    H52      Z    -0.00361  -0.00450  -0.02124  -0.00562   0.00011  -0.00108
    H53      X     0.00033   0.00078   0.08625   0.00444  -0.00025  -0.00113
    H53      Y     0.00011   0.00031   0.04364   0.00208  -0.00057  -0.00112
    H53      Z    -0.00034  -0.00088  -0.11334  -0.00549   0.00082   0.00133
    H54      X    -0.00184  -0.00183   0.92933  -0.00250  -0.00107  -0.00060
    H54      Y    -0.00011  -0.00015   0.07103  -0.00002  -0.00034  -0.00022
    H54      Z    -0.00026  -0.00027   0.12684  -0.00090  -0.00042  -0.00027
    H55      X     0.00012   0.00043  -0.00350  -0.00023  -0.00003   0.00000
    H55      Y    -0.00023  -0.00082   0.00661   0.00036  -0.00001  -0.00005
    H55      Z    -0.00007  -0.00029   0.00144   0.00013  -0.00010  -0.00009
    H56      X     0.00033   0.00167  -0.00229  -0.00000  -0.00003  -0.00008
    H56      Y    -0.00001  -0.00005  -0.00003  -0.00000  -0.00001  -0.00002
    H56      Z    -0.00001  -0.00006   0.00015   0.00000  -0.00003  -0.00000
    H57      X     0.00024   0.00111  -0.00020  -0.00017   0.00003  -0.00002
    H57      Y     0.00038   0.00176  -0.00033  -0.00021   0.00006  -0.00001
    H57      Z     0.00010   0.00046  -0.00009  -0.00005   0.00001  -0.00001
    H58      X    -0.00023  -0.00093   0.00027  -0.00003  -0.00003   0.00001
    H58      Y     0.00041   0.00163  -0.00055   0.00014   0.00003  -0.00002
    H58      Z     0.00011   0.00045  -0.00016   0.00004   0.00000  -0.00000
    H59      X    -0.00018  -0.00099   0.00208  -0.00284   0.00001  -0.00014
    H59      Y     0.00000   0.00001  -0.00015   0.00031   0.00000   0.00003
    H59      Z    -0.00001  -0.00004  -0.00001   0.00009  -0.00003   0.00005
    N118     X     0.00008   0.00011  -0.00013  -0.00004  -0.02654  -0.07393
    N118     Y    -0.00010  -0.00011  -0.00008   0.00004  -0.05177   0.02075
    N118     Z     0.00002  -0.00003  -0.00000  -0.00002   0.00875  -0.00278
    H119     X    -0.00056  -0.00086   0.00027   0.00065  -0.36552   0.65860
    H119     Y     0.00157   0.00154   0.00018  -0.00035   0.27621  -0.51932
    H119     Z    -0.00075  -0.00094   0.00027   0.00029  -0.04860   0.10829
    H120     X     0.00010  -0.00017   0.00126  -0.00021   0.72915   0.36722
    H120     Y     0.00040   0.00004   0.00089  -0.00012   0.43549   0.23711
    H120     Z     0.00008   0.00024  -0.00034   0.00008  -0.10255  -0.06273
    C121     X    -0.00007   0.00000   0.00001   0.00001   0.00048  -0.00033
    C121     Y    -0.00009   0.00006   0.00001   0.00001   0.00024  -0.00021
    C121     Z    -0.00007   0.00005   0.00001   0.00000   0.00102  -0.00053
    C122     X    -0.00000  -0.00000  -0.00000  -0.00000   0.00010   0.00009
    C122     Y     0.00053  -0.00013  -0.00001   0.00000   0.00009  -0.00003
    C122     Z     0.00033  -0.00007  -0.00001   0.00000   0.00008   0.00001
    C123     X     0.00170  -0.00078  -0.00003  -0.00000  -0.00012   0.00043
    C123     Y    -0.00111   0.00052   0.00002  -0.00000   0.00057  -0.00025
    C123     Z    -0.00032   0.00014   0.00000  -0.00000   0.00048   0.00004
    C124     X    -0.00010  -0.00005   0.00007  -0.00000  -0.00016   0.00030
    C124     Y    -0.00002  -0.00003   0.00002  -0.00000   0.00049  -0.00020
    C124     Z    -0.00005  -0.00004   0.00004  -0.00000   0.00020  -0.00014
    C125     X    -0.00036   0.00010   0.00002  -0.00000   0.00006  -0.00009
    C125     Y     0.00022  -0.00006  -0.00001   0.00000  -0.00018  -0.00007
    C125     Z     0.00003  -0.00000  -0.00000   0.00000  -0.00022  -0.00008
    C126     X     0.00077  -0.00020  -0.00002   0.00000  -0.00011  -0.00004
    C126     Y     0.00029  -0.00007  -0.00001   0.00000  -0.00001   0.00008
    C126     Z     0.00039  -0.00009  -0.00001   0.00000  -0.00013   0.00012
    H127     X    -0.01906   0.00910   0.00029  -0.00000   0.00098  -0.00113
    H127     Y     0.01226  -0.00617  -0.00018   0.00002  -0.00193   0.00247
    H127     Z     0.00358  -0.00156  -0.00005  -0.00001  -0.00029   0.00071
    H128     X     0.00083   0.00074  -0.00088   0.00004   0.00098   0.00020
    H128     Y     0.00025   0.00030  -0.00029   0.00002  -0.00052  -0.00072
    H128     Z     0.00047   0.00045  -0.00051   0.00003   0.00091  -0.00009
    H129     X     0.00366  -0.00098  -0.00018   0.00001  -0.00118   0.00017
    H129     Y    -0.00242   0.00065   0.00012  -0.00001   0.00075   0.00010
    H129     Z    -0.00051   0.00013   0.00002  -0.00000   0.00034   0.00005
    H130     X    -0.00842   0.00192   0.00019  -0.00004   0.00134  -0.00001
    H130     Y    -0.00275   0.00064   0.00006  -0.00001   0.00054  -0.00001
    H130     Z    -0.00407   0.00090   0.00009  -0.00002   0.00086  -0.00008
    H131     X    -0.00025   0.00004   0.00001  -0.00000  -0.00009   0.00006
    H131     Y    -0.00532   0.00113   0.00017  -0.00001  -0.00031   0.00015
    H131     Z    -0.00354   0.00073   0.00011  -0.00001   0.00019   0.00001
    Br3      X    -0.00000   0.00002  -0.00002  -0.00000  -0.00002  -0.00001
    Br3      Y     0.00000   0.00000   0.00007  -0.00000  -0.00003  -0.00001
    Br3      Z    -0.00000  -0.00001  -0.00000   0.00000   0.00004   0.00002
  
  Number of imaginary frequencies:   1
   
  Writing vibrational animation data to L_Ar_Br_N_N_trans_PL747.vib
  Writing IR vibrational spectrum data to L_Ar_Br_N_N_trans_PL747_vib.spm
  rotational symmetry number:  1

  rotational temperatures (K):      0.005369      0.003010      0.002740
   
  The Quasi-Harmonic approximation will be applied to compute
  vibrational constributions to thermodynamic properties.
  Frequencies will be adjusted to a minimum value of  100.00 cm^-1.

    1 vibrational frequencies below    0.0 cm-1 not included in zero-point
  energy or thermochemical analysis.  Set freqcut to change the frequency
  cutoff value.

  vibrational temperatures:
       mode:      2        3        4        5        6        7
  temp. (K):   143.88   143.88   143.88   143.88   143.88   143.88
   
       mode:      8        9       10       11       12       13
  temp. (K):   143.88   143.88   143.88   143.88   143.88   143.88
   
       mode:     14       15       16       17       18       19
  temp. (K):   143.88   146.60   156.69   164.31   171.66   180.95
   
       mode:     20       21       22       23       24       25
  temp. (K):   202.09   207.35   213.64   225.57   242.32   251.59
   
       mode:     26       27       28       29       30       31
  temp. (K):   256.85   274.57   290.67   305.56   310.97   331.13
   
       mode:     32       33       34       35       36       37
  temp. (K):   347.38   350.55   360.07   363.60   380.30   390.41
   
       mode:     38       39       40       41       42       43
  temp. (K):   397.15   412.81   416.24   435.02   466.29   473.05
   
       mode:     44       45       46       47       48       49
  temp. (K):   489.57   498.29   511.23   536.19   548.57   559.57
   
       mode:     50       51       52       53       54       55
  temp. (K):   566.98   580.30   583.99   590.30   597.26   600.40
   
       mode:     56       57       58       59       60       61
  temp. (K):   604.01   608.03   617.67   633.88   680.51   691.10
   
       mode:     62       63       64       65       66       67
  temp. (K):   715.69   745.68   761.86   770.52   786.28   805.06
   
       mode:     68       69       70       71       72       73
  temp. (K):   832.35   838.35   869.43   899.66   901.91   904.15
   
       mode:     74       75       76       77       78       79
  temp. (K):   910.07   915.47   962.60   967.31  1011.44  1025.93
   
       mode:     80       81       82       83       84       85
  temp. (K):  1027.69  1037.99  1046.37  1104.02  1117.47  1127.88
   
       mode:     86       87       88       89       90       91
  temp. (K):  1170.95  1191.19  1192.27  1195.19  1200.22  1202.71
   
       mode:     92       93       94       95       96       97
  temp. (K):  1211.94  1227.97  1248.19  1256.83  1328.49  1330.52
   
       mode:     98       99      100      101      102      103
  temp. (K):  1360.30  1367.28  1369.43  1376.37  1377.82  1385.49
   
       mode:    104      105      106      107      108      109
  temp. (K):  1389.71  1392.13  1418.00  1424.22  1424.93  1435.35
   
       mode:    110      111      112      113      114      115
  temp. (K):  1440.44  1454.17  1462.21  1463.36  1466.31  1469.10
   
       mode:    116      117      118      119      120      121
  temp. (K):  1473.00  1480.90  1486.65  1497.48  1503.21  1519.06
   
       mode:    122      123      124      125      126      127
  temp. (K):  1521.63  1523.85  1533.37  1533.80  1535.01  1544.90
   
       mode:    128      129      130      131      132      133
  temp. (K):  1553.34  1599.38  1607.03  1614.70  1619.60  1651.15
   
       mode:    134      135      136      137      138      139
  temp. (K):  1694.57  1722.00  1729.80  1732.16  1732.80  1734.07
   
       mode:    140      141      142      143      144      145
  temp. (K):  1742.10  1748.71  1755.65  1760.74  1768.87  1774.67
   
       mode:    146      147      148      149      150      151
  temp. (K):  1779.55  1794.12  1800.61  1836.82  1842.32  1875.17
   
       mode:    152      153      154      155      156      157
  temp. (K):  1897.72  1929.88  1934.32  1946.44  1980.54  1986.72
   
       mode:    158      159      160      161      162      163
  temp. (K):  1988.56  2008.66  2043.05  2049.09  2051.65  2054.06
   
       mode:    164      165      166      167      168      169
  temp. (K):  2062.58  2063.81  2096.00  2109.06  2137.87  2146.33
   
       mode:    170      171      172      173      174      175
  temp. (K):  2159.50  2163.47  2167.83  2171.71  2178.08  2184.62
   
       mode:    176      177      178      179      180      181
  temp. (K):  2189.66  2190.33  2195.07  2198.24  2200.79  2211.57
   
       mode:    182      183      184      185      186      187
  temp. (K):  2216.85  2217.78  2219.76  2223.22  2232.84  2233.82
   
       mode:    188      189      190      191      192      193
  temp. (K):  2245.50  2355.85  2360.38  2361.31  2370.00  2375.82
   
       mode:    194      195      196      197      198      199
  temp. (K):  2399.30  2402.16  2405.34  2407.67  2418.22  4380.28
   
       mode:    200      201      202      203      204      205
  temp. (K):  4384.68  4388.27  4390.51  4391.83  4398.75  4412.91
   
       mode:    206      207      208      209      210      211
  temp. (K):  4490.47  4493.85  4495.59  4505.56  4508.33  4514.35
   
       mode:    212      213      214      215      216      217
  temp. (K):  4521.86  4531.37  4559.28  4573.29  4576.52  4582.09
   
       mode:    218      219      220      221      222      223
  temp. (K):  4584.97  4586.66  4592.11  4592.25  4594.23  4596.77
   
       mode:    224      225      226      227      228      229
  temp. (K):  4604.53  4607.48  4609.10  4610.34  4611.40  4613.27
   
       mode:    230      231      232      233      234      235
  temp. (K):  4614.38  4618.97  4622.24  4626.11  4629.41  4632.87
   
       mode:    236      237      238      239      240
  temp. (K):  4634.32  4670.08  4728.73  4979.49  5123.52
   
   
  Thermodynamic properties calculated assuming an ideal gas

  In the table below, the units for temperature
  are kelvins, the units for U, H, and G are
  kcal/mol and the units for Cv and S are cal/(mol K)

  The zero point energy (ZPE):    434.563 kcal/mol
  is not included in U, H, or G in the table below
  
 
  =============================================================================
  Thermodynamic properties for P = 1.00E+00 atm, calculated at   1 temperatures


  T =   298.15 K, P = 1.00E+00 atm
   
                  U         Cv          S          H          G        ln(Q)
              =========  =========  =========  =========  =========  =========
  trans.          0.889      2.981     45.565      1.481    -12.104   20.42940
  rot.            0.889      2.981     37.926      0.889    -10.419   17.58506
  vib.           23.279    153.523    141.114     23.279    -18.794   31.72129
  elec.           0.000      0.000      0.000      0.000      0.000    0.00000
  ----------------------------------------------------------------------------
  total          25.056    159.485    224.605     25.649    -41.317   69.73575
   
   Total internal energy, Utot(SCFE + ZPE + U):   -1993.803688 hartrees
   Total enthalpy, Htot (Utot + nRT), with n=1:   -1993.802744 hartrees
    Total Gibbs free energy, Gtot (Htot - T*S):   -1993.909462 hartrees
   
  end of program freq
   
 Time(freq)  user:       1.035  user+sys:       1.035  wallclock:       0.648
  
  start of program post
  
  Writing input files for PBF
  end of program post
   
 Time(post)  user:       0.258  user+sys:       0.258  wallclock:       0.102

 Total cpu seconds     user:  122467.563   user+sys:  122467.563
  
 Total elapsed time:    14476 seconds

Job L_Ar_Br_N_N_trans_PL747 completed on bp1-compute064 at Tue Dec  2 19:24:21 2025
