Job L_Ar_OtBu_N_Ar_trans_PL747 started on bp1-compute167 at Mon Nov 24 21:24:19 2025
jobid: bp1-compute167-0-6924cceb

  +--------------------------------------------------------------------+
  |  Jaguar version 12.5, release 138                                  |
  |                                                                    |
  |  Copyright Schrodinger, Inc.                                       |
  |  All Rights Reserved.                                              |
  |                                                                    |
  |  The following have contributed to Jaguar (listed alphabetically): |
  |  Ty Balduf, Mike Beachy, Chandler Bennett, Art Bochevarov,         |
  |  Dale Braden, Yixiang Cao, Alan Chien, Chris Cortis,               |
  |  Rich Friesner, Jim Furness, Bill Goddard, Hod Greeley,            |
  |  Tom Hughes, Leif Jacobson, Jean-Marc Langlois, Daniel Levine,     |
  |  Rob Murphy, Dean Philipp, Tom Pollard, Murco Ringnalda,           |
  |  Daniel Mainz, Pablo Videla, Mark Watson, Haoyu Yu.                |
  |                                                                    |
  |  Use of this program should be acknowledged in publications as:    |
  |                                                                    |
  |  Jaguar, version 12.5, Schrodinger, Inc., New York, NY, 2024.      |
  |                                                                    |
  |  A. D. Bochevarov, E. Harder, T. F. Hughes, J. R. Greenwood,       |
  |  D. A. Braden, D. M. Philipp, D. Rinaldo, M. D. Halls,             |
  |  J. Zhang, R. A. Friesner, "Jaguar: A High-Performance Quantum     |
  |  Chemistry Software Program with Strengths in Life and Materials   |
  |  Sciences", Int. J. Quantum Chem., 2013, 113(18), 2110-2142.       |
  +--------------------------------------------------------------------+
  
  start of program pre
  
  Job name: L_Ar_OtBu_N_Ar_trans_PL747
  Executables used: /software/local/apps/schrodinger2024-3/jaguar-v12.5/bin/Linux-x86_64
  Temporary files : /tmp/ar21627/L_Ar_OtBu_N_Ar_trans_PL747#bp1-compute167-0-6924cceb
  Basis file : using default basis file from /software/local/apps/schrodinger2024-3
  Maestro file (input):  L_Ar_OtBu_N_Ar_trans_PL747.mae
  Maestro file (output): L_Ar_OtBu_N_Ar_trans_PL747.01.mae
  
 Contents of input file: &gen and (if present) &atomic sections only
 ----------------Contents start----------------
&gen
dftname=b3pw91-d3
basis=6-31G*
numd=5
ip11=2
iaccg=3
isolv=2
igeopt=1
solvent=benzene
ifreq=1
&
&atomic
atom basis
Pd2 lacv3p*
&
 -----------------Contents end-----------------
 
  PS calculation requested. Using PS version of 6-31g*
  basis set:               non_standard                    
  net molecular charge:    0
  multiplicity:            1
  
  Using up to  18 threads per process
  
  This run will use ECP on 1 atom
  number of basis functions....          739
  
 Input geometry:
                                   angstroms
  atom               x                 y                 z
  P1            0.0000000000      0.0000000000      0.0000000000 
  Pd2           0.0000000000      0.0000000000      2.4176791399 
  C73           0.1082075836     -0.0553145557      7.2177205426 
  C74           0.6011383882      1.0592177789      6.5520871702 
  C75           0.6126673555      1.0527532693      5.1548463276 
  C76           0.1171313845     -0.0412349528      4.4402896769 
  C77          -0.3322156785     -1.1640186867      5.1404233849 
  C78          -0.3494831228     -1.1752581785      6.5386659188 
  F79           0.0834457878     -0.0529631473      8.5713491979 
  H80           0.9697323246      1.9075342404      7.1232156033 
  H81           1.0039932188      1.9205480651      4.6288707371 
  H82          -0.6805886479     -2.0436873243      4.6048882318 
  H83          -0.7029254760     -2.0372970685      7.0989761502 
  C6            1.3897813713     -1.2825936634     -2.1992920618 
  C7            1.2926306319     -1.2371779718     -0.6687090197 
  C8            0.8183418998     -2.6145731298     -0.1717621197 
  C9            2.6811354980     -0.9466662513     -0.0836025823 
  C10           0.0951291353      1.6885906684     -0.8458609735 
  C11           1.2484692707      2.4970046418     -0.2276614889 
  C12          -1.2137397781      2.4089661432     -0.4706636790 
  C13           0.2809630263      1.6507553436     -2.3690557054 
  C14          -1.5971687529     -0.7755103726     -0.4755888394 
  C15          -2.2301207799     -1.4180534591      0.5389978043 
  C16          -2.1736033353     -0.7175682466     -1.8708776300 
  C17          -1.9962114156     -1.1737685877      2.0031304415 
  C18          -1.9474013116     -2.2875511571      2.8902896832 
  C19          -2.3915458913     -2.1753072501      4.1933437734 
  C20          -2.9116029722     -0.9590600142      4.6708400058 
  C21          -2.9159996453      0.1606023102      3.8586087753 
  C22          -2.4391308933      0.0748718521      2.5352468469 
  C23          -3.3540396772     -2.3692882398      0.3168834388 
  C24          -4.5378180962     -2.2804035224      1.0670569281 
  C25          -5.5625073995     -3.2038875734      0.8812402745 
  C26          -5.4154945250     -4.2425008137     -0.0405425412 
  C27          -4.2366198418     -4.3513232970     -0.7775735766 
  C28          -3.2146548232     -3.4220333108     -0.5985542867 
  H29           1.6272310948     -0.3100832002     -2.6404627616 
  H30           0.4664916083     -1.6587034271     -2.6510399941 
  H31           2.1932516228     -1.9768857267     -2.4803193955 
  H32           0.8567637714     -2.6813334910      0.9204826187 
  H33           1.4725224680     -3.3939892297     -0.5858130799 
  H34          -0.2070563100     -2.8305744520     -0.4967480233 
  H35           3.1234861456     -0.0361626829     -0.5007283721 
  H36           3.3488865380     -1.7802002359     -0.3419689038 
  H37           2.6566067602     -0.8648822906      1.0060572120 
  H38           2.2287358962      2.0583621420     -0.4253309316 
  H39           1.1448073402      2.5850361874      0.8567373669 
  H40           1.2391451336      3.5069279044     -0.6607757739 
  H41          -1.3142167027      2.4859079912      0.6186199515 
  H42          -2.1098446027      1.9167278971     -0.8606340599 
  H43          -1.1927452415      3.4301788266     -0.8729872202 
  H44           1.2539612024      1.2320062497     -2.6437127958 
  H45           0.2498727345      2.6778585518     -2.7573117167 
  H46          -0.4915313717      1.0803589828     -2.8885728006 
  H47          -3.1663994888     -1.1716998694     -1.9041807906 
  H48          -1.5503596285     -1.2055945966     -2.6251697971 
  H49          -2.2902992037      0.3245387608     -2.1887537971 
  H50          -1.6200088968     -3.2479183827      2.5007054257 
  H51          -2.3560575356     -3.0399080048      4.8511028761 
  H52          -3.2828881389     -0.8944860566      5.6902888532 
  H53          -3.2921297145      1.1108618018      4.2280081756 
  H54          -2.6168095195      0.8981269931      1.8482585214 
  H55          -4.6530967136     -1.4843160054      1.7982758887 
  H56          -6.4771799528     -3.1181870021      1.4632115409 
  H57          -6.2136225031     -4.9689451612     -0.1767432924 
  H58          -4.1081313642     -5.1657266821     -1.4869358992 
  H59          -2.2871909613     -3.5174003555     -1.1574747849 
  N118          1.1119273911     -1.8346179552      2.4192772644 
  H119          0.3601078445     -2.5072835873      2.5859431431 
  H120          1.3713835953     -1.9516966857      1.4448251761 
  C121          2.2339506806     -2.1381595622      3.2542914860 
  C122          4.4005555752     -2.6934379163      4.9225611841 
  C123          2.0746096925     -2.9972424195      4.3399170958 
  C124          3.4759883277     -1.5585204585      2.9982219869 
  C125          4.5572361574     -1.8427210544      3.8282209376 
  C126          3.1546439960     -3.2655066187      5.1757326684 
  H127          1.0954707087     -3.4203639735      4.5462586992 
  H128          3.5843007512     -0.8594938577      2.1730270047 
  H129          5.5232248982     -1.3844528005      3.6268222300 
  H130          3.0180194455     -3.9195563605      6.0339592902 
  H131          5.2424783746     -2.9021637712      5.5787851451 
  O2           -1.2104864376      1.6209603283      2.6176673880 
  C127         -1.2962367068      2.6926495254      3.5238606608 
  C128         -1.7795106601      2.2622226585      4.9186735173 
  C106          0.0307957675      3.4547447696      3.6472363197 
  C107         -2.3533726909      3.6406269994      2.9260439789 
  H132         -1.0307768672      1.6456670387      5.4177789949 
  H133         -1.9833286481      3.1364521773      5.5520499182 
  H134         -2.7011789287      1.6764504888      4.8307864080 
  H111         -2.0022931910      4.0439931784      1.9713698411 
  H112         -3.2866028488      3.0954427232      2.7454042162 
  H113         -2.5627646359      4.4834967404      3.5976609604 
  H114         -0.0811082543      4.3609385425      4.2585328286 
  H115          0.7885956979      2.8188446607      4.1108810655 
  H116          0.3875602068      3.7488139922      2.6527721986 
   
  principal moments of inertia:
        amu*angstrom^2:              5543.71085              7646.71455              8183.00785
                g*cm^2:          9.20554729E-37          1.26976667E-36          1.35882025E-36
   
  rotational constants:
               cm^(-1):      0.00304086      0.00220456      0.00206008
                   GHz:      0.09116258      0.06609100      0.06175957
   
  Molecular weight:     705.27 amu
   
  Stoichiometry: PdC39PNH51OF
  Molecular Point Group: C1      
  Point Group used: C1
  
 
Number of optimization coordinates:   326
Number of independent coordinates:    326
Number of non-redundant coordinates:  279
Number of frozen coordinates:           0
Number of harmonic constraints:         0
 
Number of geometric degrees of freedom:   279
Maximum geometric degrees of freedom:     279
 " " " " " excluding dummy atoms:         279
 
 
  bond lengths (angstroms):
 
 P1      -Pd2     :   2.417679      P1      -C7      :   1.910151
 P1      -C10     :   1.890997      P1      -C14     :   1.838083
 Pd2     -C76     :   2.026419      Pd2     -C17     :   2.352540
 Pd2     -C22     :   2.443110      Pd2     -N118    :   2.145276
 Pd2     -O2      :   2.032925      C73     -C74     :   1.388608
 C73     -C78     :   1.387397      C73     -F79     :   1.353857
 C74     -C75     :   1.397303      C74     -H80     :   1.087056
 C75     -C76     :   1.397482      C75     -H81     :   1.087591
 C76     -C77     :   1.397406      C77     -C78     :   1.398394
 C77     -H82     :   1.087188      C78     -H83     :   1.087189
 C6      -C7      :   1.534335      C6      -H29     :   1.093979
 C6      -H30     :   1.094531      C6      -H31     :   1.098445
 C7      -C8      :   1.539196      C7      -C9      :   1.534501
 C8      -H32     :   1.094957      C8      -H33     :   1.098581
 C8      -H34     :   1.097139      C9      -H35     :   1.094845
 C9      -H36     :   1.098828      C9      -H37     :   1.093000
 C10     -C11     :   1.538147      C10     -C12     :   1.540406
 C10     -C13     :   1.534955      C11     -H38     :   1.091972
 C11     -H39     :   1.092894      C11     -H40     :   1.098918
 C12     -H41     :   1.096610      C12     -H42     :   1.094248
 C12     -H43     :   1.097807      C13     -H44     :   1.094309
 C13     -H45     :   1.098476      C13     -H46     :   1.091786
 C14     -C15     :   1.357526      C14     -C16     :   1.510783
 C15     -C17     :   1.502689      C15     -C23     :   1.489086
 C16     -H47     :   1.092240      C16     -H48     :   1.093416
 C16     -H49     :   1.095742      C17     -C18     :   1.424762
 C17     -C22     :   1.427735      C18     -C19     :   1.381236
 C18     -H50     :   1.086861      C19     -C20     :   1.406314
 C19     -H51     :   1.086941      C20     -C21     :   1.383251
 C20     -H52     :   1.086876      C21     -C22     :   1.409269
 C21     -H53     :   1.086703      C22     -H54     :   1.086863
 C23     -C24     :   1.404276      C23     -C28     :   1.402044
 C24     -C25     :   1.391883      C24     -H55     :   1.087072
 C25     -C26     :   1.396429      C25     -H56     :   1.087502
 C26     -C27     :   1.394562      C26     -H57     :   1.087787
 C27     -C28     :   1.392853      C27     -H58     :   1.087638
 C28     -H59     :   1.087049      N118    -H119    :   1.022492
 N118    -H120    :   1.015176      N118    -C121    :   1.431196
 C121    -C123    :   1.393555      C121    -C124    :   1.394350
 C122    -C125    :   1.394937      C122    -C126    :   1.394150
 C122    -H131    :   1.087672      C123    -C126    :   1.391771
 C123    -H127    :   1.086426      C124    -C125    :   1.392395
 C124    -H128    :   1.086884      C125    -H129    :   1.087982
 C126    -H130    :   1.087658      O2      -C127    :   1.406079
 C127    -C128    :   1.537636      C127    -C106    :   1.535261
 C127    -C107    :   1.540644      C128    -H132    :   1.090802
 C128    -H133    :   1.098629      C128    -H134    :   1.095594
 C106    -H114    :   1.098814      C106    -H115    :   1.092518
 C106    -H116    :   1.096684      C107    -H111    :   1.094241
 C107    -H112    :   1.095799      C107    -H113    :   1.097881
 
  bond angles:
 
 C7      -P1      -Pd2     : 110.492321  C10     -P1      -Pd2     : 116.571200
 C10     -P1      -C7      : 112.812818  C14     -P1      -Pd2     : 104.995416
 C14     -P1      -C7      : 102.954245  C14     -P1      -C10     : 107.741774
 C76     -Pd2     -P1      : 176.486751  C17     -Pd2     -P1      :  79.850730
 C17     -Pd2     -C76     : 102.402417  C22     -Pd2     -P1      :  92.758261
 C22     -Pd2     -C76     :  90.590152  C22     -Pd2     -C17     :  34.575178
 N118    -Pd2     -P1      :  90.042683  N118    -Pd2     -C76     :  87.242709
 N118    -Pd2     -C17     :  90.759384  N118    -Pd2     -C22     : 122.931953
 O2      -Pd2     -P1      :  95.645582  O2      -Pd2     -C76     :  87.274737
 O2      -Pd2     -C17     :  84.831325  O2      -Pd2     -C22     :  51.417516
 O2      -Pd2     -N118    : 172.071475  C78     -C73     -C74     : 122.031781
 F79     -C73     -C74     : 118.971255  F79     -C73     -C78     : 118.994844
 C75     -C74     -C73     : 118.590568  H80     -C74     -C73     : 119.661272
 H80     -C74     -C75     : 121.747676  C76     -C75     -C74     : 120.796486
 H81     -C75     -C74     : 118.873076  H81     -C75     -C76     : 120.326542
 C75     -C76     -Pd2     : 120.992294  C77     -C76     -Pd2     : 119.857543
 C77     -C76     -C75     : 119.132052  C78     -C77     -C76     : 120.756993
 H82     -C77     -C76     : 120.421135  H82     -C77     -C78     : 118.820933
 C77     -C78     -C73     : 118.609048  H83     -C78     -C73     : 119.673314
 H83     -C78     -C77     : 121.715813  H29     -C6      -C7      : 112.936797
 H30     -C6      -C7      : 111.622032  H30     -C6      -H29     : 108.791329
 H31     -C6      -C7      : 108.677363  H31     -C6      -H29     : 107.454532
 H31     -C6      -H30     : 107.111602  C6      -C7      -P1      : 114.283075
 C8      -C7      -P1      : 104.954353  C8      -C7      -C6      : 108.366520
 C9      -C7      -P1      : 110.868592  C9      -C7      -C6      : 109.188588
 C9      -C7      -C8      : 108.973741  H32     -C8      -C7      : 111.457466
 H33     -C8      -C7      : 109.251724  H33     -C8      -H32     : 108.168345
 H34     -C8      -C7      : 111.625439  H34     -C8      -H32     : 108.437495
 H34     -C8      -H33     : 107.771378  H35     -C9      -C7      : 112.195117
 H36     -C9      -C7      : 108.458020  H36     -C9      -H35     : 107.201688
 H37     -C9      -C7      : 111.962214  H37     -C9      -H35     : 109.066597
 H37     -C9      -H36     : 107.746611  C11     -C10     -P1      : 109.102697
 C12     -C10     -P1      : 105.420478  C12     -C10     -C11     : 107.063869
 C13     -C10     -P1      : 115.338297  C13     -C10     -C11     : 108.723876
 C13     -C10     -C12     : 110.860979  H38     -C11     -C10     : 112.907367
 H39     -C11     -C10     : 111.715680  H39     -C11     -H38     : 107.284578
 H40     -C11     -C10     : 108.556913  H40     -C11     -H38     : 107.784527
 H40     -C11     -H39     : 108.435323  H41     -C12     -C10     : 110.646912
 H42     -C12     -C10     : 113.494267  H42     -C12     -H41     : 108.091142
 H43     -C12     -C10     : 109.239132  H43     -C12     -H41     : 107.488534
 H43     -C12     -H42     : 107.668568  H44     -C13     -C10     : 111.477926
 H45     -C13     -C10     : 108.921192  H45     -C13     -H44     : 107.112676
 H46     -C13     -C10     : 113.541396  H46     -C13     -H44     : 108.045133
 H46     -C13     -H45     : 107.474769  C15     -C14     -P1      : 114.296847
 C16     -C14     -P1      : 123.663806  C16     -C14     -C15     : 122.039235
 C17     -C15     -C14     : 125.357786  C23     -C15     -C14     : 122.874006
 C23     -C15     -C17     : 111.510387  H47     -C16     -C14     : 111.040160
 H48     -C16     -C14     : 113.735441  H48     -C16     -H47     : 108.149111
 H49     -C16     -C14     : 110.183854  H49     -C16     -H47     : 106.844769
 H49     -C16     -H48     : 106.562595  C15     -C17     -Pd2     : 112.636608
 C18     -C17     -Pd2     : 104.551055  C18     -C17     -C15     : 119.008917
 C22     -C17     -Pd2     :  76.184982  C22     -C17     -C15     : 117.194985
 C22     -C17     -C18     : 117.531121  C19     -C18     -C17     : 120.856176
 H50     -C18     -C17     : 118.546669  H50     -C18     -C19     : 120.452695
 C20     -C19     -C18     : 120.631255  H51     -C19     -C18     : 119.719529
 H51     -C19     -C20     : 119.639530  C21     -C20     -C19     : 120.122269
 H52     -C20     -C19     : 119.747807  H52     -C20     -C21     : 120.104968
 C22     -C21     -C20     : 120.071419  H53     -C21     -C20     : 120.617877
 H53     -C21     -C22     : 119.309087  C17     -C22     -Pd2     :  69.239840
 C21     -C22     -Pd2     : 112.636411  C21     -C22     -C17     : 120.541120
 H54     -C22     -Pd2     :  98.975266  H54     -C22     -C17     : 118.527591
 H54     -C22     -C21     : 119.482376  C24     -C23     -C15     : 121.073760
 C28     -C23     -C15     : 120.133207  C28     -C23     -C24     : 118.694013
 C25     -C24     -C23     : 120.482923  H55     -C24     -C23     : 119.675080
 H55     -C24     -C25     : 119.841988  C26     -C25     -C24     : 120.270972
 H56     -C25     -C24     : 119.700358  H56     -C25     -C26     : 120.027003
 C27     -C26     -C25     : 119.729044  H57     -C26     -C25     : 120.139410
 H57     -C26     -C27     : 120.129273  C28     -C27     -C26     : 120.016632
 H58     -C27     -C26     : 120.197782  H58     -C27     -C28     : 119.783424
 C27     -C28     -C23     : 120.793224  H59     -C28     -C23     : 119.104703
 H59     -C28     -C27     : 120.091992  H119    -N118    -Pd2     : 100.463969
 H120    -N118    -Pd2     : 103.319580  H120    -N118    -H119    : 105.575714
 C121    -N118    -Pd2     : 126.026359  C121    -N118    -H119    : 109.987547
 C121    -N118    -H120    : 109.585113  C123    -C121    -N118    : 119.710848
 C124    -C121    -N118    : 120.200282  C124    -C121    -C123    : 120.078672
 C126    -C122    -C125    : 119.543784  H131    -C122    -C125    : 120.225658
 H131    -C122    -C126    : 120.228436  C126    -C123    -C121    : 119.863484
 H127    -C123    -C121    : 119.412922  H127    -C123    -C126    : 120.680695
 C125    -C124    -C121    : 119.827597  H128    -C124    -C121    : 119.706655
 H128    -C124    -C125    : 120.428306  C124    -C125    -C122    : 120.324573
 H129    -C125    -C122    : 120.120986  H129    -C125    -C124    : 119.547775
 C123    -C126    -C122    : 120.354837  H130    -C126    -C122    : 120.152070
 H130    -C126    -C123    : 119.491363  C127    -O2      -Pd2     : 135.027273
 C128    -C127    -O2      : 112.981345  C106    -C127    -O2      : 112.174033
 C106    -C127    -C128    : 109.738395  C107    -C127    -O2      : 105.114449
 C107    -C127    -C128    : 107.973190  C107    -C127    -C106    : 108.593087
 H132    -C128    -C127    : 110.949598  H133    -C128    -C127    : 111.009518
 H133    -C128    -H132    : 108.260253  H134    -C128    -C127    : 109.956172
 H134    -C128    -H132    : 108.175980  H134    -C128    -H133    : 108.399059
 H114    -C106    -C127    : 111.472604  H115    -C106    -C127    : 110.165145
 H115    -C106    -H114    : 108.334445  H116    -C106    -C127    : 109.963645
 H116    -C106    -H114    : 108.449036  H116    -C106    -H115    : 108.376139
 H111    -C107    -C127    : 110.194474  H112    -C107    -C127    : 110.011113
 H112    -C107    -H111    : 108.229372  H113    -C107    -C127    : 111.462037
 H113    -C107    -H111    : 108.173934  H113    -C107    -H112    : 108.685590
 
  torsional angles:
 
 P1      -Pd2     -C76     -C75     :  87.121503
 P1      -Pd2     -C76     -C77     : -94.440003
 P1      -Pd2     -C17     -C15     :   3.804179
 P1      -Pd2     -C17     -C18     : 134.426978
 P1      -Pd2     -C17     -C22     :-110.235743
 P1      -Pd2     -C22     -C17     :  67.618126
 P1      -Pd2     -C22     -C21     :-176.868314
 P1      -Pd2     -C22     -H54     : -49.588678
 P1      -Pd2     -N118    -H119    : -99.533186
 P1      -Pd2     -N118    -H120    :   9.391552
 P1      -Pd2     -N118    -C121    : 136.126245
 P1      -Pd2     -O2      -C127    :-144.822044
 P1      -C7      -C6      -H29     :  57.747281
 P1      -C7      -C6      -H30     : -65.208190
 P1      -C7      -C6      -H31     : 176.881438
 P1      -C7      -C8      -H32     : -64.973921
 P1      -C7      -C8      -H33     : 175.544098
 P1      -C7      -C8      -H34     :  56.450688
 P1      -C7      -C9      -H35     : -72.065433
 P1      -C7      -C9      -H36     : 169.711479
 P1      -C7      -C9      -H37     :  50.955308
 P1      -C10     -C11     -H38     :  65.572370
 P1      -C10     -C11     -H39     : -55.457872
 P1      -C10     -C11     -H40     :-174.979828
 P1      -C10     -C12     -H41     :  57.849778
 P1      -C10     -C12     -H42     : -63.861343
 P1      -C10     -C12     -H43     : 175.990935
 P1      -C10     -C13     -H44     : -66.050798
 P1      -C10     -C13     -H45     : 175.970197
 P1      -C10     -C13     -H46     :  56.260835
 P1      -C14     -C15     -C17     :  20.976453
 P1      -C14     -C15     -C23     :-165.358672
 P1      -C14     -C16     -H47     :-175.225430
 P1      -C14     -C16     -H48     :  62.517291
 P1      -C14     -C16     -H49     : -57.048164
 Pd2     -P1      -C7      -C6      :-178.592060
 Pd2     -P1      -C7      -C8      :  62.833527
 Pd2     -P1      -C7      -C9      : -54.681752
 Pd2     -P1      -C10     -C11     :  49.550617
 Pd2     -P1      -C10     -C12     : -65.136569
 Pd2     -P1      -C10     -C13     : 172.225374
 Pd2     -P1      -C14     -C15     : -14.105889
 Pd2     -P1      -C14     -C16     : 166.014017
 Pd2     -C76     -C75     -C74     : 175.287546
 Pd2     -C76     -C75     -H81     :  -3.986350
 Pd2     -C76     -C77     -C78     :-175.386577
 Pd2     -C76     -C77     -H82     :   4.256833
 Pd2     -C17     -C15     -C14     : -16.206308
 Pd2     -C17     -C15     -C23     : 169.510505
 Pd2     -C17     -C18     -C19     :  85.666108
 Pd2     -C17     -C18     -H50     : -98.683474
 Pd2     -C17     -C22     -C21     :-104.729401
 Pd2     -C17     -C22     -H54     :  89.074201
 Pd2     -C22     -C17     -C15     :-108.618253
 Pd2     -C22     -C17     -C18     :  99.415265
 Pd2     -C22     -C21     -C20     : -76.048245
 Pd2     -C22     -C21     -H53     : 104.411400
 Pd2     -N118    -C121    -C123    : 104.595657
 Pd2     -N118    -C121    -C124    : -74.243654
 Pd2     -O2      -C127    -C128    : -69.954712
 Pd2     -O2      -C127    -C106    :  54.724650
 Pd2     -O2      -C127    -C107    : 172.546661
 C73     -C74     -C75     -C76     :   1.126078
 C73     -C74     -C75     -H81     :-179.589637
 C73     -C78     -C77     -C76     :  -0.968078
 C73     -C78     -C77     -H82     : 179.382894
 C74     -C73     -C78     -C77     :  -1.140033
 C74     -C73     -C78     -H83     : 178.376995
 C74     -C75     -C76     -C77     :  -3.162096
 C75     -C74     -C73     -C78     :   1.062343
 C75     -C74     -C73     -F79     :-179.472955
 C75     -C76     -Pd2     -C17     :-143.265758
 C75     -C76     -Pd2     -C22     :-110.494272
 C75     -C76     -Pd2     -N118    : 126.562654
 C75     -C76     -Pd2     -O2      : -59.166933
 C75     -C76     -C77     -C78     :   3.080998
 C75     -C76     -C77     -H82     :-177.275593
 C76     -Pd2     -P1      -C7      :  24.350178
 C76     -Pd2     -P1      -C10     :-106.169686
 C76     -Pd2     -P1      -C14     : 134.706845
 C76     -Pd2     -C17     -C15     :-173.446957
 C76     -Pd2     -C17     -C18     : -42.824159
 C76     -Pd2     -C17     -C22     :  72.513120
 C76     -Pd2     -C22     -C17     :-111.318024
 C76     -Pd2     -C22     -C21     :   4.195536
 C76     -Pd2     -C22     -H54     : 131.475172
 C76     -Pd2     -N118    -H119    :  82.697895
 C76     -Pd2     -N118    -H120    :-168.377366
 C76     -Pd2     -N118    -C121    : -41.642673
 C76     -Pd2     -O2      -C127    :  33.219401
 C76     -C75     -C74     -H80     :-179.127964
 C76     -C77     -C78     -H83     : 179.525225
 C77     -C76     -Pd2     -C17     :  35.172736
 C77     -C76     -Pd2     -C22     :  67.944222
 C77     -C76     -Pd2     -N118    : -54.998852
 C77     -C76     -Pd2     -O2      : 119.271561
 C77     -C76     -C75     -H81     : 177.564009
 C77     -C78     -C73     -F79     : 179.395388
 C78     -C73     -C74     -H80     :-178.689051
 F79     -C73     -C74     -H80     :   0.775651
 F79     -C73     -C78     -H83     :  -1.087584
 H80     -C74     -C75     -H81     :   0.156322
 H82     -C77     -C78     -H83     :  -0.123803
 C6      -C7      -P1      -C10     : -46.118286
 C6      -C7      -P1      -C14     :  69.729112
 C6      -C7      -C8      -H32     : 172.533799
 C6      -C7      -C8      -H33     :  53.051818
 C6      -C7      -C8      -H34     : -66.041591
 C6      -C7      -C9      -H35     :  54.710144
 C6      -C7      -C9      -H36     : -63.512944
 C6      -C7      -C9      -H37     : 177.730885
 C7      -P1      -Pd2     -C17     :-105.800257
 C7      -P1      -Pd2     -C22     :-138.013912
 C7      -P1      -Pd2     -N118    : -15.036441
 C7      -P1      -Pd2     -O2      : 170.495609
 C7      -P1      -C10     -C11     : -79.870115
 C7      -P1      -C10     -C12     : 165.442699
 C7      -P1      -C10     -C13     :  42.804642
 C7      -P1      -C14     -C15     : 101.584269
 C7      -P1      -C14     -C16     : -78.295825
 C8      -C7      -P1      -C10     :-164.692699
 C8      -C7      -P1      -C14     : -48.845300
 C8      -C7      -C6      -H29     : 174.367853
 C8      -C7      -C6      -H30     :  51.412381
 C8      -C7      -C6      -H31     : -66.497990
 C8      -C7      -C9      -H35     : 172.903663
 C8      -C7      -C9      -H36     :  54.680575
 C8      -C7      -C9      -H37     : -64.075596
 C9      -C7      -P1      -C10     :  77.792022
 C9      -C7      -P1      -C14     :-166.360580
 C9      -C7      -C6      -H29     : -67.058891
 C9      -C7      -C6      -H30     : 169.985638
 C9      -C7      -C6      -H31     :  52.075266
 C9      -C7      -C8      -H32     :  53.824467
 C9      -C7      -C8      -H33     : -65.657515
 C9      -C7      -C8      -H34     : 175.249076
 C10     -P1      -Pd2     -C17     : 123.679879
 C10     -P1      -Pd2     -C22     :  91.466224
 C10     -P1      -Pd2     -N118    :-145.556306
 C10     -P1      -Pd2     -O2      :  39.975745
 C10     -P1      -C14     -C15     :-138.989024
 C10     -P1      -C14     -C16     :  41.130882
 C11     -C10     -P1      -C14     : 167.180544
 C11     -C10     -C12     -H41     : -58.240237
 C11     -C10     -C12     -H42     :-179.951358
 C11     -C10     -C12     -H43     :  59.900920
 C11     -C10     -C13     -H44     :  56.825554
 C11     -C10     -C13     -H45     : -61.153450
 C11     -C10     -C13     -H46     : 179.137188
 C12     -C10     -P1      -C14     :  52.493358
 C12     -C10     -C11     -H38     : 179.191897
 C12     -C10     -C11     -H39     :  58.161656
 C12     -C10     -C11     -H40     : -61.360300
 C12     -C10     -C13     -H44     : 174.260220
 C12     -C10     -C13     -H45     :  56.281215
 C12     -C10     -C13     -H46     : -63.428147
 C13     -C10     -P1      -C14     : -70.144699
 C13     -C10     -C11     -H38     : -60.982953
 C13     -C10     -C11     -H39     : 177.986805
 C13     -C10     -C11     -H40     :  58.464849
 C13     -C10     -C12     -H41     :-176.685515
 C13     -C10     -C12     -H42     :  61.603364
 C13     -C10     -C12     -H43     : -58.544358
 C14     -P1      -Pd2     -C17     :   4.556410
 C14     -P1      -Pd2     -C22     : -27.657245
 C14     -P1      -Pd2     -N118    :  95.320225
 C14     -P1      -Pd2     -O2      : -79.147724
 C14     -C15     -C17     -C18     :-139.060251
 C14     -C15     -C17     -C22     :  69.400250
 C14     -C15     -C23     -C24     :-132.090435
 C14     -C15     -C23     -C28     :  51.574957
 C15     -C14     -C16     -H47     :   4.903493
 C15     -C14     -C16     -H48     :-117.353787
 C15     -C14     -C16     -H49     : 123.080758
 C15     -C17     -Pd2     -C22     : 114.039923
 C15     -C17     -Pd2     -N118    : -86.103237
 C15     -C17     -Pd2     -O2      : 100.496602
 C15     -C17     -C18     -C19     :-147.563037
 C15     -C17     -C18     -H50     :  28.087382
 C15     -C17     -C22     -C21     : 146.652346
 C15     -C17     -C22     -H54     : -19.544052
 C15     -C23     -C24     -C25     :-177.795045
 C15     -C23     -C24     -H55     :   2.170759
 C15     -C23     -C28     -C27     : 177.389790
 C15     -C23     -C28     -H59     :  -1.456266
 C16     -C14     -C15     -C17     :-159.141277
 C16     -C14     -C15     -C23     :  14.523598
 C17     -Pd2     -C22     -C21     : 115.513560
 C17     -Pd2     -C22     -H54     :-117.206804
 C17     -Pd2     -N118    -H119    : -19.682786
 C17     -Pd2     -N118    -H120    :  89.241953
 C17     -Pd2     -N118    -C121    :-144.023354
 C17     -Pd2     -O2      -C127    : 135.940378
 C17     -C15     -C23     -C24     :  42.358766
 C17     -C15     -C23     -C28     :-133.975842
 C17     -C18     -C19     -C20     :   0.458887
 C17     -C18     -C19     -H51     : 179.322708
 C17     -C22     -Pd2     -N118    : -24.221066
 C17     -C22     -Pd2     -O2      : 162.641109
 C17     -C22     -C21     -C20     :   2.422668
 C17     -C22     -C21     -H53     :-177.117687
 C18     -C17     -Pd2     -C22     :-115.337279
 C18     -C17     -Pd2     -N118    :  44.519561
 C18     -C17     -Pd2     -O2      :-128.880599
 C18     -C17     -C15     -C23     :  46.656561
 C18     -C17     -C22     -C21     :  -5.314136
 C18     -C17     -C22     -H54     :-171.510534
 C18     -C19     -C20     -C21     :  -3.532637
 C18     -C19     -C20     -H52     : 178.282384
 C19     -C18     -C17     -C22     :   3.881978
 C19     -C20     -C21     -C22     :   2.062645
 C19     -C20     -C21     -H53     :-178.403093
 C20     -C19     -C18     -H50     :-175.108719
 C20     -C21     -C22     -H54     : 168.488365
 C21     -C20     -C19     -H51     : 177.602638
 C21     -C22     -Pd2     -N118    :  91.292493
 C21     -C22     -Pd2     -O2      : -81.845331
 C22     -Pd2     -N118    -H119    :  -6.218643
 C22     -Pd2     -N118    -H120    : 102.706096
 C22     -Pd2     -N118    -C121    :-130.559212
 C22     -Pd2     -O2      -C127    : 126.152298
 C22     -C17     -Pd2     -N118    : 159.856841
 C22     -C17     -Pd2     -O2      : -13.543320
 C22     -C17     -C15     -C23     :-104.882937
 C22     -C17     -C18     -H50     : 179.532396
 C22     -C21     -C20     -H52     :-179.758902
 C23     -C24     -C25     -C26     :   0.976072
 C23     -C24     -C25     -H56     :-179.493506
 C23     -C28     -C27     -C26     :  -0.090152
 C23     -C28     -C27     -H58     :-179.556402
 C24     -C23     -C28     -C27     :   0.968602
 C24     -C23     -C28     -H59     :-177.877454
 C24     -C25     -C26     -C27     :  -0.075697
 C24     -C25     -C26     -H57     : 179.376590
 C25     -C24     -C23     -C28     :  -1.408823
 C25     -C26     -C27     -C28     :  -0.365779
 C25     -C26     -C27     -H58     : 179.098239
 C26     -C25     -C24     -H55     :-178.989675
 C26     -C27     -C28     -H59     : 178.744551
 C27     -C26     -C25     -H56     :-179.604578
 C28     -C23     -C24     -H55     : 178.556981
 C28     -C27     -C26     -H57     :-179.818122
 H50     -C18     -C19     -H51     :   3.755102
 H51     -C19     -C20     -H52     :  -0.582341
 H52     -C20     -C21     -H53     :  -0.224641
 H53     -C21     -C22     -H54     : -11.051990
 H54     -C22     -Pd2     -N118    :-141.427870
 H54     -C22     -Pd2     -O2      :  45.434305
 H55     -C24     -C25     -H56     :   0.540747
 H56     -C25     -C26     -H57     :  -0.152292
 H57     -C26     -C27     -H58     :  -0.354104
 H58     -C27     -C28     -H59     :  -0.721699
 N118    -Pd2     -O2      -C127    :  79.515552
 N118    -C121    -C123    -C126    :-178.225019
 N118    -C121    -C123    -H127    :  -0.590597
 N118    -C121    -C124    -C125    : 178.981579
 N118    -C121    -C124    -H128    :   1.197317
 H119    -N118    -Pd2     -O2      :  36.400140
 H119    -N118    -C121    -C123    : -15.634599
 H119    -N118    -C121    -C124    : 165.526089
 H120    -N118    -Pd2     -O2      : 145.324879
 H120    -N118    -C121    -C123    :-131.272162
 H120    -N118    -C121    -C124    :  49.888526
 C121    -N118    -Pd2     -O2      : -87.940429
 C121    -C123    -C126    -C122    :  -0.864624
 C121    -C123    -C126    -H130    : 178.657594
 C121    -C124    -C125    -C122    :  -0.666418
 C121    -C124    -C125    -H129    :-179.728454
 C122    -C125    -C124    -H128    : 177.101620
 C122    -C126    -C123    -H127    :-178.468555
 C123    -C121    -C124    -C125    :   0.146559
 C123    -C121    -C124    -H128    :-177.637702
 C123    -C126    -C122    -C125    :   0.347645
 C123    -C126    -C122    -H131    : 179.818915
 C124    -C121    -C123    -C126    :   0.615722
 C124    -C121    -C123    -H127    : 178.250144
 C124    -C125    -C122    -C126    :   0.420108
 C124    -C125    -C122    -H131    :-179.051178
 C125    -C122    -C126    -H130    :-179.171405
 C126    -C122    -C125    -H129    : 179.476747
 H127    -C123    -C126    -H130    :   1.053663
 H128    -C124    -C125    -H129    :  -1.960417
 H129    -C125    -C122    -H131    :   0.005462
 H130    -C126    -C122    -H131    :   0.299866
 O2      -C127    -C128    -H132    :  68.337221
 O2      -C127    -C128    -H133    :-171.235593
 O2      -C127    -C128    -H134    : -51.291035
 O2      -C127    -C106    -H114    : 172.904397
 O2      -C127    -C106    -H115    : -66.793886
 O2      -C127    -C106    -H116    :  52.593417
 O2      -C127    -C107    -H111    : -64.441816
 O2      -C127    -C107    -H112    :  54.812301
 O2      -C127    -C107    -H113    : 175.445687
 C128    -C127    -C106    -H114    : -60.642200
 C128    -C127    -C106    -H115    :  59.659518
 C128    -C127    -C106    -H116    : 179.046821
 C128    -C127    -C107    -H111    : 174.708488
 C128    -C127    -C107    -H112    : -66.037395
 C128    -C127    -C107    -H113    :  54.595991
 C106    -C127    -C128    -H132    : -57.657933
 C106    -C127    -C128    -H133    :  62.769253
 C106    -C127    -C128    -H134    :-177.286189
 C106    -C127    -C107    -H111    :  55.778931
 C106    -C127    -C107    -H112    : 175.033048
 C106    -C127    -C107    -H113    : -64.333566
 C107    -C127    -C128    -H132    :-175.856267
 C107    -C127    -C128    -H133    : -55.429081
 C107    -C127    -C128    -H134    :  64.515477
 C107    -C127    -C106    -H114    :  57.171036
 C107    -C127    -C106    -H115    : 177.472753
 C107    -C127    -C106    -H116    : -63.139944
 
  nuclear repulsion energy.......          6823.351208445 hartrees
  
  Detected an organometallic with only one TM atom. 
  
  Oxidation state on metal       2 is     2
  Formal multiplet on metal      2 is     1
  Formal charge on ligand        3 is    -1
  Formal multiplet on ligand     3 is     1
  Formal charge on ligand        5 is    -1
  Formal multiplet on ligand     5 is     1
  
 
  Will use High-Quality Initial guess for organometallics
       including d-d repulsion (iguess=30)
 
 Non-default options chosen:
   SCF calculation type: DFT(b3pw91-d3)              
   DFT=Becke_3_Parameter/HF+Slater+Becke88+PW91+PW-GGAIIC (B3PW91-D3)
   Geometry will be optimized in redundant internal coordinates
   Solvation energy will be computed using PBF
     -solute cavity energy will not be included
     -surface area terms will not be included
   Vibrational frequencies and related properties will be computed
      from analytic second derivatives
   IR intensities will be computed
   Thermochemical properties will be computed
   Maximum number of geometry steps: 100
   Scaling standard convergence criteria by a factor of   5.00
   Solvent: benzene                                                         
   Internal dielectric constant:    1.000
   Continuum dielectric constant:   2.283
   Solvent probe molecule radius:   2.600
  
 Non-default print settings:
     11=  2
  
 Temporary integer options set:
     21= -1  73=  2
  
  atom       vdw   vdw2    cov     mass  grid  daf  charge   basis
  P1        2.147  2.074  1.060   30.974    Y    Y      Y    ps_6-31g*
  Pd2       1.450  1.450  1.280  105.903    Y    Y      Y    lacv3p*
  C73       1.949  1.900  0.770   12.000    Y    Y      Y    ps_6-31g*
  C74       1.949  1.900  0.770   12.000    Y    Y      Y    ps_6-31g*
  C75       1.949  1.900  0.770   12.000    Y    Y      Y    ps_6-31g*
  C76       1.949  1.900  0.770   12.000    Y    Y      Y    ps_6-31g*
  C77       1.949  1.900  0.770   12.000    Y    Y      Y    ps_6-31g*
  C78       1.949  1.900  0.770   12.000    Y    Y      Y    ps_6-31g*
  F79       1.736  1.682  0.720   18.998    Y    Y      Y    ps_6-31g*
  H80       1.597  1.150  0.320    1.008    Y    Y      Y    ps_6-31g*
  H81       1.597  1.150  0.320    1.008    Y    Y      Y    ps_6-31g*
  H82       1.597  1.150  0.320    1.008    Y    Y      Y    ps_6-31g*
  H83       1.597  1.150  0.320    1.008    Y    Y      Y    ps_6-31g*
  C6        1.949  1.900  0.770   12.000    Y    Y      Y    ps_6-31g*
  C7        1.949  1.900  0.770   12.000    Y    Y      Y    ps_6-31g*
  C8        1.949  1.900  0.770   12.000    Y    Y      Y    ps_6-31g*
  C9        1.949  1.900  0.770   12.000    Y    Y      Y    ps_6-31g*
  C10       1.949  1.900  0.770   12.000    Y    Y      Y    ps_6-31g*
  C11       1.949  1.900  0.770   12.000    Y    Y      Y    ps_6-31g*
  C12       1.949  1.900  0.770   12.000    Y    Y      Y    ps_6-31g*
  C13       1.949  1.900  0.770   12.000    Y    Y      Y    ps_6-31g*
  C14       1.949  1.900  0.770   12.000    Y    Y      Y    ps_6-31g*
  C15       1.949  1.900  0.770   12.000    Y    Y      Y    ps_6-31g*
  C16       1.949  1.900  0.770   12.000    Y    Y      Y    ps_6-31g*
  C17       1.949  1.900  0.770   12.000    Y    Y      Y    ps_6-31g*
  C18       1.949  1.900  0.770   12.000    Y    Y      Y    ps_6-31g*
  C19       1.949  1.900  0.770   12.000    Y    Y      Y    ps_6-31g*
  C20       1.949  1.900  0.770   12.000    Y    Y      Y    ps_6-31g*
  C21       1.949  1.900  0.770   12.000    Y    Y      Y    ps_6-31g*
  C22       1.949  1.900  0.770   12.000    Y    Y      Y    ps_6-31g*
  C23       1.949  1.900  0.770   12.000    Y    Y      Y    ps_6-31g*
  C24       1.949  1.900  0.770   12.000    Y    Y      Y    ps_6-31g*
  C25       1.949  1.900  0.770   12.000    Y    Y      Y    ps_6-31g*
  C26       1.949  1.900  0.770   12.000    Y    Y      Y    ps_6-31g*
  C27       1.949  1.900  0.770   12.000    Y    Y      Y    ps_6-31g*
  C28       1.949  1.900  0.770   12.000    Y    Y      Y    ps_6-31g*
  H29       1.597  1.150  0.320    1.008    Y    Y      Y    ps_6-31g*
  H30       1.597  1.150  0.320    1.008    Y    Y      Y    ps_6-31g*
  H31       1.597  1.150  0.320    1.008    Y    Y      Y    ps_6-31g*
  H32       1.597  1.150  0.320    1.008    Y    Y      Y    ps_6-31g*
  H33       1.597  1.150  0.320    1.008    Y    Y      Y    ps_6-31g*
  H34       1.597  1.150  0.320    1.008    Y    Y      Y    ps_6-31g*
  H35       1.597  1.150  0.320    1.008    Y    Y      Y    ps_6-31g*
  H36       1.597  1.150  0.320    1.008    Y    Y      Y    ps_6-31g*
  H37       1.597  1.150  0.320    1.008    Y    Y      Y    ps_6-31g*
  H38       1.597  1.150  0.320    1.008    Y    Y      Y    ps_6-31g*
  H39       1.597  1.150  0.320    1.008    Y    Y      Y    ps_6-31g*
  H40       1.597  1.150  0.320    1.008    Y    Y      Y    ps_6-31g*
  H41       1.597  1.150  0.320    1.008    Y    Y      Y    ps_6-31g*
  H42       1.597  1.150  0.320    1.008    Y    Y      Y    ps_6-31g*
  H43       1.597  1.150  0.320    1.008    Y    Y      Y    ps_6-31g*
  H44       1.597  1.150  0.320    1.008    Y    Y      Y    ps_6-31g*
  H45       1.597  1.150  0.320    1.008    Y    Y      Y    ps_6-31g*
  H46       1.597  1.150  0.320    1.008    Y    Y      Y    ps_6-31g*
  H47       1.597  1.150  0.320    1.008    Y    Y      Y    ps_6-31g*
  H48       1.597  1.150  0.320    1.008    Y    Y      Y    ps_6-31g*
  H49       1.597  1.150  0.320    1.008    Y    Y      Y    ps_6-31g*
  H50       1.597  1.150  0.320    1.008    Y    Y      Y    ps_6-31g*
  H51       1.597  1.150  0.320    1.008    Y    Y      Y    ps_6-31g*
  H52       1.597  1.150  0.320    1.008    Y    Y      Y    ps_6-31g*
  H53       1.597  1.150  0.320    1.008    Y    Y      Y    ps_6-31g*
  H54       1.597  1.150  0.320    1.008    Y    Y      Y    ps_6-31g*
  H55       1.597  1.150  0.320    1.008    Y    Y      Y    ps_6-31g*
  H56       1.597  1.150  0.320    1.008    Y    Y      Y    ps_6-31g*
  H57       1.597  1.150  0.320    1.008    Y    Y      Y    ps_6-31g*
  H58       1.597  1.150  0.320    1.008    Y    Y      Y    ps_6-31g*
  H59       1.597  1.150  0.320    1.008    Y    Y      Y    ps_6-31g*
  N118      1.831  1.600  0.750   14.003    Y    Y      Y    ps_6-31g*
  H119      1.597  1.150  0.320    1.008    Y    Y      Y    ps_6-31g*
  H120      1.597  1.150  0.320    1.008    Y    Y      Y    ps_6-31g*
  C121      1.949  1.900  0.770   12.000    Y    Y      Y    ps_6-31g*
  C122      1.949  1.900  0.770   12.000    Y    Y      Y    ps_6-31g*
  C123      1.949  1.900  0.770   12.000    Y    Y      Y    ps_6-31g*
  C124      1.949  1.900  0.770   12.000    Y    Y      Y    ps_6-31g*
  C125      1.949  1.900  0.770   12.000    Y    Y      Y    ps_6-31g*
  C126      1.949  1.900  0.770   12.000    Y    Y      Y    ps_6-31g*
  H127      1.597  1.150  0.320    1.008    Y    Y      Y    ps_6-31g*
  H128      1.597  1.150  0.320    1.008    Y    Y      Y    ps_6-31g*
  H129      1.597  1.150  0.320    1.008    Y    Y      Y    ps_6-31g*
  H130      1.597  1.150  0.320    1.008    Y    Y      Y    ps_6-31g*
  H131      1.597  1.150  0.320    1.008    Y    Y      Y    ps_6-31g*
  O2        1.702  1.600  0.730   15.995    Y    Y      Y    ps_6-31g*
  C127      1.949  1.900  0.770   12.000    Y    Y      Y    ps_6-31g*
  C128      1.949  1.900  0.770   12.000    Y    Y      Y    ps_6-31g*
  C106      1.949  1.900  0.770   12.000    Y    Y      Y    ps_6-31g*
  C107      1.949  1.900  0.770   12.000    Y    Y      Y    ps_6-31g*
  H132      1.597  1.150  0.320    1.008    Y    Y      Y    ps_6-31g*
  H133      1.597  1.150  0.320    1.008    Y    Y      Y    ps_6-31g*
  H134      1.597  1.150  0.320    1.008    Y    Y      Y    ps_6-31g*
  H111      1.597  1.150  0.320    1.008    Y    Y      Y    ps_6-31g*
  H112      1.597  1.150  0.320    1.008    Y    Y      Y    ps_6-31g*
  H113      1.597  1.150  0.320    1.008    Y    Y      Y    ps_6-31g*
  H114      1.597  1.150  0.320    1.008    Y    Y      Y    ps_6-31g*
  H115      1.597  1.150  0.320    1.008    Y    Y      Y    ps_6-31g*
  H116      1.597  1.150  0.320    1.008    Y    Y      Y    ps_6-31g*
 
  atom      formal  2spin      esp    mulk    frag
  P1           0       0        Y    0.000       0
  Pd2          2       0        Y    0.000       0
  C73         -1       0        Y    0.000       0
  N118         0       0        Y    0.000       0
  O2          -1       0        Y    0.000       0
  
  end of program pre
   
 Time(pre)  user:       4.499  user+sys:       4.499  wallclock:       1.390
  
  start of program onee
  
  smallest eigenvalue of S:    3.946E-04
  number of canonical orbitals.....          735
  end of program onee
   
 Time(onee)  user:       7.550  user+sys:       7.550  wallclock:       1.325
  
  start of program hfig
  
  initial wavefunction generated automatically from atomic wavefunctions
  Only one state below 0.010000
  Skip d-d repulsion considerations 
 
  Irreducible     Total no   No of occupied orbitals 
  representation  orbitals   Shell_1  Shell_2    ...
  No Symm          735        171
  ------------------------
  Orbital occupation/shell    1.000
 
  end of program hfig
   
 Time(hfig)  user:       2.813  user+sys:       2.813  wallclock:       1.409
  
  start of program probe
  
  end of program probe
   
 Time(probe)  user:       1.445  user+sys:       1.445  wallclock:       0.498
  
  start of program grid
  
   grid     grid set  grid #  grid sym
  ------    --------  ------  --------
  coarse        0        0        1
  medium        2        1        1
  fine          0        0        1
  ultrafine     4        2        1
  charge       -1        3        1
  gradient      4        2        1
  density       0        0        1
  DFT-fine    -11        4        1
  DFT-med.    -10        5        1
  DFT-grad    -12        6        1
  DFT-der2     -8        7        1
  DFT-cphf     -9        8        1
  LMP2-enrg     4        2        1
  LMP2-grad     2        1        1
  DFT-cphf2   -15        9        1
  PBF-dens      0        0        1
  plotting      0        0        1
  Rel-grad    -17        0        1
  
  number of gridpoints: 
     atom           P1         Pd2         C73         C74         C75         C76         C77
  grid # 1         612         340          78          92          91          99          94
  grid # 2         433         283         332         314         303         389         320
  grid # 3           6         195          29          23          19          13           9
  grid # 4        8714        8714        8714        8714        8714        8714        8714
  grid # 5        1192        1192        1192        1192        1192        1192        1192
  grid # 6        9132        9132        5922        5922        5922        5922        5922
  grid # 7       23034       32968       13950       13950       13950       13950       13950
  grid # 8         722        1150         748         748         748         748         748
  grid # 9         366        2198         394         394         394         394         394
   
  number of gridpoints: 
     atom          C78         F79         H80         H81         H82         H83          C6
  grid # 1          92         585         114          89          97         111          81
  grid # 2         319         567         461         378         400         457         236
  grid # 3          17         360         375         116          20         314           6
  grid # 4        8714        8714        8714        8714        8714        8714        8714
  grid # 5        1192        1192        1192        1192        1192        1192        1192
  grid # 6        5922        5922        5922        5922        5922        5922        5922
  grid # 7       13950       23190       15206       15206       15206       15206       13950
  grid # 8         748         770         786         786         786         786         748
  grid # 9         394         420         420         420         420         420         394
   
  number of gridpoints: 
     atom           C7          C8          C9         C10         C11         C12         C13
  grid # 1          88          78          81          88          79          78          79
  grid # 2         363         239         238         366         239         240         239
  grid # 3           6           6           6           6           6           6           6
  grid # 4        8714        8714        8714        8714        8714        8714        8714
  grid # 5        1192        1192        1192        1192        1192        1192        1192
  grid # 6        5922        5922        5922        5922        5922        5922        5922
  grid # 7       13950       13950       13950       13950       13950       13950       13950
  grid # 8         748         748         748         748         748         748         748
  grid # 9         394         394         394         394         394         394         394
   
  number of gridpoints: 
     atom          C14         C15         C16         C17         C18         C19         C20
  grid # 1          86          98          81          96          92          91          94
  grid # 2         384         358         237         357         314         303         318
  grid # 3           6          10           6           6           7          13          13
  grid # 4        8714        8714        8714        8714        8714        8714        8714
  grid # 5        1192        1192        1192        1192        1192        1192        1192
  grid # 6        5922        5922        5922        5922        5922        5922        5922
  grid # 7       13950       13950       13950       13950       13950       13950       13950
  grid # 8         748         748         748         748         748         748         748
  grid # 9         394         394         394         394         394         394         394
   
  number of gridpoints: 
     atom          C21         C22         C23         C24         C25         C26         C27
  grid # 1          95          91         100          95          97          97          96
  grid # 2         317         311         357         326         324         324         324
  grid # 3           9           6          10          27          47          50          40
  grid # 4        8714        8714        8714        8714        8714        8714        8714
  grid # 5        1192        1192        1192        1192        1192        1192        1192
  grid # 6        5922        5922        5922        5922        5922        5922        5922
  grid # 7       13950       13950       13950       13950       13950       13950       13950
  grid # 8         748         748         748         748         748         748         748
  grid # 9         394         394         394         394         394         394         394
   
  number of gridpoints: 
     atom          C28         H29         H30         H31         H32         H33         H34
  grid # 1          95         101         101         109          81         109         100
  grid # 2         324         414         430         446         367         447         423
  grid # 3          19         126         158         268          69         270          77
  grid # 4        8714        8714        8714        8714        8714        8714        8714
  grid # 5        1192        1192        1192        1192        1192        1192        1192
  grid # 6        5922        5922        5922        5922        5922        5922        5922
  grid # 7       13950       15206       15206       15206       15206       15206       15206
  grid # 8         748         786         786         786         786         786         786
  grid # 9         394         420         420         420         420         420         420
   
  number of gridpoints: 
     atom          H35         H36         H37         H38         H39         H40         H41
  grid # 1         104         108          91         103         100         108          97
  grid # 2         436         442         386         436         426         446         406
  grid # 3         190         240          23         177         101         265          28
  grid # 4        8714        8714        8714        8714        8714        8714        8714
  grid # 5        1192        1192        1192        1192        1192        1192        1192
  grid # 6        5922        5922        5922        5922        5922        5922        5922
  grid # 7       15206       15206       15206       15206       15206       15206       15206
  grid # 8         786         786         786         786         786         786         786
  grid # 9         420         420         420         420         420         420         420
   
  number of gridpoints: 
     atom          H42         H43         H44         H45         H46         H47         H48
  grid # 1         104         108         100         109         104         108         103
  grid # 2         432         442         414         446         428         439         427
  grid # 3         170         247         149         273         151         244         162
  grid # 4        8714        8714        8714        8714        8714        8714        8714
  grid # 5        1192        1192        1192        1192        1192        1192        1192
  grid # 6        5922        5922        5922        5922        5922        5922        5922
  grid # 7       15206       15206       15206       15206       15206       15206       15206
  grid # 8         786         786         786         786         786         786         786
  grid # 9         420         420         420         420         420         420         420
   
  number of gridpoints: 
     atom          H49         H50         H51         H52         H53         H54         H55
  grid # 1         103         107         112         114          86         102         112
  grid # 2         423         446         451         457         378         419         450
  grid # 3         153         217         293         322         126         100         238
  grid # 4        8714        8714        8714        8714        8714        8714        8714
  grid # 5        1192        1192        1192        1192        1192        1192        1192
  grid # 6        5922        5922        5922        5922        5922        5922        5922
  grid # 7       15206       15206       15206       15206       15206       15206       15206
  grid # 8         786         786         786         786         786         786         786
  grid # 9         420         420         420         420         420         420         420
   
  number of gridpoints: 
     atom          H56         H57         H58         H59        N118        H119        H120
  grid # 1         118         118         118         109          99          98          76
  grid # 2         466         467         467         440         312         393         341
  grid # 3         417         420         419         185           6          39          21
  grid # 4        8714        8714        8714        8714        8714        8714        8714
  grid # 5        1192        1192        1192        1192        1192        1192        1192
  grid # 6        5922        5922        5922        5922        5922        5922        5922
  grid # 7       15206       15206       15206       15206       13958       15206       15206
  grid # 8         786         786         786         786         756         786         786
  grid # 9         420         420         420         420         406         420         420
   
  number of gridpoints: 
     atom         C121        C122        C123        C124        C125        C126        H127
  grid # 1          99          97          96          95          97          96         109
  grid # 2         354         325         324         325         325         326         441
  grid # 3          30          47          40          37          47          44         204
  grid # 4        8714        8714        8714        8714        8714        8714        8714
  grid # 5        1192        1192        1192        1192        1192        1192        1192
  grid # 6        5922        5922        5922        5922        5922        5922        5922
  grid # 7       13950       13950       13950       13950       13950       13950       15206
  grid # 8         748         748         748         748         748         748         786
  grid # 9         394         394         394         394         394         394         420
   
  number of gridpoints: 
     atom         H128        H129        H130        H131          O2        C127        C128
  grid # 1         105         118         117         118         115          91          80
  grid # 2         420         467         465         467         449         326         243
  grid # 3         166         416         394         420           7           6           6
  grid # 4        8714        8714        8714        8714        8714        8714        8714
  grid # 5        1192        1192        1192        1192        1192        1192        1192
  grid # 6        5922        5922        5922        5922        5922        5922        5922
  grid # 7       15206       15206       15206       15206       23382       13950       13950
  grid # 8         786         786         786         786         774         748         748
  grid # 9         420         420         420         420         416         394         394
   
  number of gridpoints: 
     atom         C106        C107        H132        H133        H134        H111        H112
  grid # 1          79          81          95         109          87         105         107
  grid # 2         245         237         405         449         365         435         440
  grid # 3           6           6          57         268          89         182         224
  grid # 4        8714        8714        8714        8714        8714        8714        8714
  grid # 5        1192        1192        1192        1192        1192        1192        1192
  grid # 6        5922        5922        5922        5922        5922        5922        5922
  grid # 7       13950       13950       15206       15206       15206       15206       15206
  grid # 8         748         748         786         786         786         786         786
  grid # 9         394         394         420         420         420         420         420
   
  number of gridpoints: 
     atom         H113        H114        H115        H116       total
  grid # 1         109         109          88         105       10577
  grid # 2         449         451         378         436       35984
  grid # 3         280         286         112         165       11696
  grid # 4        8714        8714        8714        8714      827830
  grid # 5        1192        1192        1192        1192      113240
  grid # 6        5922        5922        5922        5922      569010
  grid # 7       15206       15206       15206       15206     1436088
  grid # 8         786         786         786         786       73430
  grid # 9         420         420         420         420       40592
   
  end of program grid
   
 Time(grid)  user:     596.458  user+sys:     596.458  wallclock:      40.096
  
  start of program rwr
  
  end of program rwr
   
 Time(rwr)  user:      51.160  user+sys:      51.160  wallclock:      16.029
  
  start of program scf
  
 number of electrons..........        342
 number of alpha electrons....        171
 number of beta electrons.....        171
 number of orbitals, total....        735
 number of doubly-occ'd orbs..        171
 number of open shell orbs....          0
 number of occupied orbitals..        171
 number of virtual orbitals...        564
 number of hamiltonians.......          1
 number of shells.............          1
 SCF type: DFT=Becke_3_Parameter/HF+Slater+Becke88+PW91+PW-GGAIIC (B3PW91-D3)
 Energy computed using pseudospectral method.
 Convergence Criterion:
    Energy (econv):       1.00E-05
    RMS density (dconv):  5.00E-06
  
       i  u  d  i  g                   
       t  p  i  c  r                                 RMS    maximum
       e  d  i  u  i                       energy  density   DIIS  
       r  t  s  t  d       total energy    change  change    error 
  
etot    1  N  N  5  M   -2208.14285009858           1.9E-03  1.4E-01
etot    2  Y  Y  6  M   -2212.03725452285  3.9E+00  3.0E-03  8.7E-02
etot    3  Y  Y  6  M   -2213.26021786867  1.2E+00  1.3E-03  6.1E-02
etot    4  N  Y  2  U   -2213.59620922367  3.4E-01  8.6E-04  4.6E-02
etot    5  Y  Y  6  M   -2213.72268189875  1.3E-01  5.3E-04  2.8E-02
etot    6  N  Y  2  U   -2213.73352722755  1.1E-02  4.7E-04  1.3E-02
etot    7  Y  Y  6  M   -2213.74101595800  7.5E-03  1.2E-04  4.8E-03
etot    8  N  Y  2  U   -2213.74900220846  8.0E-03  3.5E-05  2.4E-03
etot    9  N  Y  2  U   -2213.74951680624  5.1E-04  1.1E-05  2.2E-04
etot   10  N  Y  2  U   -2213.74954256382  2.6E-05  5.7E-06  1.8E-04
etot   11  N  Y  2  U   -2213.74954856655  6.0E-06  1.7E-06  4.8E-05
etot   12  N  N  2  U   -2213.74954888392  3.2E-07  0.0E+00  0.0E+00
 
  Computing the dispersion energy correction and its gradients...
  
  
 Energy components, in hartrees:
   (A)  Nuclear repulsion............    6823.35120844504
   (E)  Total one-electron terms.....  -16665.08769300493
   (F)    Electron-nuclear...........  -18788.01545688889
   (H)    Kinetic....................    2122.92776388396
   (I)  Total two-electron terms.....    7627.98693567597
   (J)    Coulomb....................    7920.65096185883
   (K)    Exchange+Correlation.......    -292.66402618287
   (L)  Electronic energy............   -9037.10075732896  (E+I)
   (N0) D3 correction................      -0.19540143521
   (N)  Total energy.................   -2213.94495031913  (A+L+N0)
   (O)  Gas phase energy.............   -2213.94495031913
  
 SCFE: SCF energy: DFT(b3pw91-d3)     -2213.94495031913 hartrees   iterations:  12
  
 
 HOMO energy:    -0.15099
 LUMO energy:    -0.04142
 
  Orbital energies (hartrees): 
   -77.06309   -24.65946   -19.06420   -14.36826   -10.22395   -10.22118
   -10.21403   -10.19984   -10.19284   -10.18910   -10.18536   -10.18339
   -10.17898   -10.17809   -10.17760   -10.17664   -10.17661   -10.17613
   -10.17555   -10.17523   -10.17509   -10.17347   -10.17295   -10.17263
   -10.17119   -10.17109   -10.17066   -10.16694   -10.16324   -10.15882
   -10.15775   -10.15710   -10.15362   -10.14732   -10.14630   -10.14444
   -10.14308   -10.14288   -10.14210   -10.14164   -10.12763   -10.12169
   -10.09260    -6.56482    -4.72270    -4.72254    -4.71910    -3.33210
    -2.06655    -2.05921    -2.03238    -1.19108    -0.96899    -0.94623
    -0.87288    -0.85903    -0.84985    -0.84596    -0.83429    -0.82092
    -0.81166    -0.75979    -0.75869    -0.75645    -0.75248    -0.75022
    -0.74808    -0.74086    -0.72641    -0.71802    -0.71519    -0.71263
    -0.69541    -0.68690    -0.68563    -0.67351    -0.66346    -0.65670
    -0.62996    -0.61858    -0.61239    -0.60737    -0.60065    -0.59643
    -0.59327    -0.57422    -0.56895    -0.56050    -0.54843    -0.54144
    -0.53891    -0.52296    -0.52198    -0.51039    -0.50090    -0.48766
    -0.48304    -0.48188    -0.47485    -0.46625    -0.46109    -0.45945
    -0.45736    -0.45382    -0.45257    -0.44785    -0.44474    -0.44347
    -0.44069    -0.43822    -0.43618    -0.43351    -0.43152    -0.42952
    -0.42843    -0.42639    -0.42458    -0.42087    -0.41703    -0.41452
    -0.41263    -0.40985    -0.40617    -0.40147    -0.39878    -0.39165
    -0.38899    -0.38418    -0.38163    -0.37641    -0.37505    -0.37298
    -0.36960    -0.36698    -0.36492    -0.36229    -0.36089    -0.35873
    -0.35741    -0.35133    -0.34732    -0.34579    -0.34211    -0.33847
    -0.33694    -0.33579    -0.33148    -0.33091    -0.32718    -0.32226
    -0.31310    -0.30706    -0.30472    -0.28952    -0.28570    -0.27924
    -0.27603    -0.27248    -0.26044    -0.25921    -0.25503    -0.25009
    -0.24442    -0.23718    -0.22858    -0.21603    -0.20983    -0.20223
    -0.19857    -0.18489    -0.15099    -0.04142    -0.03080    -0.01409
    -0.01160    -0.00584     0.00439     0.01413     0.02256     0.03012
     0.03579
 
  end of program scf
   
 Time(scf)  user:     820.131  user+sys:     820.131  wallclock:      76.712
  
  start of program der1a
  
  end of program der1a
   
 Time(der1a)  user:      20.745  user+sys:      20.745  wallclock:       2.030
  
  start of program rwr
  
  end of program rwr
   
 Time(rwr)  user:      50.562  user+sys:      50.562  wallclock:      20.641
  
  start of program der1b
  
   
  forces (hartrees/bohr) : total     
   
 atom  label           x              y              z
 ---- --------   -------------  -------------  -------------
    1 P1         -6.255163E-03   7.040452E-03   3.206945E-03
    2 Pd2         4.754147E-02  -8.422455E-04   1.482602E-02
    3 C73        -1.244260E-03   1.739336E-03   1.325710E-03
    4 C74         1.368207E-02  -7.328881E-03   4.250024E-03
    5 C75         2.543139E-02  -3.297576E-02   1.365223E-02
    6 C76         1.303529E-02  -6.286816E-03  -6.216586E-03
    7 C77         2.695514E-02   7.126288E-03   1.487098E-02
    8 C78         2.888804E-03   7.008651E-04  -3.668574E-04
    9 F79         3.033575E-04  -1.690632E-04  -1.964893E-03
   10 H80        -6.084212E-04   8.118552E-05  -2.479788E-04
   11 H81         6.377351E-03  -4.193402E-02   2.477884E-02
   12 H82         2.100497E-02   1.072332E-02   1.244779E-02
   13 H83         2.257714E-04  -1.871810E-04   4.012735E-04
   14 C6          3.340243E-03  -5.670946E-03  -1.255773E-04
   15 C7         -5.372337E-03   4.039030E-03  -9.512950E-03
   16 C8         -3.543282E-03  -1.260667E-02  -2.215841E-02
   17 C9         -2.814427E-03   9.508234E-04  -6.951886E-03
   18 C10         9.342293E-05  -2.150513E-04  -1.209278E-03
   19 C11        -2.090463E-04  -1.586034E-03   1.209722E-03
   20 C12        -4.326928E-04   1.282134E-03   2.122775E-03
   21 C13         5.718168E-04   6.083733E-03   1.440522E-04
   22 C14         9.215016E-04   3.778399E-03  -2.983709E-03
   23 C15        -3.809788E-03   1.581970E-03   1.242504E-02
   24 C16         1.105949E-03   9.792142E-04   9.702979E-04
   25 C17        -2.342174E-02  -8.929883E-03   1.437287E-03
   26 C18        -1.513277E-02   1.251700E-03  -1.130360E-02
   27 C19        -2.532256E-02  -7.993761E-03  -1.024116E-02
   28 C20        -9.364771E-03   3.617384E-03  -5.662457E-03
   29 C21        -3.058341E-02  -4.460375E-02  -2.042078E-02
   30 C22        -4.518245E-02  -2.048404E-02  -1.345422E-02
   31 C23         1.300990E-03  -5.516597E-04  -2.114232E-03
   32 C24        -1.346737E-03  -8.022339E-04  -1.175154E-03
   33 C25         1.491255E-03   1.847475E-04  -1.141194E-03
   34 C26         6.905306E-04   2.928120E-04  -1.640614E-04
   35 C27        -5.144116E-04  -2.593028E-04   4.637482E-04
   36 C28        -1.847698E-03   1.664100E-04   8.652726E-04
   37 H29         1.136705E-03  -9.911814E-03   2.285260E-03
   38 H30         1.436738E-04   1.852211E-03  -4.397959E-04
   39 H31        -8.684307E-06  -1.286118E-03  -8.280475E-04
   40 H32        -2.434844E-02  -4.192892E-02  -5.425469E-02
   41 H33         1.077728E-03   1.763271E-04   8.260071E-04
   42 H34         3.984608E-03  -4.024316E-06   2.081212E-03
   43 H35        -1.027058E-03   1.154064E-03   1.811890E-03
   44 H36         9.936374E-04   1.414603E-04   1.052711E-03
   45 H37        -6.969560E-04   7.353611E-03  -1.704740E-02
   46 H38         2.307191E-03  -1.366774E-03  -2.346885E-03
   47 H39        -1.823100E-03  -5.442880E-04   1.044195E-03
   48 H40         9.509338E-04  -2.873918E-04   7.914565E-04
   49 H41         7.130896E-04  -3.534742E-03  -1.651525E-03
   50 H42         3.834694E-04  -3.086887E-04  -3.878474E-04
   51 H43         6.463018E-04   1.973481E-04  -2.024718E-03
   52 H44        -2.857086E-03   7.973802E-03  -1.924252E-04
   53 H45        -7.893190E-04   4.220523E-04   2.551722E-04
   54 H46         5.726022E-04  -7.732637E-04   6.641747E-05
   55 H47        -2.685969E-05  -9.206133E-04  -3.168808E-04
   56 H48         1.021630E-03  -1.414728E-03  -1.204864E-03
   57 H49         2.488581E-04  -3.441510E-04  -2.161259E-04
   58 H50        -2.131175E-03  -3.596289E-03  -5.721440E-04
   59 H51        -1.739660E-03  -1.235038E-03   5.441832E-04
   60 H52         5.958859E-05  -3.678666E-04  -6.211729E-05
   61 H53        -3.299504E-02  -4.283127E-02  -3.597563E-02
   62 H54        -1.869080E-02  -1.898091E-02  -5.236707E-03
   63 H55         1.677436E-03   1.315182E-04   2.269878E-04
   64 H56         1.427877E-04   1.270037E-04  -5.271203E-05
   65 H57         2.091235E-04   1.405643E-04  -5.372310E-05
   66 H58        -1.056525E-04  -5.918809E-05   8.358937E-05
   67 H59        -1.783894E-04   3.786822E-05  -8.900468E-04
   68 N118        1.143076E-02   9.835188E-03   3.465693E-02
   69 H119        8.588807E-04   3.253079E-03   3.679521E-03
   70 H120        1.667544E-02   2.563201E-02   3.371526E-02
   71 C121       -1.651967E-03   2.541387E-03   5.235449E-03
   72 C122        4.319870E-05  -3.845874E-04   4.358922E-05
   73 C123        1.913372E-03  -3.117389E-04   1.566275E-04
   74 C124        3.966078E-03   2.228417E-03   5.935953E-03
   75 C125       -1.212308E-03  -4.926963E-04   2.751713E-05
   76 C126        5.089136E-04  -3.735487E-04   1.197339E-04
   77 H127        1.195963E-03  -1.525819E-03   1.941134E-04
   78 H128        5.687698E-03  -1.738594E-03   1.167660E-02
   79 H129       -7.072113E-04  -1.032986E-04  -7.020852E-05
   80 H130        5.030423E-06   2.223804E-04  -4.882940E-04
   81 H131       -5.178066E-04   3.483768E-05  -3.719605E-04
   82 O2          3.949362E-02   5.625110E-02   2.390089E-03
   83 C127       -5.717945E-04   9.350825E-03   4.229238E-03
   84 C128       -1.176929E-03   2.712097E-02   1.755590E-02
   85 C106       -2.948964E-03   1.517801E-02  -1.278220E-02
   86 C107        2.201768E-03   1.677654E-03   3.907168E-04
   87 H132       -2.523382E-02   1.046793E-02  -2.042246E-03
   88 H133        2.885644E-03   2.886026E-03  -1.034029E-03
   89 H134        4.010668E-02   4.857578E-02   3.723069E-02
   90 H111       -7.809957E-04   5.109614E-04  -1.176782E-03
   91 H112       -1.317793E-03   3.793103E-04   1.693701E-04
   92 H113       -4.765226E-04  -9.779140E-04  -2.109081E-04
   93 H114       -1.941282E-04  -9.173258E-04  -1.963918E-05
   94 H115       -1.025453E-02   4.177472E-02  -2.581253E-02
   95 H116       -1.323200E-03   9.754327E-04  -2.289623E-04
 -------------   -------------  -------------  -------------
     total       -2.588413E-03   2.747341E-04  -7.532637E-03
   
  end of program der1b
   
 Time(der1b)  user:     245.020  user+sys:     245.020  wallclock:      20.781
  
  start of program geopt
  
 ----------------------------------------------------------------------------
  Geometry optimization step  1
  Total energy:     -2213.94495031913 hartrees
 ----------------------------------------------------------------------------
  
  
  Level shifts adjusted to satisfy step-size constraints
   Step size:    0.3001590
   Cos(theta):   0.8200729
   Final level shift:  -1.0348163E+00
  
  gradient maximum:        5.8758E-01 .  (  2.2500E-03 )
  gradient rms:            8.9001E-02 .  (  1.5000E-03 )
  displacement maximum:    1.0652E-01 .  (  9.0000E-03 )
  displacement rms:        1.6017E-02 .  (  6.0000E-03 )
  
  predicted energy change:  -2.4078E-01
  step size:     0.28919
  trust radius:  0.30000
  
  molecular structure not yet converged...
  
  center of mass moved by:
     x:     1.7479E-02     y:    -6.0584E-02     z:     5.7666E-02
  
  new geometry: 
                                   angstroms
  atom               x                 y                 z
  P1           -0.0696367316      0.0056986044      0.0282097141 
  Pd2          -0.0448903543     -0.0273730644      2.4654292807 
  C73           0.4824091885     -0.2186777855      7.2668560244 
  C74           0.8891301149      0.9186750633      6.5895130707 
  C75           0.7700612502      0.9465280650      5.1976427772 
  C76           0.2394057781     -0.1297223182      4.4814984052 
  C77          -0.1236691453     -1.2699371910      5.2033535902 
  C78          -0.0149402371     -1.3231300860      6.5967279594 
  F79           0.5843529284     -0.2516524227      8.6158054958 
  H80           1.2938460891      1.7602892996      7.1457571782 
  H81           1.0897570394      1.8366317018      4.6627409528 
  H82          -0.5053781599     -2.1450704284      4.6910782989 
  H83          -0.3002216620     -2.2093084279      7.1584470821 
  C6            1.2096004198     -1.1328284948     -2.3498888710 
  C7            1.2018707452     -1.1592464675     -0.8159742157 
  C8            0.8083376380     -2.6011539317     -0.4392724810 
  C9            2.6237843754     -0.8325477924     -0.3504449086 
  C10          -0.0330108835      1.7451108633     -0.7219182512 
  C11           1.1031223309      2.5382029725     -0.0545672918 
  C12          -1.3618719334      2.3995779943     -0.3033379940 
  C13           0.1417925691      1.8469599606     -2.2430079431 
  C14          -1.6521817419     -0.7684963342     -0.4739419806 
  C15          -2.2676712377     -1.4512906944      0.5214320100 
  C16          -2.2160152444     -0.6875065276     -1.8729837516 
  C17          -2.0389183863     -1.2501116667      1.9892888031 
  C18          -2.0166718402     -2.3953519014      2.8322788507 
  C19          -2.5259937043     -2.3351336788      4.1114794674 
  C20          -3.0903674213     -1.1404236426      4.5904287347 
  C21          -3.0726998536     -0.0000554938      3.8086897645 
  C22          -2.5217447371     -0.0298763677      2.5104185238 
  C23          -3.3765824530     -2.4076442893      0.2523144564 
  C24          -4.5725499095     -2.3682890826      0.9860097013 
  C25          -5.5771698121     -3.3021810808      0.7459856884 
  C26          -5.3970988030     -4.3023198151     -0.2128330382 
  C27          -4.2042470296     -4.3598463085     -0.9314987624 
  C28          -3.2039127423     -3.4205124956     -0.7001951157 
  H29           1.4076535137     -0.1418736770     -2.7596219350 
  H30           0.2657797489     -1.4994408014     -2.7649594828 
  H31           2.0028377479     -1.8024588936     -2.7101691064 
  H32           0.9047553094     -2.7886367369      0.6299919075 
  H33           1.4694332978     -3.3047993579     -0.9635631377 
  H34          -0.2227163423     -2.8290742758     -0.7310323517 
  H35           2.9921947663      0.1065400996     -0.7758065519 
  H36           3.2970352358     -1.6307574814     -0.6928299499 
  H37           2.6947452496     -0.7731999505      0.7336255657 
  H38           2.0929215753      2.1351694980     -0.2842394028 
  H39           0.9989081604      2.5508167507      1.0337311662 
  H40           1.0700430813      3.5741875244     -0.4189187558 
  H41          -1.4585693215      2.4085319780      0.7876234489 
  H42          -2.2426318229      1.9018668127     -0.7203022729 
  H43          -1.3737327744      3.4421558535     -0.6480280863 
  H44           1.1289668799      1.5022696235     -2.5588129545 
  H45           0.0568440015      2.9010308294     -2.5406696801 
  H46          -0.6059750566      1.2852554542     -2.8062749505 
  H47          -3.2054615185     -1.1475692655     -1.9243847539 
  H48          -1.5821277716     -1.1578110821     -2.6307414950 
  H49          -2.3365632801      0.3595360421     -2.1722312309 
  H50          -1.6795296040     -3.3427388314      2.4172461596 
  H51          -2.5142708122     -3.2221076316      4.7404589457 
  H52          -3.5153309932     -1.1084382846      5.5902542837 
  H53          -3.4765113444      0.9317292339      4.1897072196 
  H54          -2.7143792448      0.7852464139      1.8232727265 
  H55          -4.7105909357     -1.6032440368      1.7459254151 
  H56          -6.5024938704     -3.2558833249      1.3153701530 
  H57          -6.1798666957     -5.0363327779     -0.3904991056 
  H58          -4.0479033753     -5.1432528794     -1.6695588175 
  H59          -2.2667976518     -3.4774302270     -1.2483556851 
  N118          1.1017012984     -1.8421864353      2.5619920368 
  H119          0.3563912100     -2.5178658491      2.7407068076 
  H120          1.3833241411     -1.9935970322      1.5995100708 
  C121          2.1872513399     -2.1097135018      3.4662812542 
  C122          4.2362536628     -2.6411045645      5.2978079437 
  C123          1.9663959847     -2.9706894147      4.5431541146 
  C124          3.4408833443     -1.5125795394      3.3153205417 
  C125          4.4599460425     -1.7845300729      4.2224754937 
  C126          2.9832299405     -3.2265054087      5.4595784433 
  H127          0.9838292416     -3.4127808887      4.6812499322 
  H128          3.6151742689     -0.8049390652      2.5132424392 
  H129          5.4321279425     -1.3144110377      4.0919695385 
  H130          2.7927483757     -3.8856776565      6.3032865202 
  H131          5.0302677070     -2.8402727626      6.0136670112 
  O2           -1.1058270736      1.7321232592      2.5252512891 
  C127         -1.1558655762      2.9243062342      3.2823172559 
  C128         -1.6741468540      2.7291370307      4.7144093855 
  C106          0.1918174743      3.6602846132      3.2926573241 
  C107         -2.1647103515      3.8259587497      2.5443749014 
  H132         -0.9583659477      2.1655220701      5.3124537729 
  H133         -1.8455061604      3.6987190888      5.2027962231 
  H134         -2.6130456021      2.1631603993      4.6786279840 
  H111         -1.7873177948      4.0827787658      1.5495242393 
  H112         -3.1196533473      3.3016031186      2.4234538150 
  H113         -2.3456554510      4.7590661430      3.0932799071 
  H114          0.1099521790      4.6413621726      3.7800951782 
  H115          0.9367432085      3.0683282713      3.8287862774 
  H116          0.5419248658      3.8126615712      2.2645942515 
   
 
  bond lengths (angstroms):
 
 P1      -Pd2     :   2.437570      P1      -C7      :   1.920019
 P1      -C10     :   1.894621      P1      -C14     :   1.831934
 Pd2     -C76     :   2.038586      Pd2     -N118    :   2.148847
 Pd2     -O2      :   2.055479      C73     -C74     :   1.384842
 C73     -C78     :   1.384284      C73     -F79     :   1.353198
 C74     -C75     :   1.397232      C74     -H80     :   1.086976
 C75     -C76     :   1.397417      C75     -H81     :   1.086559
 C76     -C77     :   1.397494      C77     -C78     :   1.398622
 C77     -H82     :   1.083506      C78     -H83     :   1.087302
 C6      -C7      :   1.534162      C6      -H29     :   1.090458
 C6      -H30     :   1.094297      C6      -H31     :   1.098832
 C7      -C8      :   1.541386      C7      -C9      :   1.531433
[...]
    C8       X     0.00002  -0.00009   0.00020
    C8       Y     0.00000   0.00004  -0.00010
    C8       Z     0.00003  -0.00003   0.00037
    C9       X    -0.00000   0.00003  -0.00006
    C9       Y     0.00001   0.00004   0.00001
    C9       Z     0.00001  -0.00024   0.00064
    C10      X     0.00000  -0.00001  -0.00004
    C10      Y    -0.00001  -0.00002   0.00001
    C10      Z    -0.00001  -0.00004   0.00003
    C11      X     0.00004   0.00003   0.00002
    C11      Y    -0.00002  -0.00002  -0.00002
    C11      Z    -0.00003  -0.00003   0.00003
    C12      X    -0.00001   0.00004   0.00002
    C12      Y    -0.00001   0.00003   0.00002
    C12      Z     0.00016  -0.00004   0.00001
    C13      X     0.00002   0.00001   0.00003
    C13      Y     0.00001   0.00003  -0.00002
    C13      Z     0.00001   0.00002  -0.00000
    C14      X     0.00001   0.00002  -0.00004
    C14      Y    -0.00001  -0.00001   0.00001
    C14      Z     0.00003  -0.00005   0.00005
    C15      X    -0.00005   0.00002   0.00000
    C15      Y     0.00006  -0.00001   0.00001
    C15      Z     0.00001  -0.00006  -0.00006
    C16      X    -0.00001  -0.00004   0.00001
    C16      Y    -0.00002   0.00001  -0.00001
    C16      Z    -0.00001   0.00001  -0.00001
    C17      X     0.00020  -0.00028  -0.00011
    C17      Y    -0.00086   0.00038   0.00015
    C17      Z    -0.00097  -0.00022  -0.00009
    C18      X     0.00030   0.00006   0.00003
    C18      Y    -0.00165  -0.00026  -0.00008
    C18      Z    -0.00152  -0.00068  -0.00024
    C19      X     0.00070  -0.00004   0.00001
    C19      Y    -0.00406  -0.00058  -0.00014
    C19      Z     0.00029   0.00062   0.00021
    C20      X     0.00068  -0.00021  -0.00006
    C20      Y    -0.00611   0.00019   0.00008
    C20      Z     0.01695   0.00052   0.00015
    C21      X    -0.01110  -0.00005  -0.00000
    C21      Y     0.05936  -0.00001  -0.00001
    C21      Z     0.05186   0.00014   0.00004
    C22      X    -0.00338   0.00001   0.00001
    C22      Y     0.02053   0.00002  -0.00000
    C22      Z    -0.00957  -0.00010  -0.00003
    C23      X    -0.00000  -0.00002  -0.00000
    C23      Y    -0.00001  -0.00002  -0.00001
    C23      Z     0.00003   0.00004   0.00002
    C24      X    -0.00001   0.00002   0.00001
    C24      Y     0.00005  -0.00002  -0.00001
    C24      Z     0.00005  -0.00001  -0.00001
    C25      X    -0.00007  -0.00003  -0.00001
    C25      Y     0.00001  -0.00001  -0.00000
    C25      Z     0.00002   0.00001   0.00000
    C26      X    -0.00003  -0.00001  -0.00000
    C26      Y    -0.00002  -0.00000   0.00000
    C26      Z    -0.00001   0.00000   0.00000
    C27      X     0.00001   0.00001  -0.00000
    C27      Y    -0.00003  -0.00001   0.00000
    C27      Z    -0.00003  -0.00002  -0.00000
    C28      X    -0.00000   0.00002   0.00003
    C28      Y     0.00000  -0.00002  -0.00001
    C28      Z     0.00000  -0.00000  -0.00001
    H29      X    -0.00010  -0.00003   0.00009
    H29      Y    -0.00021  -0.00001   0.00002
    H29      Z     0.00008  -0.00001  -0.00019
    H30      X    -0.00019  -0.00010  -0.00038
    H30      Y    -0.00003  -0.00001  -0.00016
    H30      Z    -0.00013  -0.00006  -0.00051
    H31      X    -0.00006  -0.00000  -0.00025
    H31      Y     0.00009  -0.00001   0.00023
    H31      Z     0.00002  -0.00002   0.00031
    H32      X     0.00011  -0.00001   0.00460
    H32      Y    -0.00000   0.00029   0.00150
    H32      Z    -0.00016  -0.00014   0.00224
    H33      X    -0.00016   0.00082  -0.00256
    H33      Y     0.00011  -0.00090   0.00259
    H33      Z     0.00003  -0.00037   0.00120
    H34      X    -0.00022  -0.00055  -0.00053
    H34      Y    -0.00013  -0.00050   0.00013
    H34      Z    -0.00024  -0.00129  -0.00148
    H35      X    -0.00002  -0.00008   0.00035
    H35      Y    -0.00007  -0.00034   0.00119
    H35      Z     0.00003   0.00052  -0.00190
    H36      X    -0.00001   0.00025  -0.00112
    H36      Y    -0.00002  -0.00021   0.00045
    H36      Z    -0.00002  -0.00036   0.00071
    H37      X     0.00000   0.00023  -0.00103
    H37      Y    -0.00000   0.00139  -0.00415
    H37      Z    -0.00016   0.00170  -0.00467
    H38      X    -0.00040  -0.00019  -0.00031
    H38      Y     0.00018   0.00009   0.00000
    H38      Z     0.00003   0.00006  -0.00001
    H39      X    -0.00009  -0.00022   0.00010
    H39      Y     0.00000  -0.00012   0.00004
    H39      Z     0.00041   0.00064  -0.00032
    H40      X    -0.00000  -0.00004  -0.00005
    H40      Y    -0.00003   0.00002   0.00015
    H40      Z    -0.00000  -0.00014  -0.00006
    H41      X     0.00062   0.00004   0.00001
    H41      Y     0.00037   0.00004   0.00002
    H41      Z    -0.00189   0.00089  -0.00018
    H42      X    -0.00034  -0.00035  -0.00013
    H42      Y    -0.00019  -0.00013  -0.00004
    H42      Z    -0.00029  -0.00042  -0.00009
    H43      X    -0.00004  -0.00005  -0.00010
    H43      Y     0.00001  -0.00024   0.00011
    H43      Z     0.00008   0.00006  -0.00002
    H44      X    -0.00022  -0.00004  -0.00037
    H44      Y     0.00003   0.00001  -0.00006
    H44      Z     0.00004  -0.00000   0.00009
    H45      X     0.00001   0.00005  -0.00010
    H45      Y     0.00001  -0.00007   0.00019
    H45      Z    -0.00002  -0.00004   0.00000
    H46      X    -0.00007  -0.00013   0.00006
    H46      Y    -0.00010  -0.00019  -0.00002
    H46      Z    -0.00011  -0.00025   0.00001
    H47      X     0.00005  -0.00017  -0.00014
    H47      Y    -0.00001  -0.00002  -0.00002
    H47      Z    -0.00001  -0.00015   0.00002
    H48      X    -0.00009   0.00007   0.00001
    H48      Y     0.00017   0.00005   0.00020
    H48      Z     0.00019   0.00024   0.00033
    H49      X     0.00007   0.00007   0.00006
    H49      Y    -0.00002  -0.00034  -0.00012
    H49      Z     0.00008   0.00030   0.00011
    H50      X    -0.00253   0.00009   0.00003
    H50      Y     0.01667   0.00255   0.00078
    H50      Z     0.01509   0.00243   0.00064
    H51      X    -0.00610  -0.00004  -0.00001
    H51      Y     0.03676   0.00365   0.00064
    H51      Z    -0.01116  -0.00145  -0.00030
    H52      X    -0.00247   0.00051   0.00013
    H52      Y     0.03843   0.00050   0.00008
    H52      Z    -0.17827  -0.00390  -0.00087
    H53      X     0.12188   0.00047   0.00010
    H53      Y    -0.67534  -0.00104  -0.00021
    H53      Z    -0.58467  -0.00089  -0.00013
    H54      X     0.03777   0.00043   0.00012
    H54      Y    -0.22445  -0.00023  -0.00014
    H54      Z     0.08019   0.00011  -0.00001
    H55      X     0.00008  -0.00020  -0.00011
    H55      Y    -0.00038   0.00029   0.00016
    H55      Z    -0.00043   0.00013   0.00009
    H56      X     0.00081   0.00013  -0.00001
    H56      Y    -0.00008  -0.00001  -0.00000
    H56      Z    -0.00029  -0.00007  -0.00001
    H57      X     0.00033   0.00013  -0.00001
    H57      Y     0.00028   0.00013   0.00001
    H57      Z     0.00014   0.00006   0.00001
    H58      X    -0.00008  -0.00003   0.00001
    H58      Y     0.00033   0.00017   0.00005
    H58      Z     0.00030   0.00013   0.00002
    H59      X     0.00014  -0.00006  -0.00010
    H59      Y    -0.00004   0.00001   0.00006
    H59      Z    -0.00006   0.00000   0.00011
    N118     X     0.00016  -0.04567  -0.04863
    N118     Y     0.00013  -0.03470   0.00039
    N118     Z     0.00002  -0.01971   0.05607
    H119     X    -0.00189   0.78880   0.28105
    H119     Y    -0.00164   0.44156   0.17358
    H119     Z    -0.00007  -0.03871  -0.00143
    H120     X     0.00012  -0.16260   0.39439
    H120     Y    -0.00011   0.05650  -0.18394
    H120     Z    -0.00039   0.30448  -0.78554
    C121     X     0.00001  -0.00016  -0.00021
    C121     Y    -0.00000  -0.00082   0.00019
    C121     Z     0.00002   0.00013   0.00015
    C122     X     0.00002   0.00002   0.00007
    C122     Y    -0.00001  -0.00005   0.00012
    C122     Z     0.00002   0.00008  -0.00014
    C123     X    -0.00020   0.00049   0.00007
    C123     Y    -0.00007   0.00001   0.00023
    C123     Z    -0.00002   0.00028  -0.00010
    C124     X     0.00001   0.00062  -0.00001
    C124     Y     0.00003  -0.00004   0.00006
    C124     Z    -0.00003   0.00048  -0.00026
    C125     X     0.00004  -0.00018   0.00017
    C125     Y     0.00001   0.00004  -0.00016
    C125     Z     0.00000  -0.00009   0.00019
    C126     X    -0.00002  -0.00005  -0.00013
    C126     Y    -0.00004   0.00011  -0.00005
    C126     Z     0.00005  -0.00007  -0.00004
    H127     X     0.00226   0.00020   0.00012
    H127     Y     0.00083   0.00018   0.00036
    H127     Z     0.00023  -0.00110  -0.00026
    H128     X    -0.00013   0.00011   0.00017
    H128     Y    -0.00025   0.00017   0.00005
    H128     Z     0.00031  -0.00087   0.00162
    H129     X    -0.00048   0.00137  -0.00044
    H129     Y    -0.00018   0.00047  -0.00010
    H129     Z    -0.00003   0.00009  -0.00006
    H130     X     0.00025  -0.00025   0.00013
    H130     Y     0.00048  -0.00095   0.00021
    H130     Z    -0.00054   0.00114  -0.00017
    H131     X    -0.00021   0.00004   0.00005
    H131     Y     0.00009  -0.00015   0.00018
    H131     Z    -0.00025  -0.00009   0.00024
    O2       X    -0.00003  -0.00009  -0.00001
    O2       Y     0.00007   0.00004  -0.00002
    O2       Z    -0.00001  -0.00001   0.00003
    C127     X    -0.00001  -0.00000   0.00001
    C127     Y    -0.00006  -0.00005  -0.00000
    C127     Z    -0.00009  -0.00015   0.00001
    C128     X    -0.00019   0.00008   0.00001
    C128     Y     0.00007   0.00004   0.00002
    C128     Z    -0.00004   0.00004   0.00000
    C106     X     0.00003   0.00001   0.00000
    C106     Y    -0.00000  -0.00003   0.00001
    C106     Z     0.00004   0.00001  -0.00001
    C107     X     0.00005   0.00004   0.00001
    C107     Y     0.00005   0.00002   0.00001
    C107     Z     0.00002   0.00005  -0.00002
    H132     X     0.00116   0.00023   0.00013
    H132     Y     0.00104  -0.00003  -0.00006
    H132     Z    -0.00009   0.00008   0.00009
    H133     X    -0.00032  -0.00015  -0.00000
    H133     Y     0.00077  -0.00002  -0.00009
    H133     Z     0.00060   0.00014  -0.00004
    H134     X     0.00302  -0.00105  -0.00024
    H134     Y     0.00395  -0.00038  -0.00007
    H134     Z    -0.00011  -0.00039  -0.00007
    H111     X    -0.00011   0.00005  -0.00008
    H111     Y    -0.00017  -0.00004  -0.00010
    H111     Z     0.00031  -0.00001   0.00013
    H112     X    -0.00050  -0.00036  -0.00002
    H112     Y    -0.00028  -0.00027   0.00002
    H112     Z    -0.00013  -0.00016  -0.00003
    H113     X    -0.00000  -0.00028   0.00003
    H113     Y    -0.00011   0.00044  -0.00005
    H113     Z    -0.00016   0.00010   0.00000
    H114     X     0.00004  -0.00009   0.00001
    H114     Y    -0.00011   0.00037  -0.00004
    H114     Z    -0.00010   0.00019  -0.00002
    H115     X    -0.00018  -0.00004   0.00003
    H115     Y     0.00015   0.00004  -0.00002
    H115     Z    -0.00021  -0.00016   0.00004
    H116     X    -0.00020  -0.00007  -0.00009
    H116     Y    -0.00013  -0.00008  -0.00007
    H116     Z     0.00016   0.00003   0.00012
  
  Number of imaginary frequencies:   0
   
  Writing vibrational animation data to L_Ar_OtBu_N_Ar_trans_PL747.vib
  Writing IR vibrational spectrum data to L_Ar_OtBu_N_Ar_trans_PL747_vib.spm
  rotational symmetry number:  1

  rotational temperatures (K):      0.004890      0.002695      0.002426
   
  The Quasi-Harmonic approximation will be applied to compute
  vibrational constributions to thermodynamic properties.
  Frequencies will be adjusted to a minimum value of  100.00 cm^-1.

  vibrational temperatures:
       mode:      1        2        3        4        5        6
  temp. (K):   143.88   143.88   143.88   143.88   143.88   143.88
   
       mode:      7        8        9       10       11       12
  temp. (K):   143.88   143.88   143.88   143.88   143.88   143.88
   
       mode:     13       14       15       16       17       18
  temp. (K):   143.88   143.88   143.88   145.25   155.61   159.51
   
       mode:     19       20       21       22       23       24
  temp. (K):   162.86   170.48   182.74   191.53   202.00   215.22
   
       mode:     25       26       27       28       29       30
  temp. (K):   221.61   249.51   262.82   267.42   277.46   279.58
   
       mode:     31       32       33       34       35       36
  temp. (K):   297.77   317.03   323.60   334.60   348.27   354.81
   
       mode:     37       38       39       40       41       42
  temp. (K):   362.59   368.61   371.49   378.57   385.57   396.72
   
       mode:     43       44       45       46       47       48
  temp. (K):   418.21   426.44   439.58   445.78   452.17   453.12
   
       mode:     49       50       51       52       53       54
  temp. (K):   466.42   489.49   495.05   509.98   517.58   530.22
   
       mode:     55       56       57       58       59       60
  temp. (K):   549.08   553.99   566.70   589.26   592.91   594.09
   
       mode:     61       62       63       64       65       66
  temp. (K):   597.66   599.14   603.01   605.95   614.47   617.49
   
       mode:     67       68       69       70       71       72
  temp. (K):   639.31   677.41   679.77   682.64   693.00   718.34
   
       mode:     73       74       75       76       77       78
  temp. (K):   732.75   762.25   775.53   796.25   807.40   835.14
   
       mode:     79       80       81       82       83       84
  temp. (K):   836.81   862.74   875.46   877.56   898.39   903.77
   
       mode:     85       86       87       88       89       90
  temp. (K):   906.62   912.17   914.39   965.02  1002.93  1021.39
   
       mode:     91       92       93       94       95       96
  temp. (K):  1027.09  1043.11  1051.71  1101.12  1108.90  1120.48
   
       mode:     97       98       99      100      101      102
  temp. (K):  1133.02  1166.17  1188.62  1190.36  1194.14  1197.99
   
       mode:    103      104      105      106      107      108
  temp. (K):  1201.58  1204.14  1219.66  1254.19  1265.07  1314.13
   
       mode:    109      110      111      112      113      114
  temp. (K):  1320.10  1320.56  1331.53  1360.34  1364.10  1369.25
   
       mode:    115      116      117      118      119      120
  temp. (K):  1370.89  1377.72  1381.49  1382.66  1388.34  1393.46
   
       mode:    121      122      123      124      125      126
  temp. (K):  1409.59  1417.58  1426.91  1432.81  1437.63  1438.88
   
       mode:    127      128      129      130      131      132
  temp. (K):  1449.17  1463.80  1464.92  1466.67  1470.07  1470.89
   
       mode:    133      134      135      136      137      138
  temp. (K):  1479.31  1481.64  1496.10  1499.33  1507.64  1514.47
   
       mode:    139      140      141      142      143      144
  temp. (K):  1521.48  1521.84  1531.94  1533.16  1536.99  1542.81
   
       mode:    145      146      147      148      149      150
  temp. (K):  1552.81  1602.83  1608.47  1610.67  1613.28  1615.71
   
       mode:    151      152      153      154      155      156
  temp. (K):  1657.31  1719.37  1727.88  1733.07  1733.90  1734.71
   
       mode:    157      158      159      160      161      162
  temp. (K):  1743.14  1743.99  1755.17  1757.94  1759.90  1760.97
   
       mode:    163      164      165      166      167      168
  temp. (K):  1764.02  1772.56  1776.77  1788.10  1803.25  1816.86
   
       mode:    169      170      171      172      173      174
  temp. (K):  1819.52  1833.55  1836.58  1874.99  1897.50  1925.80
   
       mode:    175      176      177      178      179      180
  temp. (K):  1937.28  1945.81  1981.24  1983.26  1984.80  2010.24
   
       mode:    181      182      183      184      185      186
  temp. (K):  2021.84  2028.08  2040.11  2046.73  2050.59  2052.69
   
       mode:    187      188      189      190      191      192
  temp. (K):  2056.49  2062.97  2067.19  2092.69  2108.64  2135.31
   
       mode:    193      194      195      196      197      198
  temp. (K):  2145.55  2152.69  2156.59  2157.38  2161.36  2171.95
   
       mode:    199      200      201      202      203      204
  temp. (K):  2173.38  2177.46  2179.21  2180.13  2186.84  2190.66
   
       mode:    205      206      207      208      209      210
  temp. (K):  2195.24  2195.70  2197.79  2200.35  2203.98  2205.27
   
       mode:    211      212      213      214      215      216
  temp. (K):  2210.10  2219.25  2220.11  2230.09  2233.34  2235.32
   
       mode:    217      218      219      220      221      222
  temp. (K):  2240.36  2250.41  2352.85  2361.29  2364.80  2372.71
   
       mode:    223      224      225      226      227      228
  temp. (K):  2377.83  2391.45  2399.23  2403.89  2416.59  2429.89
   
       mode:    229      230      231      232      233      234
  temp. (K):  4361.01  4372.21  4374.04  4374.85  4376.68  4379.22
   
       mode:    235      236      237      238      239      240
  temp. (K):  4385.84  4388.40  4391.56  4403.70  4469.66  4474.92
   
       mode:    241      242      243      244      245      246
  temp. (K):  4482.55  4486.82  4488.54  4488.94  4494.42  4499.94
   
       mode:    247      248      249      250      251      252
  temp. (K):  4506.00  4511.99  4512.04  4522.27  4545.71  4546.61
   
       mode:    253      254      255      256      257      258
  temp. (K):  4549.59  4552.48  4555.48  4572.13  4578.94  4579.61
   
       mode:    259      260      261      262      263      264
  temp. (K):  4579.90  4583.69  4589.24  4589.88  4591.51  4595.77
   
       mode:    265      266      267      268      269      270
  temp. (K):  4597.16  4601.18  4604.35  4612.73  4612.91  4615.07
   
       mode:    271      272      273      274      275      276
  temp. (K):  4616.37  4622.37  4623.50  4628.58  4630.25  4636.86
   
       mode:    277      278      279
  temp. (K):  4660.16  5006.62  5176.91
   
   
  Thermodynamic properties calculated assuming an ideal gas

  In the table below, the units for temperature
  are kelvins, the units for U, H, and G are
  kcal/mol and the units for Cv and S are cal/(mol K)

  The zero point energy (ZPE):    513.487 kcal/mol
  is not included in U, H, or G in the table below
  
 
  =============================================================================
  Thermodynamic properties for P = 1.00E+00 atm, calculated at   1 temperatures


  T =   298.15 K, P = 1.00E+00 atm
   
                  U         Cv          S          H          G        ln(Q)
              =========  =========  =========  =========  =========  =========
  trans.          0.889      2.981     45.541      1.481    -12.097   20.41700
  rot.            0.889      2.981     38.250      0.889    -10.515   17.74798
  vib.           26.861    177.252    162.609     26.861    -21.621   36.49232
  elec.           0.000      0.000      0.000      0.000      0.000    0.00000
  ----------------------------------------------------------------------------
  total          28.638    183.214    246.400     29.231    -44.233   74.65730
   
   Total internal energy, Utot(SCFE + ZPE + U):   -2213.395253 hartrees
   Total enthalpy, Htot (Utot + nRT), with n=1:   -2213.394309 hartrees
    Total Gibbs free energy, Gtot (Htot - T*S):   -2213.511382 hartrees
   
  end of program freq
   
 Time(freq)  user:       0.898  user+sys:       0.898  wallclock:       0.523
  
  start of program post
  
  Writing input files for PBF
  end of program post
   
 Time(post)  user:       0.232  user+sys:       0.232  wallclock:       0.083

 Total cpu seconds     user:  145832.422   user+sys:  145832.422
  
 Total elapsed time:    17547 seconds

Job L_Ar_OtBu_N_Ar_trans_PL747 completed on bp1-compute167 at Tue Nov 25 02:16:46 2025
