Job L_Ar_OtBu_PL747 started on bp1-compute167 at Tue Nov 25 07:24:53 2025
jobid: bp1-compute167-0-692559c1

  +--------------------------------------------------------------------+
  |  Jaguar version 12.5, release 138                                  |
  |                                                                    |
  |  Copyright Schrodinger, Inc.                                       |
  |  All Rights Reserved.                                              |
  |                                                                    |
  |  The following have contributed to Jaguar (listed alphabetically): |
  |  Ty Balduf, Mike Beachy, Chandler Bennett, Art Bochevarov,         |
  |  Dale Braden, Yixiang Cao, Alan Chien, Chris Cortis,               |
  |  Rich Friesner, Jim Furness, Bill Goddard, Hod Greeley,            |
  |  Tom Hughes, Leif Jacobson, Jean-Marc Langlois, Daniel Levine,     |
  |  Rob Murphy, Dean Philipp, Tom Pollard, Murco Ringnalda,           |
  |  Daniel Mainz, Pablo Videla, Mark Watson, Haoyu Yu.                |
  |                                                                    |
  |  Use of this program should be acknowledged in publications as:    |
  |                                                                    |
  |  Jaguar, version 12.5, Schrodinger, Inc., New York, NY, 2024.      |
  |                                                                    |
  |  A. D. Bochevarov, E. Harder, T. F. Hughes, J. R. Greenwood,       |
  |  D. A. Braden, D. M. Philipp, D. Rinaldo, M. D. Halls,             |
  |  J. Zhang, R. A. Friesner, "Jaguar: A High-Performance Quantum     |
  |  Chemistry Software Program with Strengths in Life and Materials   |
  |  Sciences", Int. J. Quantum Chem., 2013, 113(18), 2110-2142.       |
  +--------------------------------------------------------------------+
  
  start of program pre
  
  Job name: L_Ar_OtBu_PL747
  Executables used: /software/local/apps/schrodinger2024-3/jaguar-v12.5/bin/Linux-x86_64
  Temporary files : /tmp/ar21627/L_Ar_OtBu_PL747#bp1-compute167-0-692559c1
  Basis file : using default basis file from /software/local/apps/schrodinger2024-3
  Maestro file (input):  L_Ar_OtBu_PL747.mae
  Maestro file (output): L_Ar_OtBu_PL747.01.mae
  
 Contents of input file: &gen and (if present) &atomic sections only
 ----------------Contents start----------------
&gen
dftname=b3pw91-d3
basis=6-31G*
numd=5
ip11=2
iaccg=3
isolv=2
igeopt=1
solvent=benzene
ifreq=1
&
&atomic
atom basis
Pd2 lacv3p*
&
 -----------------Contents end-----------------
 
  PS calculation requested. Using PS version of 6-31g*
  basis set:               non_standard                    
  net molecular charge:    0
  multiplicity:            1
  
  Using up to  18 threads per process
  
  This run will use ECP on 1 atom
  number of basis functions....          627
  
 Input geometry:
                                   angstroms
  atom               x                 y                 z
  P1            0.0000000000      0.0000000000      0.0000000000 
  Pd2           0.0000000000      0.0000000000      2.3493403021 
  C73           1.0851022664      4.6263571212      2.8836920289 
  C74          -0.2496979232      4.3000340925      2.6985385258 
  C75          -0.6016954497      2.9570230225      2.5434029555 
  C76           0.3733919141      1.9577957392      2.5485782283 
  C77           1.7026660866      2.3148567121      2.8061575265 
  C78           2.0699093022      3.6525759362      2.9601613181 
  F79           1.4327360831      5.9255205150      3.0188039613 
  H80          -1.0007630397      5.0856208427      2.6878250072 
  H82           2.4685653342      1.5524820851      2.9163426942 
  H83           3.1008386106      3.9391023216      3.1501496744 
  H14          -1.6503064748      2.7079356761      2.4411518899 
  C6            1.6932150002      0.2507209728     -2.3661662097 
  C7            1.5819914546      0.6094087943     -0.8747336756 
  C8            2.7385616450     -0.0930600644     -0.1470841958 
  C9            1.7101735525      2.1333438973     -0.7272635479 
  C10          -1.5643935570      0.8589120283     -0.6873714380 
  C11          -1.7995536269      2.1348795892      0.1325062974 
  C12          -2.7409948381     -0.0945297299     -0.4252752425 
  C13          -1.5386481930      1.2450617618     -2.1734050868 
  C14          -0.0987006088     -1.7640803121     -0.5117800633 
  C15           0.0505714302     -2.7118911840      0.4444733776 
  C16          -0.3172163899     -2.1729677661     -1.9567173608 
  C17          -0.1088484438     -2.5240783305      1.9163043002 
  C18           0.8699105354     -3.0163573569      2.8109956648 
  C19           0.5572407011     -3.2547296121      4.1384854386 
  C20          -0.7435760073     -3.0392333499      4.6131987254 
  C21          -1.7177436434     -2.5470739455      3.7577786688 
  C22          -1.4054788296     -2.2703902810      2.4195580670 
  C23           0.2755426598     -4.1383926060      0.0756877681 
  C24          -0.5927833847     -5.1462904941      0.5158032738 
  C25          -0.3558236138     -6.4780078132      0.1843426732 
  C26           0.7659697946     -6.8248431566     -0.5704373404 
  C27           1.6497605167     -5.8313487853     -0.9933361631 
  C28           1.4032849011     -4.4979052486     -0.6749713549 
  H29           0.8549252339      0.6027884568     -2.9692963300 
  H30           1.8075190898     -0.8238461693     -2.5227922773 
  H31           2.6004394311      0.7293897389     -2.7598049922 
  H32           2.7934806200      0.1983713857      0.9017348576 
  H33           3.6871096854      0.1844768674     -0.6261220693 
  H34           2.6402627131     -1.1840459649     -0.1981429135 
  H35           0.9662795177      2.6665410468     -1.3284119835 
  H36           2.7003924787      2.4374217338     -1.0917478096 
  H37           1.6213440734      2.4634900270      0.3078628215 
  H38          -0.9653956296      2.8383066496      0.0606466192 
  H39          -1.9548070570      1.8939333347      1.1885054868 
  H40          -2.7019252558      2.6411523656     -0.2359372689 
  H41          -2.8264732394     -0.3305420935      0.6408952682 
  H42          -2.6588953625     -1.0331040536     -0.9835070021 
  H43          -3.6758569079      0.3961706608     -0.7272553747 
  H44          -0.7561765712      1.9750384630     -2.3989315715 
  H45          -2.4999186442      1.7154459307     -2.4223325391 
  H46          -1.4205616152      0.3905695942     -2.8446988429 
  H47          -1.0284632886     -3.0055262502     -2.0032152073 
  H48           0.5988732229     -2.5129992460     -2.4486073632 
  H49          -0.7147434809     -1.3558805365     -2.5582858580 
  H50           1.8626939258     -3.2407322931      2.4300996927 
  H51           1.3249215062     -3.6211807494      4.8158718610 
  H52          -0.9829897847     -3.2459590516      5.6526984179 
  H53          -2.7234149275     -2.3560390308      4.1216744785 
  H54          -2.1943332808     -1.9984827864      1.7250144202 
  H55          -1.4565560997     -4.8816617024      1.1212281969 
  H56          -1.0436956896     -7.2494553171      0.5243017813 
  H57           0.9559534676     -7.8667422808     -0.8195607595 
  H58           2.5357984924     -6.0952213813     -1.5672549181 
  H59           2.1017226645     -3.7256756796     -0.9900783629 
  O3           -0.0327999077     -0.2657265772      4.3137415049 
  C105          0.4644875224      0.5808227558      5.3128822524 
  C106         -0.3708122586      0.2785419354      6.5684105024 
  C107          1.9401843581      0.2992697586      5.6555837729 
  C108          0.2770298389      2.0611501392      4.9502521490 
  H109         -0.0144728216      0.8393540763      7.4426340297 
  H110         -1.4123529958      0.5444312858      6.3833384778 
  H111         -0.3251466514     -0.7931591494      6.7940886678 
  H112          0.5786884214      2.7280447180      5.7699223577 
  H113          0.8722007921      2.3124932762      4.0658131902 
  H114         -0.7778155424      2.2444520796      4.7146055672 
  H115          2.2374995148      0.8191055790      6.5769206349 
  H116          2.0748346913     -0.7780324622      5.8041215146 
  H117          2.6127958773      0.6140497774      4.8564082705 
   
  principal moments of inertia:
        amu*angstrom^2:              3501.55014              6285.81644              8063.63489
                g*cm^2:          5.81446008E-37          1.04378425E-36          1.33899791E-36
   
  rotational constants:
               cm^(-1):      0.00481433      0.00268185      0.00209057
                   GHz:      0.14433008      0.08039990      0.06267385
   
  Molecular weight:     612.21 amu
   
  Stoichiometry: PdC33PH44OF
  Molecular Point Group: C1      
  Point Group used: C1
  
 
Number of optimization coordinates:   263
Number of independent coordinates:    263
Number of non-redundant coordinates:  237
Number of frozen coordinates:           0
Number of harmonic constraints:         0
 
Number of geometric degrees of freedom:   237
Maximum geometric degrees of freedom:     237
 " " " " " excluding dummy atoms:         237
 
 
  bond lengths (angstroms):
 
 P1      -Pd2     :   2.349340      P1      -C7      :   1.907678
 P1      -C10     :   1.912469      P1      -C14     :   1.839467
 Pd2     -C76     :   2.003018      Pd2     -O3      :   1.982564
 C73     -C74     :   1.386528      C73     -C78     :   1.387062
 C73     -F79     :   1.351640      C74     -C75     :   1.397014
 C74     -H80     :   1.086904      C75     -C76     :   1.396165
 C75     -H14     :   1.082629      C76     -C77     :   1.400289
 C77     -C78     :   1.395735      C77     -H82     :   1.086258
 C78     -H83     :   1.086742      C6      -C7      :   1.537985
 C6      -H29     :   1.091076      C6      -H30     :   1.091921
 C6      -H31     :   1.098695      C7      -C8      :   1.536421
 C7      -C9      :   1.536410      C8      -H32     :   1.089940
 C8      -H33     :   1.098293      C8      -H34     :   1.096595
 C9      -H35     :   1.095015      C9      -H36     :   1.098110
 C9      -H37     :   1.090126      C10     -C11     :   1.534794
 C10     -C12     :   1.536924      C10     -C13     :   1.535601
 C11     -H38     :   1.093523      C11     -H39     :   1.094209
 C11     -H40     :   1.098334      C12     -H41     :   1.095321
 C12     -H42     :   1.095119      C12     -H43     :   1.098156
 C13     -H44     :   1.093613      C13     -H45     :   1.098757
 C13     -H46     :   1.093040      C14     -C15     :   1.354640
 C14     -C16     :   1.517492      C15     -C17     :   1.492305
 C15     -C23     :   1.490477      C16     -H47     :   1.095987
 C16     -H48     :   1.093982      C16     -H49     :   1.089745
 C17     -C18     :   1.414489      C17     -C22     :   1.413815
 C18     -C19     :   1.384490      C18     -H50     :   1.086759
 C19     -C20     :   1.401398      C19     -H51     :   1.087416
 C20     -C21     :   1.386711      C20     -H52     :   1.086561
 C21     -C22     :   1.401748      C21     -H53     :   1.086411
 C22     -H54     :   1.085641      C23     -C24     :   1.401267
 C23     -C28     :   1.401621      C24     -C25     :   1.392655
 C24     -H55     :   1.087507      C25     -C26     :   1.395854
 C25     -H56     :   1.088059      C26     -C27     :   1.395335
 C26     -H57     :   1.087984      C27     -C28     :   1.392903
 C27     -H58     :   1.088152      C28     -H59     :   1.087863
 O3      -C105    :   1.400794      C105    -C106    :   1.538002
 C105    -C107    :   1.540908      C105    -C108    :   1.535581
 C106    -H109    :   1.098069      C106    -H110    :   1.090759
 C106    -H111    :   1.096157      C107    -H115    :   1.098857
 C107    -H116    :   1.095798      C107    -H117    :   1.090951
 C108    -H112    :   1.098911      C108    -H113    :   1.095278
 C108    -H114    :   1.096279
 
  bond angles:
 
 C7      -P1      -Pd2     : 117.292499  C10     -P1      -Pd2     : 111.064322
 C10     -P1      -C7      : 111.720067  C14     -P1      -Pd2     : 106.154110
 C14     -P1      -C7      : 102.901823  C14     -P1      -C10     : 106.667488
 C76     -Pd2     -P1      :  95.708586  O3      -Pd2     -P1      : 172.238546
 O3      -Pd2     -C76     :  92.036275  C78     -C73     -C74     : 121.711357
 F79     -C73     -C74     : 119.154266  F79     -C73     -C78     : 119.122069
 C75     -C74     -C73     : 118.923930  H80     -C74     -C73     : 119.764928
 H80     -C74     -C75     : 121.307437  C76     -C75     -C74     : 120.773389
 H14     -C75     -C74     : 118.406104  H14     -C75     -C76     : 120.806808
 C75     -C76     -Pd2     : 124.678739  C77     -C76     -Pd2     : 116.390823
 C77     -C76     -C75     : 118.761921  C78     -C77     -C76     : 120.961531
 H82     -C77     -C76     : 120.598541  H82     -C77     -C78     : 118.421271
 C77     -C78     -C73     : 118.683340  H83     -C78     -C73     : 119.872413
 H83     -C78     -C77     : 121.439081  H29     -C6      -C7      : 113.905845
 H30     -C6      -C7      : 112.097394  H30     -C6      -H29     : 108.583557
 H31     -C6      -C7      : 107.790769  H31     -C6      -H29     : 107.204742
 H31     -C6      -H30     : 106.912781  C6      -C7      -P1      : 115.475387
 C8      -C7      -P1      : 105.131506  C8      -C7      -C6      : 107.349284
 C9      -C7      -P1      : 110.000678  C9      -C7      -C6      : 108.564406
 C9      -C7      -C8      : 110.196301  H32     -C8      -C7      : 111.802704
 H33     -C8      -C7      : 109.149192  H33     -C8      -H32     : 107.976431
 H34     -C8      -C7      : 111.428683  H34     -C8      -H32     : 108.381134
 H34     -C8      -H33     : 107.969815  H35     -C9      -C7      : 111.938215
 H36     -C9      -C7      : 108.544158  H36     -C9      -H35     : 107.190137
 H37     -C9      -C7      : 112.627296  H37     -C9      -H35     : 108.570077
 H37     -C9      -H36     : 107.745552  C11     -C10     -P1      : 107.861010
 C12     -C10     -P1      : 106.637797  C12     -C10     -C11     : 107.899294
 C13     -C10     -P1      : 116.553664  C13     -C10     -C11     : 108.087051
 C13     -C10     -C12     : 109.503314  H38     -C11     -C10     : 112.507504
 H39     -C11     -C10     : 110.745216  H39     -C11     -H38     : 108.258263
 H40     -C11     -C10     : 109.262450  H40     -C11     -H38     : 107.948460
 H40     -C11     -H39     : 107.979231  H41     -C12     -C10     : 111.063871
 H42     -C12     -C10     : 112.790183  H42     -C12     -H41     : 108.503218
 H43     -C12     -C10     : 109.124621  H43     -C12     -H41     : 107.308525
 H43     -C12     -H42     : 107.855206  H44     -C13     -C10     : 112.297204
 H45     -C13     -C10     : 108.193465  H45     -C13     -H44     : 107.066792
 H46     -C13     -C10     : 113.550396  H46     -C13     -H44     : 108.533926
 H46     -C13     -H45     : 106.861121  C15     -C14     -P1      : 117.949321
 C16     -C14     -P1      : 122.076605  C16     -C14     -C15     : 119.966833
 C17     -C15     -C14     : 126.612203  C23     -C15     -C14     : 120.771536
 C23     -C15     -C17     : 112.371470  H47     -C16     -C14     : 109.787380
 H48     -C16     -C14     : 113.035562  H48     -C16     -H47     : 106.752663
 H49     -C16     -C14     : 112.094157  H49     -C16     -H47     : 108.024618
 H49     -C16     -H48     : 106.876708  C18     -C17     -C15     : 120.405764
 C22     -C17     -C15     : 118.139961  C22     -C17     -C18     : 118.157674
 C19     -C18     -C17     : 120.672473  H50     -C18     -C17     : 118.834474
 H50     -C18     -C19     : 120.452213  C20     -C19     -C18     : 120.527359
 H51     -C19     -C18     : 119.727330  H51     -C19     -C20     : 119.742698
 C21     -C20     -C19     : 119.847806  H52     -C20     -C19     : 119.956445
 H52     -C20     -C21     : 120.191144  C22     -C21     -C20     : 120.163689
 H53     -C21     -C20     : 120.403047  H53     -C21     -C22     : 119.424509
 C21     -C22     -C17     : 120.577861  H54     -C22     -C17     : 118.921872
 H54     -C22     -C21     : 119.889465  C24     -C23     -C15     : 121.141727
 C28     -C23     -C15     : 119.963443  C28     -C23     -C24     : 118.836178
 C25     -C24     -C23     : 120.504910  H55     -C24     -C23     : 119.473058
 H55     -C24     -C25     : 120.022015  C26     -C25     -C24     : 120.201519
 H56     -C25     -C24     : 119.739422  H56     -C25     -C26     : 120.056386
 C27     -C26     -C25     : 119.735573  H57     -C26     -C25     : 120.139051
 H57     -C26     -C27     : 120.122519  C28     -C27     -C26     : 120.017584
 H58     -C27     -C26     : 120.194413  H58     -C27     -C28     : 119.787066
 C27     -C28     -C23     : 120.686017  H59     -C28     -C23     : 119.316070
 H59     -C28     -C27     : 119.983143  C105    -O3      -Pd2     : 128.305904
 C106    -C105    -O3      : 105.705021  C107    -C105    -O3      : 112.841871
 C107    -C105    -C106    : 107.617180  C108    -C105    -O3      : 111.765779
 C108    -C105    -C106    : 108.418066  C108    -C105    -C107    : 110.216880
 H109    -C106    -C105    : 111.919221  H110    -C106    -C105    : 109.401162
 H110    -C106    -H109    : 108.690658  H111    -C106    -C105    : 109.730673
 H111    -C106    -H109    : 108.777906  H111    -C106    -H110    : 108.242487
 H115    -C107    -C105    : 111.048107  H116    -C107    -C105    : 109.114701
 H116    -C107    -H115    : 108.553124  H117    -C107    -C105    : 112.012146
 H117    -C107    -H115    : 108.113053  H117    -C107    -H116    : 107.890948
 H112    -C108    -C105    : 112.047636  H113    -C108    -C105    : 110.217128
 H113    -C108    -H112    : 108.293231  H114    -C108    -C105    : 109.233007
 H114    -C108    -H112    : 108.843958  H114    -C108    -H113    : 108.114458
 
  torsional angles:
 
 P1      -Pd2     -C76     -C75     :  85.773820
 P1      -Pd2     -C76     -C77     : -99.019380
 P1      -Pd2     -O3      -C105    : 159.228186
 P1      -C7      -C6      -H29     :  56.552522
 P1      -C7      -C6      -H30     : -67.240458
 P1      -C7      -C6      -H31     : 175.370534
 P1      -C7      -C8      -H32     : -62.706657
 P1      -C7      -C8      -H33     : 177.901526
 P1      -C7      -C8      -H34     :  58.749884
 P1      -C7      -C9      -H35     : -70.993592
 P1      -C7      -C9      -H36     : 170.895794
 P1      -C7      -C9      -H37     :  51.679096
 P1      -C10     -C11     -H38     :  60.807662
 P1      -C10     -C11     -H39     : -60.497422
 P1      -C10     -C11     -H40     :-179.314292
 P1      -C10     -C12     -H41     :  57.097466
 P1      -C10     -C12     -H42     : -64.955472
 P1      -C10     -C12     -H43     : 175.196556
 P1      -C10     -C13     -H44     : -62.591602
 P1      -C10     -C13     -H45     : 179.460415
 P1      -C10     -C13     -H46     :  61.016065
 P1      -C14     -C15     -C17     :  19.379020
 P1      -C14     -C15     -C23     :-166.753994
 P1      -C14     -C16     -H47     :-138.306125
 P1      -C14     -C16     -H48     : 102.625797
 P1      -C14     -C16     -H49     : -18.243276
 Pd2     -P1      -C7      -C6      : 164.343757
 Pd2     -P1      -C7      -C8      :  46.243720
 Pd2     -P1      -C7      -C9      : -72.377451
 Pd2     -P1      -C10     -C11     :  43.485809
 Pd2     -P1      -C10     -C12     : -72.192186
 Pd2     -P1      -C10     -C13     : 165.200299
 Pd2     -P1      -C14     -C15     :  -9.717758
 Pd2     -P1      -C14     -C16     : 171.262255
 Pd2     -C76     -C75     -C74     : 179.541743
 Pd2     -C76     -C75     -H14     :   0.909564
 Pd2     -C76     -C77     -C78     : 179.915385
 Pd2     -C76     -C77     -H82     :  -1.680645
 Pd2     -O3      -C105    -C106    : 153.559689
 Pd2     -O3      -C105    -C107    : -89.079971
 Pd2     -O3      -C105    -C108    :  35.806423
 C73     -C74     -C75     -C76     :  -1.201093
 C73     -C74     -C75     -H14     : 177.463279
 C73     -C78     -C77     -C76     :   1.461041
 C73     -C78     -C77     -H82     :-176.976904
 C74     -C73     -C78     -C77     :   1.914037
 C74     -C73     -C78     -H83     :-177.271140
 C74     -C75     -C76     -C77     :   4.439939
 C75     -C74     -C73     -C78     :  -2.046790
 C75     -C74     -C73     -F79     : 179.241014
 C75     -C76     -Pd2     -O3      : -94.734077
 C75     -C76     -C77     -C78     :  -4.580440
 C75     -C76     -C77     -H82     : 173.823530
 C76     -Pd2     -P1      -C7      :  58.134696
 C76     -Pd2     -P1      -C10     : -72.029335
 C76     -Pd2     -P1      -C14     : 172.404561
 C76     -Pd2     -O3      -C105    : -17.027016
 C76     -C75     -C74     -H80     : 179.500900
 C76     -C77     -C78     -H83     :-179.367097
 C77     -C76     -Pd2     -O3      :  80.472723
 C77     -C76     -C75     -H14     :-174.192240
 C77     -C78     -C73     -F79     :-179.373364
 C78     -C73     -C74     -H80     : 177.262279
 F79     -C73     -C74     -H80     :  -1.449917
 F79     -C73     -C78     -H83     :   1.441459
 H80     -C74     -C75     -H14     :  -1.834728
 H82     -C77     -C78     -H83     :   2.194958
 C6      -C7      -P1      -C10     : -65.798234
 C6      -C7      -P1      -C14     :  48.279841
 C6      -C7      -C8      -H32     : 173.837918
 C6      -C7      -C8      -H33     :  54.446101
 C6      -C7      -C8      -H34     : -64.705541
 C6      -C7      -C9      -H35     :  56.242207
 C6      -C7      -C9      -H36     : -61.868407
 C6      -C7      -C9      -H37     : 178.914894
 C7      -P1      -Pd2     -O3      :-118.104195
 C7      -P1      -C10     -C11     : -89.541464
 C7      -P1      -C10     -C12     : 154.780541
 C7      -P1      -C10     -C13     :  32.173026
 C7      -P1      -C14     -C15     : 114.068493
 C7      -P1      -C14     -C16     : -64.951494
 C8      -C7      -P1      -C10     : 176.101729
 C8      -C7      -P1      -C14     : -69.820195
 C8      -C7      -C6      -H29     : 173.410345
 C8      -C7      -C6      -H30     :  49.617365
 C8      -C7      -C6      -H31     : -67.771643
 C8      -C7      -C9      -H35     : 173.546388
 C8      -C7      -C9      -H36     :  55.435774
 C8      -C7      -C9      -H37     : -63.780924
 C9      -C7      -P1      -C10     :  57.480559
 C9      -C7      -P1      -C14     : 171.558634
 C9      -C7      -C6      -H29     : -67.480992
 C9      -C7      -C6      -H30     : 168.726028
 C9      -C7      -C6      -H31     :  51.337020
 C9      -C7      -C8      -H32     :  55.782979
 C9      -C7      -C8      -H33     : -63.608838
 C9      -C7      -C8      -H34     : 177.239520
 C10     -P1      -Pd2     -O3      : 111.731774
 C10     -P1      -C14     -C15     :-128.228501
 C10     -P1      -C14     -C16     :  52.751513
 C11     -C10     -P1      -C14     : 158.733583
 C11     -C10     -C12     -H41     : -58.554826
 C11     -C10     -C12     -H42     : 179.392236
 C11     -C10     -C12     -H43     :  59.544264
 C11     -C10     -C13     -H44     :  59.003944
 C11     -C10     -C13     -H45     : -58.944039
 C11     -C10     -C13     -H46     :-177.388388
 C12     -C10     -P1      -C14     :  43.055588
 C12     -C10     -C11     -H38     : 175.654623
 C12     -C10     -C11     -H39     :  54.349540
 C12     -C10     -C11     -H40     : -64.467330
 C12     -C10     -C13     -H44     : 176.305825
 C12     -C10     -C13     -H45     :  58.357842
 C12     -C10     -C13     -H46     : -60.086507
 C13     -C10     -P1      -C14     : -79.551927
 C13     -C10     -C11     -H38     : -66.014336
 C13     -C10     -C11     -H39     : 172.680581
 C13     -C10     -C11     -H40     :  53.863711
 C13     -C10     -C12     -H41     :-175.974549
 C13     -C10     -C12     -H42     :  61.972513
 C13     -C10     -C12     -H43     : -57.875459
 C14     -P1      -Pd2     -O3      :  -3.834330
 C14     -C15     -C17     -C18     :-132.130957
 C14     -C15     -C17     -C22     :  68.743618
 C14     -C15     -C23     -C24     :-122.221470
 C14     -C15     -C23     -C28     :  60.596262
 C15     -C14     -C16     -H47     :  42.693175
 C15     -C14     -C16     -H48     : -76.374902
 C15     -C14     -C16     -H49     : 162.756025
 C15     -C17     -C18     -C19     :-158.449185
 C15     -C17     -C18     -H50     :  19.236938
 C15     -C17     -C22     -C21     : 157.348963
 C15     -C17     -C22     -H54     : -13.681987
 C15     -C23     -C24     -C25     :-178.778820
 C15     -C23     -C24     -H55     :   1.174858
 C15     -C23     -C28     -C27     : 178.037996
 C15     -C23     -C28     -H59     :  -0.563789
 C16     -C14     -C15     -C17     :-161.579525
 C16     -C14     -C15     -C23     :  12.287461
 C17     -C15     -C23     -C24     :  52.457456
 C17     -C15     -C23     -C28     :-124.724812
 C17     -C18     -C19     -C20     :   1.368325
 C17     -C18     -C19     -H51     :-179.221255
 C17     -C22     -C21     -C20     :   1.803375
 C17     -C22     -C21     -H53     :-179.268513
 C18     -C17     -C15     -C23     :  53.566013
 C18     -C17     -C22     -C21     :  -2.251291
 C18     -C17     -C22     -H54     :-173.282241
 C18     -C19     -C20     -C21     :  -1.853629
 C18     -C19     -C20     -H52     : 178.925374
 C19     -C18     -C17     -C22     :   0.672625
 C19     -C20     -C21     -C22     :   0.265325
 C19     -C20     -C21     -H53     :-178.652201
 C20     -C19     -C18     -H50     :-176.280295
 C20     -C21     -C22     -H54     : 172.747830
 C21     -C20     -C19     -H51     : 178.736041
 C22     -C17     -C15     -C23     :-105.559411
 C22     -C17     -C18     -H50     : 178.358748
 C22     -C21     -C20     -H52     : 179.484472
 C23     -C24     -C25     -C26     :   1.210423
 C23     -C24     -C25     -H56     :-179.383878
 C23     -C28     -C27     -C26     :   0.342609
 C23     -C28     -C27     -H58     :-179.306080
 C24     -C23     -C28     -C27     :   0.790986
 C24     -C23     -C28     -H59     :-177.810799
 C24     -C25     -C26     -C27     :  -0.056200
 C24     -C25     -C26     -H57     : 179.329763
 C25     -C24     -C23     -C28     :  -1.565461
 C25     -C26     -C27     -C28     :  -0.715655
 C25     -C26     -C27     -H58     : 178.931588
 C26     -C25     -C24     -H55     :-178.743001
 C26     -C27     -C28     -H59     : 178.935094
 C27     -C26     -C25     -H56     :-179.460005
 C28     -C23     -C24     -H55     : 178.388217
 C28     -C27     -C26     -H57     : 179.898280
 H50     -C18     -C19     -H51     :   3.130126
 H51     -C19     -C20     -H52     :  -0.484956
 H52     -C20     -C21     -H53     :   0.566946
 H53     -C21     -C22     -H54     :  -8.324058
 H55     -C24     -C25     -H56     :   0.662698
 H56     -C25     -C26     -H57     :  -0.074043
 H57     -C26     -C27     -H58     :  -0.454477
 H58     -C27     -C28     -H59     :  -0.713594
 O3      -C105    -C106    -H109    : 175.794383
 O3      -C105    -C106    -H110    : -63.679101
 O3      -C105    -C106    -H111    :  54.934236
 O3      -C105    -C107    -H115    :-167.768189
 O3      -C105    -C107    -H116    : -48.151558
 O3      -C105    -C107    -H117    :  71.241942
 O3      -C105    -C108    -H112    : 174.640472
 O3      -C105    -C108    -H113    : -64.694059
 O3      -C105    -C108    -H114    :  53.952009
 C106    -C105    -C107    -H115    : -51.541110
 C106    -C105    -C107    -H116    :  68.075521
 C106    -C105    -C107    -H117    :-172.530979
 C106    -C105    -C108    -H112    :  58.526247
 C106    -C105    -C108    -H113    : 179.191716
 C106    -C105    -C108    -H114    : -62.162215
 C107    -C105    -C106    -H109    :  54.972245
 C107    -C105    -C106    -H110    : 175.498761
 C107    -C105    -C106    -H111    : -65.887901
 C107    -C105    -C108    -H112    : -59.026999
 C107    -C105    -C108    -H113    :  61.638470
 C107    -C105    -C108    -H114    :-179.715462
 C108    -C105    -C106    -H109    : -64.230444
 C108    -C105    -C106    -H110    :  56.296072
 C108    -C105    -C106    -H111    : 174.909409
 C108    -C105    -C107    -H115    :  66.506211
 C108    -C105    -C107    -H116    :-173.877158
 C108    -C105    -C107    -H117    : -54.483659
 
  nuclear repulsion energy.......          5109.301817806 hartrees
  
  Detected an organometallic with only one TM atom. 
  
  Oxidation state on metal       2 is     2
  Formal multiplet on metal      2 is     1
  Formal charge on ligand        3 is    -1
  Formal multiplet on ligand     3 is     1
  Formal charge on ligand        4 is    -1
  Formal multiplet on ligand     4 is     1
  
 
  Will use High-Quality Initial guess for organometallics
       including d-d repulsion (iguess=30)
 
 Non-default options chosen:
   SCF calculation type: DFT(b3pw91-d3)              
   DFT=Becke_3_Parameter/HF+Slater+Becke88+PW91+PW-GGAIIC (B3PW91-D3)
   Geometry will be optimized in redundant internal coordinates
   Solvation energy will be computed using PBF
     -solute cavity energy will not be included
     -surface area terms will not be included
   Vibrational frequencies and related properties will be computed
      from analytic second derivatives
   IR intensities will be computed
   Thermochemical properties will be computed
   Maximum number of geometry steps: 100
   Scaling standard convergence criteria by a factor of   5.00
   Solvent: benzene                                                         
   Internal dielectric constant:    1.000
   Continuum dielectric constant:   2.283
   Solvent probe molecule radius:   2.600
  
 Non-default print settings:
     11=  2
  
 Temporary integer options set:
     21= -1  73=  2
  
  atom       vdw   vdw2    cov     mass  grid  daf  charge   basis
  P1        2.147  2.074  1.060   30.974    Y    Y      Y    ps_6-31g*
  Pd2       1.450  1.450  1.280  105.903    Y    Y      Y    lacv3p*
  C73       1.949  1.900  0.770   12.000    Y    Y      Y    ps_6-31g*
  C74       1.949  1.900  0.770   12.000    Y    Y      Y    ps_6-31g*
  C75       1.949  1.900  0.770   12.000    Y    Y      Y    ps_6-31g*
  C76       1.949  1.900  0.770   12.000    Y    Y      Y    ps_6-31g*
  C77       1.949  1.900  0.770   12.000    Y    Y      Y    ps_6-31g*
  C78       1.949  1.900  0.770   12.000    Y    Y      Y    ps_6-31g*
  F79       1.736  1.682  0.720   18.998    Y    Y      Y    ps_6-31g*
  H80       1.597  1.150  0.320    1.008    Y    Y      Y    ps_6-31g*
  H82       1.597  1.150  0.320    1.008    Y    Y      Y    ps_6-31g*
  H83       1.597  1.150  0.320    1.008    Y    Y      Y    ps_6-31g*
  H14       1.597  1.150  0.320    1.008    Y    Y      Y    ps_6-31g*
  C6        1.949  1.900  0.770   12.000    Y    Y      Y    ps_6-31g*
  C7        1.949  1.900  0.770   12.000    Y    Y      Y    ps_6-31g*
  C8        1.949  1.900  0.770   12.000    Y    Y      Y    ps_6-31g*
  C9        1.949  1.900  0.770   12.000    Y    Y      Y    ps_6-31g*
  C10       1.949  1.900  0.770   12.000    Y    Y      Y    ps_6-31g*
  C11       1.949  1.900  0.770   12.000    Y    Y      Y    ps_6-31g*
  C12       1.949  1.900  0.770   12.000    Y    Y      Y    ps_6-31g*
  C13       1.949  1.900  0.770   12.000    Y    Y      Y    ps_6-31g*
  C14       1.949  1.900  0.770   12.000    Y    Y      Y    ps_6-31g*
  C15       1.949  1.900  0.770   12.000    Y    Y      Y    ps_6-31g*
  C16       1.949  1.900  0.770   12.000    Y    Y      Y    ps_6-31g*
  C17       1.949  1.900  0.770   12.000    Y    Y      Y    ps_6-31g*
  C18       1.949  1.900  0.770   12.000    Y    Y      Y    ps_6-31g*
  C19       1.949  1.900  0.770   12.000    Y    Y      Y    ps_6-31g*
  C20       1.949  1.900  0.770   12.000    Y    Y      Y    ps_6-31g*
  C21       1.949  1.900  0.770   12.000    Y    Y      Y    ps_6-31g*
  C22       1.949  1.900  0.770   12.000    Y    Y      Y    ps_6-31g*
  C23       1.949  1.900  0.770   12.000    Y    Y      Y    ps_6-31g*
  C24       1.949  1.900  0.770   12.000    Y    Y      Y    ps_6-31g*
  C25       1.949  1.900  0.770   12.000    Y    Y      Y    ps_6-31g*
  C26       1.949  1.900  0.770   12.000    Y    Y      Y    ps_6-31g*
  C27       1.949  1.900  0.770   12.000    Y    Y      Y    ps_6-31g*
  C28       1.949  1.900  0.770   12.000    Y    Y      Y    ps_6-31g*
  H29       1.597  1.150  0.320    1.008    Y    Y      Y    ps_6-31g*
  H30       1.597  1.150  0.320    1.008    Y    Y      Y    ps_6-31g*
  H31       1.597  1.150  0.320    1.008    Y    Y      Y    ps_6-31g*
  H32       1.597  1.150  0.320    1.008    Y    Y      Y    ps_6-31g*
  H33       1.597  1.150  0.320    1.008    Y    Y      Y    ps_6-31g*
  H34       1.597  1.150  0.320    1.008    Y    Y      Y    ps_6-31g*
  H35       1.597  1.150  0.320    1.008    Y    Y      Y    ps_6-31g*
  H36       1.597  1.150  0.320    1.008    Y    Y      Y    ps_6-31g*
  H37       1.597  1.150  0.320    1.008    Y    Y      Y    ps_6-31g*
  H38       1.597  1.150  0.320    1.008    Y    Y      Y    ps_6-31g*
  H39       1.597  1.150  0.320    1.008    Y    Y      Y    ps_6-31g*
  H40       1.597  1.150  0.320    1.008    Y    Y      Y    ps_6-31g*
  H41       1.597  1.150  0.320    1.008    Y    Y      Y    ps_6-31g*
  H42       1.597  1.150  0.320    1.008    Y    Y      Y    ps_6-31g*
  H43       1.597  1.150  0.320    1.008    Y    Y      Y    ps_6-31g*
  H44       1.597  1.150  0.320    1.008    Y    Y      Y    ps_6-31g*
  H45       1.597  1.150  0.320    1.008    Y    Y      Y    ps_6-31g*
  H46       1.597  1.150  0.320    1.008    Y    Y      Y    ps_6-31g*
  H47       1.597  1.150  0.320    1.008    Y    Y      Y    ps_6-31g*
  H48       1.597  1.150  0.320    1.008    Y    Y      Y    ps_6-31g*
  H49       1.597  1.150  0.320    1.008    Y    Y      Y    ps_6-31g*
  H50       1.597  1.150  0.320    1.008    Y    Y      Y    ps_6-31g*
  H51       1.597  1.150  0.320    1.008    Y    Y      Y    ps_6-31g*
  H52       1.597  1.150  0.320    1.008    Y    Y      Y    ps_6-31g*
  H53       1.597  1.150  0.320    1.008    Y    Y      Y    ps_6-31g*
  H54       1.597  1.150  0.320    1.008    Y    Y      Y    ps_6-31g*
  H55       1.597  1.150  0.320    1.008    Y    Y      Y    ps_6-31g*
  H56       1.597  1.150  0.320    1.008    Y    Y      Y    ps_6-31g*
  H57       1.597  1.150  0.320    1.008    Y    Y      Y    ps_6-31g*
  H58       1.597  1.150  0.320    1.008    Y    Y      Y    ps_6-31g*
  H59       1.597  1.150  0.320    1.008    Y    Y      Y    ps_6-31g*
  O3        1.702  1.600  0.730   15.995    Y    Y      Y    ps_6-31g*
  C105      1.949  1.900  0.770   12.000    Y    Y      Y    ps_6-31g*
  C106      1.949  1.900  0.770   12.000    Y    Y      Y    ps_6-31g*
  C107      1.949  1.900  0.770   12.000    Y    Y      Y    ps_6-31g*
  C108      1.949  1.900  0.770   12.000    Y    Y      Y    ps_6-31g*
  H109      1.597  1.150  0.320    1.008    Y    Y      Y    ps_6-31g*
  H110      1.597  1.150  0.320    1.008    Y    Y      Y    ps_6-31g*
  H111      1.597  1.150  0.320    1.008    Y    Y      Y    ps_6-31g*
  H112      1.597  1.150  0.320    1.008    Y    Y      Y    ps_6-31g*
  H113      1.597  1.150  0.320    1.008    Y    Y      Y    ps_6-31g*
  H114      1.597  1.150  0.320    1.008    Y    Y      Y    ps_6-31g*
  H115      1.597  1.150  0.320    1.008    Y    Y      Y    ps_6-31g*
  H116      1.597  1.150  0.320    1.008    Y    Y      Y    ps_6-31g*
  H117      1.597  1.150  0.320    1.008    Y    Y      Y    ps_6-31g*
 
  atom      formal  2spin      esp    mulk    frag
  P1           0       0        Y    0.000       0
  Pd2          2       0        Y    0.000       0
  C73         -1       0        Y    0.000       0
  O3          -1       0        Y    0.000       0
  
  end of program pre
   
 Time(pre)  user:       4.336  user+sys:       4.336  wallclock:       0.868
  
  start of program onee
  
  smallest eigenvalue of S:    4.574E-04
  number of canonical orbitals.....          624
  end of program onee
   
 Time(onee)  user:       5.616  user+sys:       5.616  wallclock:       1.027
  
  start of program hfig
  
  initial wavefunction generated automatically from atomic wavefunctions
  Only one state below 0.010000
  Skip d-d repulsion considerations 
 
  Irreducible     Total no   No of occupied orbitals 
  representation  orbitals   Shell_1  Shell_2    ...
  No Symm          624        146
  ------------------------
  Orbital occupation/shell    1.000
 
  end of program hfig
   
 Time(hfig)  user:       2.154  user+sys:       2.154  wallclock:       0.977
  
  start of program probe
  
  end of program probe
   
 Time(probe)  user:       1.199  user+sys:       1.199  wallclock:       0.405
  
  start of program grid
  
   grid     grid set  grid #  grid sym
  ------    --------  ------  --------
  coarse        0        0        1
  medium        2        1        1
  fine          0        0        1
  ultrafine     4        2        1
  charge       -1        3        1
  gradient      4        2        1
  density       0        0        1
  DFT-fine    -11        4        1
  DFT-med.    -10        5        1
  DFT-grad    -12        6        1
  DFT-der2     -8        7        1
  DFT-cphf     -9        8        1
  LMP2-enrg     4        2        1
  LMP2-grad     2        1        1
  DFT-cphf2   -15        9        1
  PBF-dens      0        0        1
  plotting      0        0        1
  Rel-grad    -17        0        1
  
  number of gridpoints: 
     atom           P1         Pd2         C73         C74         C75         C76         C77
  grid # 1         609         351          78          92          94          98          89
  grid # 2         425         298         329         319         314         362         285
  grid # 3           6         220          24          15           6           6           6
  grid # 4        8714        8714        8714        8714        8714        8714        8714
  grid # 5        1192        1192        1192        1192        1192        1192        1192
  grid # 6        9132        9132        5922        5922        5922        5922        5922
  grid # 7       23034       32968       13950       13950       13950       13950       13950
  grid # 8         722        1150         748         748         748         748         748
  grid # 9         366        2198         394         394         394         394         394
   
  number of gridpoints: 
     atom          C78         F79         H80         H82         H83         H14          C6
  grid # 1          92         584         114         105         113         102          81
  grid # 2         314         566         462         430         463         421         236
  grid # 3           9         360         386         113         388         152           6
  grid # 4        8714        8714        8714        8714        8714        8714        8714
  grid # 5        1192        1192        1192        1192        1192        1192        1192
  grid # 6        5922        5922        5922        5922        5922        5922        5922
  grid # 7       13950       23190       15206       15206       15206       15206       13950
  grid # 8         748         770         786         786         786         786         748
  grid # 9         394         420         420         420         420         420         394
   
  number of gridpoints: 
     atom           C7          C8          C9         C10         C11         C12         C13
  grid # 1          87          78          79          87          81          79          81
  grid # 2         370         240         242         365         235         240         234
  grid # 3           6           6           6           6           6           6           6
  grid # 4        8714        8714        8714        8714        8714        8714        8714
  grid # 5        1192        1192        1192        1192        1192        1192        1192
  grid # 6        5922        5922        5922        5922        5922        5922        5922
  grid # 7       13950       13950       13950       13950       13950       13950       13950
  grid # 8         748         748         748         748         748         748         748
  grid # 9         394         394         394         394         394         394         394
   
  number of gridpoints: 
     atom          C14         C15         C16         C17         C18         C19         C20
  grid # 1          86          98          79          99          95          94          94
  grid # 2         385         358         242         355         321         322         321
  grid # 3           6           9           6           7          13          20          19
  grid # 4        8714        8714        8714        8714        8714        8714        8714
  grid # 5        1192        1192        1192        1192        1192        1192        1192
  grid # 6        5922        5922        5922        5922        5922        5922        5922
  grid # 7       13950       13950       13950       13950       13950       13950       13950
  grid # 8         748         748         748         748         748         748         748
  grid # 9         394         394         394         394         394         394         394
   
  number of gridpoints: 
     atom          C21         C22         C23         C24         C25         C26         C27
  grid # 1          95          94         100          95          97          97          97
  grid # 2         321         319         360         326         324         324         324
  grid # 3          15           7          12          27          46          50          42
  grid # 4        8714        8714        8714        8714        8714        8714        8714
  grid # 5        1192        1192        1192        1192        1192        1192        1192
  grid # 6        5922        5922        5922        5922        5922        5922        5922
  grid # 7       13950       13950       13950       13950       13950       13950       13950
  grid # 8         748         748         748         748         748         748         748
  grid # 9         394         394         394         394         394         394         394
   
  number of gridpoints: 
     atom          C28         H29         H30         H31         H32         H33         H34
  grid # 1          95         102         101         109         104         109         105
  grid # 2         325         425         423         446         434         448         434
  grid # 3          22         142         145         262         133         274         130
  grid # 4        8714        8714        8714        8714        8714        8714        8714
  grid # 5        1192        1192        1192        1192        1192        1192        1192
  grid # 6        5922        5922        5922        5922        5922        5922        5922
  grid # 7       13950       15206       15206       15206       15206       15206       15206
  grid # 8         748         786         786         786         786         786         786
  grid # 9         394         420         420         420         420         420         420
   
  number of gridpoints: 
     atom          H35         H36         H37         H38         H39         H40         H41
  grid # 1         102         109         101         103          98         108          99
  grid # 2         429         446         427         428         405         446         425
  grid # 3         159         261          86         108          60         257         133
  grid # 4        8714        8714        8714        8714        8714        8714        8714
  grid # 5        1192        1192        1192        1192        1192        1192        1192
  grid # 6        5922        5922        5922        5922        5922        5922        5922
  grid # 7       15206       15206       15206       15206       15206       15206       15206
  grid # 8         786         786         786         786         786         786         786
  grid # 9         420         420         420         420         420         420         420
   
  number of gridpoints: 
     atom          H42         H43         H44         H45         H46         H47         H48
  grid # 1         104         108         100         109         101         108         105
  grid # 2         436         447         428         446         425         448         427
  grid # 3         171         276         156         265         153         265         166
  grid # 4        8714        8714        8714        8714        8714        8714        8714
  grid # 5        1192        1192        1192        1192        1192        1192        1192
  grid # 6        5922        5922        5922        5922        5922        5922        5922
  grid # 7       15206       15206       15206       15206       15206       15206       15206
  grid # 8         786         786         786         786         786         786         786
  grid # 9         420         420         420         420         420         420         420
   
  number of gridpoints: 
     atom          H49         H50         H51         H52         H53         H54         H55
  grid # 1          99         113         117         116         117         107         111
  grid # 2         413         458         460         457         464         433         453
  grid # 3         105         285         344         323         372         143         275
  grid # 4        8714        8714        8714        8714        8714        8714        8714
  grid # 5        1192        1192        1192        1192        1192        1192        1192
  grid # 6        5922        5922        5922        5922        5922        5922        5922
  grid # 7       15206       15206       15206       15206       15206       15206       15206
  grid # 8         786         786         786         786         786         786         786
  grid # 9         420         420         420         420         420         420         420
   
  number of gridpoints: 
     atom          H56         H57         H58         H59          O3        C105        C106
  grid # 1         118         118         118         111         119          92          81
  grid # 2         467         467         467         443         473         329         240
  grid # 3         420         420         418         192          32           6           6
  grid # 4        8714        8714        8714        8714        8714        8714        8714
  grid # 5        1192        1192        1192        1192        1192        1192        1192
  grid # 6        5922        5922        5922        5922        5922        5922        5922
  grid # 7       15206       15206       15206       15206       23382       13950       13950
  grid # 8         786         786         786         786         774         748         748
  grid # 9         420         420         420         420         416         394         394
   
  number of gridpoints: 
     atom         C107        C108        H109        H110        H111        H112        H113
  grid # 1          79          81         109         110         106         108          93
  grid # 2         242         241         449         450         443         452         385
  grid # 3           6           6         277         279         207         266          24
  grid # 4        8714        8714        8714        8714        8714        8714        8714
  grid # 5        1192        1192        1192        1192        1192        1192        1192
  grid # 6        5922        5922        5922        5922        5922        5922        5922
  grid # 7       13950       13950       15206       15206       15206       15206       15206
  grid # 8         748         748         786         786         786         786         786
  grid # 9         394         394         420         420         420         420         420
   
  number of gridpoints: 
     atom         H114        H115        H116        H117       total
  grid # 1         104         108         107         107        9323
  grid # 2         433         450         444         437       31200
  grid # 3         152         281         233         188       10902
  grid # 4        8714        8714        8714        8714      705834
  grid # 5        1192        1192        1192        1192       96552
  grid # 6        5922        5922        5922        5922      486102
  grid # 7       15206       15206       15206       15206     1231988
  grid # 8         786         786         786         786       62684
  grid # 9         420         420         420         420       34882
   
  end of program grid
   
 Time(grid)  user:     369.827  user+sys:     369.827  wallclock:      25.455
  
  start of program rwr
  
  end of program rwr
   
 Time(rwr)  user:      69.070  user+sys:      69.070  wallclock:      14.269
  
  start of program scf
  
 number of electrons..........        292
 number of alpha electrons....        146
 number of beta electrons.....        146
 number of orbitals, total....        624
 number of doubly-occ'd orbs..        146
 number of open shell orbs....          0
 number of occupied orbitals..        146
 number of virtual orbitals...        478
 number of hamiltonians.......          1
 number of shells.............          1
 SCF type: DFT=Becke_3_Parameter/HF+Slater+Becke88+PW91+PW-GGAIIC (B3PW91-D3)
 Energy computed using pseudospectral method.
 Convergence Criterion:
    Energy (econv):       1.00E-05
    RMS density (dconv):  5.00E-06
  
       i  u  d  i  g                   
       t  p  i  c  r                                 RMS    maximum
       e  d  i  u  i                       energy  density   DIIS  
       r  t  s  t  d       total energy    change  change    error 
  
etot    1  N  N  5  M   -1921.65896473133           2.0E-03  2.0E-01
etot    2  Y  Y  6  M   -1925.02668264715  3.4E+00  3.0E-03  1.2E-01
etot    3  Y  Y  6  M   -1926.13828100383  1.1E+00  1.3E-03  6.0E-02
etot    4  N  Y  2  U   -1926.34825387010  2.1E-01  8.2E-04  4.1E-02
etot    5  Y  Y  6  M   -1926.45363333517  1.1E-01  5.4E-04  2.6E-02
etot    6  N  Y  2  U   -1926.46651442470  1.3E-02  6.3E-04  1.5E-02
etot    7  Y  Y  6  M   -1926.47399686455  7.5E-03  1.5E-04  5.9E-03
etot    8  N  Y  2  U   -1926.48421446273  1.0E-02  4.1E-05  1.8E-03
etot    9  N  Y  2  U   -1926.48463372697  4.2E-04  1.5E-05  3.8E-04
etot   10  N  Y  2  U   -1926.48464939202  1.6E-05  5.9E-06  1.6E-04
etot   11  N  Y  2  U   -1926.48465362281  4.2E-06  1.6E-06  5.3E-05
etot   12  N  N  2  U   -1926.48465379600  1.7E-07  0.0E+00  0.0E+00
 
  Computing the dispersion energy correction and its gradients...
  
  
 Energy components, in hartrees:
   (A)  Nuclear repulsion............    5109.30181780634
   (E)  Total one-electron terms.....  -12855.43449571358
   (F)    Electron-nuclear...........  -14691.63964504972
   (H)    Kinetic....................    1836.20514933614
   (I)  Total two-electron terms.....    5819.64802411124
   (J)    Coulomb....................    6069.99909730126
   (K)    Exchange+Correlation.......    -250.35107319001
   (L)  Electronic energy............   -7035.78647160233  (E+I)
   (N0) D3 correction................      -0.15151507521
   (N)  Total energy.................   -1926.63616887121  (A+L+N0)
   (O)  Gas phase energy.............   -1926.63616887121
  
 SCFE: SCF energy: DFT(b3pw91-d3)     -1926.63616887121 hartrees   iterations:  12
  
 
 HOMO energy:    -0.17320
 LUMO energy:    -0.05010
 
  Orbital energies (hartrees): 
   -77.07537   -24.66985   -19.05605   -10.23549   -10.20563   -10.20454
   -10.20404   -10.20000   -10.19759   -10.19476   -10.18793   -10.18564
   -10.18468   -10.18425   -10.18381   -10.18337   -10.17893   -10.17738
   -10.17512   -10.17507   -10.17427   -10.17077   -10.16944   -10.16729
   -10.16655   -10.16575   -10.16185   -10.16128   -10.16016   -10.15862
   -10.15631   -10.15439   -10.15278   -10.11351   -10.10875   -10.07720
    -6.57580    -4.73391    -4.73325    -4.73055    -3.33295    -2.06591
    -2.06239    -2.03081    -1.20194    -0.92052    -0.88594    -0.86359
    -0.85842    -0.84147    -0.82217    -0.81908    -0.76825    -0.75940
    -0.75638    -0.75213    -0.75045    -0.73947    -0.72475    -0.70740
    -0.70017    -0.69547    -0.69219    -0.69183    -0.66225    -0.64871
    -0.64099    -0.62131    -0.61740    -0.61123    -0.60910    -0.60356
    -0.58766    -0.56162    -0.55531    -0.53603    -0.53018    -0.52382
    -0.50178    -0.49801    -0.48190    -0.47949    -0.47231    -0.47072
    -0.46387    -0.46030    -0.45602    -0.45459    -0.45208    -0.44921
    -0.44771    -0.44524    -0.44032    -0.43726    -0.43234    -0.43050
    -0.42842    -0.42603    -0.42514    -0.41953    -0.41726    -0.41028
    -0.40311    -0.40233    -0.39987    -0.39392    -0.39273    -0.38472
    -0.38166    -0.37991    -0.37711    -0.37407    -0.37216    -0.36962
    -0.36727    -0.36033    -0.35754    -0.35415    -0.35088    -0.34685
    -0.34323    -0.34215    -0.34054    -0.33809    -0.33573    -0.32298
    -0.31907    -0.31720    -0.31158    -0.30742    -0.30499    -0.30065
    -0.28100    -0.27806    -0.27568    -0.27424    -0.26659    -0.26357
    -0.26203    -0.23928    -0.23436    -0.22866    -0.21954    -0.19861
    -0.18146    -0.17320    -0.05010    -0.03827    -0.02415    -0.01332
    -0.00634    -0.00042     0.01499     0.02063     0.03919     0.04752
 
  end of program scf
   
 Time(scf)  user:     563.964  user+sys:     563.964  wallclock:      54.683
  
  start of program der1a
  
  end of program der1a
   
 Time(der1a)  user:      14.906  user+sys:      14.906  wallclock:       1.524
  
  start of program rwr
  
  end of program rwr
   
 Time(rwr)  user:      31.674  user+sys:      31.674  wallclock:      14.053
  
  start of program der1b
  
   
  forces (hartrees/bohr) : total     
   
 atom  label           x              y              z
 ---- --------   -------------  -------------  -------------
    1 P1         -6.118022E-03   1.389026E-03   4.989578E-03
    2 Pd2         2.463576E-04  -4.712875E-03  -3.226530E-03
    3 C73        -1.416315E-03   3.381494E-03   2.671128E-03
    4 C74         2.730505E-04  -6.916210E-04   1.441437E-03
    5 C75         8.137175E-03   5.763731E-03  -8.606756E-03
    6 C76        -4.427024E-03  -7.848069E-03  -5.724915E-02
    7 C77         2.753636E-02   1.372371E-02  -5.358537E-02
    8 C78         8.680791E-03  -7.710185E-04  -1.013112E-02
    9 F79        -5.005785E-04  -2.480327E-03  -3.452265E-04
   10 H80         5.817340E-04  -7.604913E-07   5.473706E-04
   11 H82        -1.240062E-03   5.464334E-05  -1.153288E-03
   12 H83        -8.285413E-04  -1.317184E-04   6.297858E-04
   13 H14         4.552386E-03   4.776491E-03   9.961430E-03
   14 C6          9.232820E-04   1.516975E-04   3.676293E-04
   15 C7         -1.814820E-03  -3.020830E-04  -7.751337E-04
   16 C8          3.166980E-04   1.377015E-03  -4.076074E-04
   17 C9         -2.705579E-04  -1.003264E-03  -3.780014E-04
   18 C10         8.413881E-04   1.069920E-04  -4.198974E-03
   19 C11        -3.851173E-03  -6.911359E-03  -7.847469E-03
   20 C12         2.741117E-04   2.731969E-04  -2.782313E-04
   21 C13        -1.481368E-03  -2.752233E-04   1.766726E-04
   22 C14         3.000659E-04   4.134730E-04  -2.096411E-03
   23 C15        -1.866537E-04   5.333534E-04  -2.524844E-04
   24 C16         1.154783E-04  -8.547715E-04   3.775647E-04
   25 C17         8.873636E-04   7.655391E-04   1.165872E-04
   26 C18        -6.662653E-04  -1.529293E-03   1.344258E-03
   27 C19         7.023457E-04   5.575127E-04  -1.263937E-03
   28 C20         1.562965E-03   3.228256E-03  -2.485363E-03
   29 C21        -1.930832E-04   2.651014E-04  -2.965748E-03
   30 C22        -1.126932E-03  -3.134820E-03   3.295343E-03
   31 C23         7.278750E-05  -5.094883E-04  -2.697169E-04
   32 C24         6.069433E-05  -6.113975E-04  -4.708920E-04
   33 C25         5.885367E-04   2.065693E-04  -3.634025E-04
   34 C26        -4.532236E-05   7.340857E-04   1.147960E-04
   35 C27        -6.970037E-04  -2.001932E-04   4.210646E-04
   36 C28        -3.897803E-05  -9.051882E-04   1.670086E-04
   37 H29        -8.179814E-05  -4.314363E-05   1.869800E-04
   38 H30        -8.913641E-05   6.406209E-06  -4.558004E-05
   39 H31        -8.905476E-05  -1.387484E-04  -3.372095E-04
   40 H32        -7.301475E-04   3.661864E-04   3.406183E-03
   41 H33         8.810910E-05  -1.893084E-04  -2.357662E-06
   42 H34         1.387988E-05   1.872280E-04   5.736208E-04
   43 H35        -3.895943E-05  -1.351501E-04   1.268689E-04
   44 H36         1.125160E-04   2.950909E-04  -6.660432E-05
   45 H37        -6.530675E-04   2.426450E-05   1.628618E-03
   46 H38        -1.145972E-03  -7.766855E-04   1.031472E-03
   47 H39        -2.561021E-03  -4.902155E-03  -1.552468E-02
   48 H40        -8.462922E-04   1.487923E-04  -9.838172E-04
   49 H41         5.111084E-04   2.970878E-04  -2.415341E-05
   50 H42        -7.510113E-05  -4.221704E-06  -1.389935E-05
   51 H43         1.039792E-05   1.392303E-05  -1.432736E-04
   52 H44        -4.435818E-05  -1.313705E-04   1.575758E-04
   53 H45         1.458411E-04   1.231647E-04  -5.965868E-04
   54 H46         1.703548E-04  -2.218075E-05  -1.983245E-04
   55 H47         9.911385E-05  -1.548065E-04  -3.298361E-04
   56 H48        -1.053443E-04  -2.895245E-04  -5.567075E-05
   57 H49         3.259615E-05   9.605921E-05   2.667237E-04
   58 H50        -4.927543E-05   1.287847E-04  -1.039155E-04
   59 H51        -2.026599E-04   2.206628E-04  -4.288273E-04
   60 H52        -7.043033E-05   1.232691E-04  -2.521437E-04
   61 H53         2.184619E-04  -1.338691E-05  -2.431197E-04
   62 H54         5.248688E-04   7.787238E-04  -1.716802E-04
   63 H55         5.082020E-04   3.809715E-04   2.867855E-05
   64 H56         3.149896E-04   4.233948E-04  -1.943973E-04
   65 H57        -1.182141E-04   5.036725E-04   1.153784E-04
   66 H58        -4.875041E-04   6.796916E-05   2.942514E-04
   67 H59        -4.731296E-04   3.378901E-04   9.552475E-05
   68 O3          4.208483E-03   5.015002E-03  -2.852969E-04
   69 C105       -5.305462E-03   9.979901E-03   9.548708E-03
   70 C106        1.283226E-03  -3.004944E-03   8.033802E-04
   71 C107       -2.462340E-03  -3.262253E-03  -1.501433E-03
   72 C108       -2.253786E-03  -3.081861E-03   5.038589E-02
   73 H109       -4.060718E-04  -1.884552E-04  -7.056513E-04
   74 H110       -3.486108E-03   5.741483E-05  -3.200480E-04
   75 H111       -1.099549E-04  -9.270923E-04   1.044970E-03
   76 H112       -1.277060E-03  -2.626342E-03   6.186301E-03
   77 H113       -2.165074E-02  -3.212952E-03   7.431409E-02
   78 H114        2.252138E-03  -1.204373E-03   4.770367E-03
   79 H115        2.039041E-04  -1.109601E-04  -1.925237E-03
   80 H116        4.728369E-04  -7.097594E-04   3.918551E-04
   81 H117        1.602147E-03   1.853845E-04  -2.642165E-03
 -------------   -------------  -------------  -------------
     total       -2.889461E-04  -5.400169E-04  -3.467636E-03
   
  end of program der1b
   
 Time(der1b)  user:     168.151  user+sys:     168.151  wallclock:      14.628
  
  start of program geopt
  
 ----------------------------------------------------------------------------
  Geometry optimization step  1
  Total energy:     -1926.63616887121 hartrees
 ----------------------------------------------------------------------------
  
  
  Level shifts adjusted to satisfy step-size constraints
   Step size:    0.3000620
   Cos(theta):   0.5265215
   Final level shift:  -3.5979946E-01
  
  gradient maximum:        6.5610E-01 .  (  2.2500E-03 )
  gradient rms:            6.7795E-02 .  (  1.5000E-03 )
  displacement maximum:    8.3855E-02 .  (  9.0000E-03 )
  displacement rms:        1.2498E-02 .  (  6.0000E-03 )
  
  predicted energy change:  -8.5091E-02
  step size:     0.20268
  trust radius:  0.30000
  
  molecular structure not yet converged...
  
  center of mass moved by:
     x:    -1.3996E-02     y:     9.0146E-02     z:     3.4984E-03
  
  new geometry: 
                                   angstroms
  atom               x                 y                 z
  P1           -0.0504746645      0.0223305982     -0.0275001422 
  Pd2          -0.0543988713      0.0811068462      2.3314364921 
  C73           1.2081124723      4.6875742657      2.8569790316 
  C74          -0.1410506942      4.4009455276      2.7318924940 
  C75          -0.5425255034      3.0702257163      2.5853180241 
  C76           0.3919882288      2.0337961088      2.5488379192 
  C77           1.7365989027      2.3611155340      2.7520758547 
  C78           2.1609220608      3.6820858028      2.8866303858 
  F79           1.6006514909      5.9737471422      2.9815224869 
  H80          -0.8673017751      5.2088724572      2.7590011722 
  H82           2.4863436352      1.5785984035      2.8181489355 
  H83           3.2082361160      3.9322759426      3.0307410821 
  H14          -1.6014138442      2.8632685265      2.5442981873 
  C6            1.7104174949      0.2474620291     -2.3465634340 
  C7            1.5400474301      0.6449002667     -0.8707832152 
  C8            2.6858162030      0.0037578647     -0.0720188852 
  C9            1.6175529514      2.1749452051     -0.7603217613 
  C10          -1.6100491107      0.7362231509     -0.8847761172 
  C11          -2.0141014036      2.0370614399     -0.1974243120 
  C12          -2.7400648397     -0.2778154808     -0.6495443173 
  C13          -1.4927761808      1.0262259108     -2.3882919825 
  C14          -0.1265367709     -1.7557504355     -0.4944387230 
  C15           0.0370994942     -2.6768398953      0.4838996657 
  C16          -0.3385912714     -2.2070416057     -1.9276184501 
  C17          -0.1136136348     -2.4536037849      1.9504129504 
  C18           0.8747455776     -2.9167499434      2.8495800142 
  C19           0.5728139228     -3.1223831905      4.1835970938 
  C20          -0.7263688664     -2.9023356090      4.6600873479 
  C21          -1.7092630844     -2.4369701580      3.7998744656 
  C22          -1.4081315174     -2.1943089379      2.4549494760 
  C23           0.2682455011     -4.1105113199      0.1495980572 
  C24          -0.5911141003     -5.1112856990      0.6209662169 
  C25          -0.3499534146     -6.4489797207      0.3199721026 
  C26           0.7666703065     -6.8081082034     -0.4356627523 
  C27           1.6427332370     -5.8213587612     -0.8874913826 
  C28           1.3922516796     -4.4821913230     -0.5996418015 
  H29           0.8839369494      0.5602599818     -2.9864216657 
  H30           1.8569255159     -0.8277386177     -2.4680720452 
  H31           2.6176519560      0.7383594154     -2.7247718095 
  H32           2.6902950513      0.3374074940      0.9673966471 
  H33           3.6450100065      0.2894533117     -0.5243338684 
  H34           2.6191458746     -1.0906394979     -0.0826378721 
  H35           0.8780527597      2.6689421257     -1.3990933231 
  H36           2.6095904741      2.5007714080     -1.1005540268 
  H37           1.4834585122      2.5279102152      0.2632100321 
  H38          -1.2321011011      2.7990274300     -0.2431408815 
  H39          -2.2568410222      1.8490410151      0.8469271856 
  H40          -2.9097180338      2.4419894476     -0.6888286712 
  H41          -2.8919184065     -0.4546476117      0.4206477325 
  H42          -2.5555175713     -1.2401784869     -1.1384599522 
  H43          -3.6779005652      0.1290797998     -1.0506364641 
  H44          -0.7397228517      1.7887650041     -2.6056529439 
  H45          -2.4576230116      1.4168483121     -2.7401707802 
  H46          -1.2722514521      0.1395934315     -2.9883996611 
  H47          -1.0391403912     -3.0495887915     -1.9522211272 
  H48           0.5819440929     -2.5493288327     -2.4095517354 
  H49          -0.7458282642     -1.4115525939     -2.5511097271 
  H50           1.8662883079     -3.1437300650      2.4670581189 
  H51           1.3472345895     -3.4663796889      4.8647117336 
  H52          -0.9584593978     -3.0833745151      5.7059092549 
  H53          -2.7133649462     -2.2423402128      4.1657670758 
  H54          -2.2017040750     -1.9423561647      1.7583472974 
  H55          -1.4512540346     -4.8351749174      1.2261822028 
  H56          -1.0308845869     -7.2151547587      0.6840642904 
  H57           0.9597481928     -7.8544763457     -0.6613702044 
  H58           2.5252417129     -6.0947490407     -1.4618300456 
  H59           2.0831180475     -3.7133689221     -0.9386984297 
  O3           -0.0420105915     -0.3257376782      4.2847498220 
  C105          0.5276570158      0.3375111476      5.3820350207 
  C106         -0.3248690703     -0.0800576049      6.5944365501 
  C107          1.9786712126     -0.1155238891      5.6318898889 
  C108          0.4591401320      1.8558617869      5.2599110338 
  H109          0.0720918534      0.3263877477      7.5336554179 
  H110         -1.3479008445      0.2794945219      6.4615588143 
  H111         -0.3541444900     -1.1738224815      6.6695221235 
  H112          0.8692368483      2.3536506504      6.1513782692 
  H113          1.0046111042      2.1659375621      4.3489001930 
  H114         -0.5860034613      2.1576265359      5.1380716027 
  H115          2.3433754234      0.2437839177      6.6032760172 
  H116          2.0191274671     -1.2109842473      5.6292122741 
  H117          2.6590356099      0.2461974833      4.8574506209 
   
 
  bond lengths (angstroms):
 
 P1      -Pd2     :   2.359672      P1      -C7      :   1.904857
 P1      -C10     :   1.917508      P1      -C14     :   1.839943
 Pd2     -C76     :   2.014825      Pd2     -O3      :   1.995272
 C73     -C74     :   1.384935      C73     -C78     :   1.385544
 C73     -F79     :   1.350496      C74     -C75     :   1.397670
 C74     -H80     :   1.086702      C75     -C76     :   1.396006
 C75     -H14     :   1.079703      C76     -C77     :   1.398721
 C77     -C78     :   1.393958      C77     -H82     :   1.085733
 C78     -H83     :   1.086384      C6      -C7      :   1.537827
 C6      -H29     :   1.091023      C6      -H30     :   1.091918
 C6      -H31     :   1.098679      C7      -C8      :   1.536839
 C7      -C9      :   1.535984      C8      -H32     :   1.091662
 C8      -H33     :   1.098300      C8      -H34     :   1.096478
 C9      -H35     :   1.094953      C9      -H36     :   1.098207
 C9      -H37     :   1.090955      C10     -C11     :   1.525743
 C10     -C12     :   1.536406      C10     -C13     :   1.535713
 C11     -H38     :   1.092798      C11     -H39     :   1.088551
 C11     -H40     :   1.098897      C12     -H41     :   1.095281
 C12     -H42     :   1.095098      C12     -H43     :   1.098169
 C13     -H44     :   1.093527      C13     -H45     :   1.098787
 C13     -H46     :   1.093105      C14     -C15     :   1.353635
 C14     -C16     :   1.517444      C15     -C17     :   1.491043
 C15     -C23     :   1.490168      C16     -H47     :   1.096020
 C16     -H48     :   1.093986      C16     -H49     :   1.089672
 C17     -C18     :   1.414164      C17     -C22     :   1.413353
 C18     -C19     :   1.383130      C18     -H50     :   1.086738
 C19     -C20     :   1.401192      C19     -H51     :   1.087188
 C20     -C21     :   1.386583      C20     -H52     :   1.086455
 C21     -C22     :   1.399424      C21     -H53     :   1.086268
 C22     -H54     :   1.085584      C23     -C24     :   1.400798
 C23     -C28     :   1.401034      C24     -C25     :   1.392186
 C24     -H55     :   1.087366      C25     -C26     :   1.395280
 C25     -H56     :   1.087775      C26     -C27     :   1.394744
 C26     -H57     :   1.087708      C27     -C28     :   1.392468
 C27     -H58     :   1.087855      C28     -H59     :   1.087816
 O3      -C105    :   1.403016      C105    -C106    :   1.539832
 C105    -C107    :   1.540490      C105    -C108    :   1.524794
 C106    -H109    :   1.097683      C106    -H110    :   1.092487
 C106    -H111    :   1.096730      C107    -H115    :   1.098045
 C107    -H116    :   1.096210      C107    -H117    :   1.092472
 C108    -H112    :   1.100312      C108    -H113    :   1.106176
 C108    -H114    :   1.094638
 
  bond angles:
 
 C7      -P1      -Pd2     : 115.836923  C10     -P1      -Pd2     : 115.868851
 C10     -P1      -C7      : 111.070526  C14     -P1      -Pd2     : 106.123113
 C14     -P1      -C7      : 103.769327  C14     -P1      -C10     : 102.280811
 C76     -Pd2     -P1      :  97.564332  O3      -Pd2     -P1      : 166.799454
 O3      -Pd2     -C76     :  95.198622  C78     -C73     -C74     : 121.443513
 F79     -C73     -C74     : 119.247898  F79     -C73     -C78     : 119.293180
 C75     -C74     -C73     : 119.100733  H80     -C74     -C73     : 119.664693
 H80     -C74     -C75     : 121.231782  C76     -C75     -C74     : 121.152270
 H14     -C75     -C74     : 117.916903  H14     -C75     -C76     : 120.878137
 C75     -C76     -Pd2     : 125.032280  C77     -C76     -Pd2     : 117.094225
 C77     -C76     -C75     : 117.774192  C78     -C77     -C76     : 121.898210
 H82     -C77     -C76     : 120.265727  H82     -C77     -C78     : 117.834127
 C77     -C78     -C73     : 118.444385  H83     -C78     -C73     : 119.911446
 H83     -C78     -C77     : 121.634392  H29     -C6      -C7      : 113.878207
 H30     -C6      -C7      : 112.094767  H30     -C6      -H29     : 108.583740
 H31     -C6      -C7      : 107.839914  H31     -C6      -H29     : 107.189971
 H31     -C6      -H30     : 106.909703  C6      -C7      -P1      : 115.650306
 C8      -C7      -P1      : 104.836916  C8      -C7      -C6      : 107.960575
 C9      -C7      -P1      : 109.625143  C9      -C7      -C6      : 108.715317
 C9      -C7      -C8      : 109.911728  H32     -C8      -C7      : 111.741734
 H33     -C8      -C7      : 109.180312  H33     -C8      -H32     : 108.001100
 H34     -C8      -C7      : 111.470729  H34     -C8      -H32     : 108.332151
 H34     -C8      -H33     : 107.983675  H35     -C9      -C7      : 111.924246
 H36     -C9      -C7      : 108.593008  H36     -C9      -H35     : 107.187004
 H37     -C9      -C7      : 112.554101  H37     -C9      -H35     : 108.562824
 H37     -C9      -H36     : 107.800405  C11     -C10     -P1      : 109.353905
 C12     -C10     -P1      : 106.500832  C12     -C10     -C11     : 107.395599
 C13     -C10     -P1      : 116.480989  C13     -C10     -C11     : 107.474295
 C13     -C10     -C12     : 109.310993  H38     -C11     -C10     : 112.713789
 H39     -C11     -C10     : 110.120764  H39     -C11     -H38     : 108.671595
 H40     -C11     -C10     : 109.180649  H40     -C11     -H38     : 107.913533
 H40     -C11     -H39     : 108.115071  H41     -C12     -C10     : 110.985212
 H42     -C12     -C10     : 112.811924  H42     -C12     -H41     : 108.524854
 H43     -C12     -C10     : 109.125843  H43     -C12     -H41     : 107.354922
 H43     -C12     -H42     : 107.846342  H44     -C13     -C10     : 112.263854
 H45     -C13     -C10     : 108.276707  H45     -C13     -H44     : 107.046442
 H46     -C13     -C10     : 113.560646  H46     -C13     -H44     : 108.515082
 H46     -C13     -H45     : 106.839511  C15     -C14     -P1      : 117.979939
 C16     -C14     -P1      : 122.199345  C16     -C14     -C15     : 119.810868
 C17     -C15     -C14     : 126.638404  C23     -C15     -C14     : 120.748407
 C23     -C15     -C17     : 112.356489  H47     -C16     -C14     : 109.824799
 H48     -C16     -C14     : 113.049749  H48     -C16     -H47     : 106.703799
 H49     -C16     -C14     : 112.056673  H49     -C16     -H47     : 108.027647
 H49     -C16     -H48     : 106.906953  C18     -C17     -C15     : 120.377266
 C22     -C17     -C15     : 118.109173  C22     -C17     -C18     : 118.245027
 C19     -C18     -C17     : 120.622269  H50     -C18     -C17     : 118.834155
 H50     -C18     -C19     : 120.505001  C20     -C19     -C18     : 120.466934
 H51     -C19     -C18     : 119.721981  H51     -C19     -C20     : 119.808453
 C21     -C20     -C19     : 119.933418  H52     -C20     -C19     : 119.949973
 H52     -C20     -C21     : 120.111097  C22     -C21     -C20     : 120.124822
 H53     -C21     -C20     : 120.424959  H53     -C21     -C22     : 119.442769
 C21     -C22     -C17     : 120.554240  H54     -C22     -C17     : 118.885329
 H54     -C22     -C21     : 119.976095  C24     -C23     -C15     : 121.110918
 C28     -C23     -C15     : 119.976579  C28     -C23     -C24     : 118.855051
 C25     -C24     -C23     : 120.493869  H55     -C24     -C23     : 119.416822
 H55     -C24     -C25     : 120.089308  C26     -C25     -C24     : 120.200711
 H56     -C25     -C24     : 119.734380  H56     -C25     -C26     : 120.062531
 C27     -C26     -C25     : 119.736922  H57     -C26     -C25     : 120.135217
 H57     -C26     -C27     : 120.123783  C28     -C27     -C26     : 120.029243
 H58     -C27     -C26     : 120.184553  H58     -C27     -C28     : 119.785736
 C27     -C28     -C23     : 120.663704  H59     -C28     -C23     : 119.255399
 H59     -C28     -C27     : 120.068191  C105    -O3      -Pd2     : 132.204035
 C106    -C105    -O3      : 105.235891  C107    -C105    -O3      : 111.732442
 C107    -C105    -C106    : 108.302787  C108    -C105    -O3      : 112.945081
 C108    -C105    -C106    : 107.951703  C108    -C105    -C107    : 110.374672
 H109    -C106    -C105    : 111.904766  H110    -C106    -C105    : 109.477490
 H110    -C106    -H109    : 108.714430  H111    -C106    -C105    : 109.823811
 H111    -C106    -H109    : 108.683990  H111    -C106    -H110    : 108.152928
 H115    -C107    -C105    : 111.106284  H116    -C107    -C105    : 109.162564
 H116    -C107    -H115    : 108.475811  H117    -C107    -C105    : 111.978241
 H117    -C107    -H115    : 108.175210  H117    -C107    -H116    : 107.828070
 H112    -C108    -C105    : 111.645152  H113    -C108    -C105    : 108.840311
 H113    -C108    -H112    : 110.894372  H114    -C108    -C105    : 109.046086
 H114    -C108    -H112    : 108.742719  H114    -C108    -H113    : 107.570224
 
  torsional angles:
 
 P1      -Pd2     -C76     -C75     :  87.893470
 P1      -Pd2     -C76     -C77     : -95.822743
 P1      -Pd2     -O3      -C105    : 145.211107
 P1      -C7      -C6      -H29     :  56.545631
 P1      -C7      -C6      -H30     : -67.223792
 P1      -C7      -C6      -H31     : 175.361805
 P1      -C7      -C8      -H32     : -62.611482
 P1      -C7      -C8      -H33     : 177.983682
 P1      -C7      -C8      -H34     :  58.768856
 P1      -C7      -C9      -H35     : -71.059970
 P1      -C7      -C9      -H36     : 170.810533
 P1      -C7      -C9      -H37     :  51.538183
 P1      -C10     -C11     -H38     :  60.263648
 P1      -C10     -C11     -H39     : -61.268190
 P1      -C10     -C11     -H40     :-179.825620
 P1      -C10     -C12     -H41     :  57.127475
 P1      -C10     -C12     -H42     : -64.911235
 P1      -C10     -C12     -H43     : 175.237189
 P1      -C10     -C13     -H44     : -62.650547
 P1      -C10     -C13     -H45     : 179.393055
 P1      -C10     -C13     -H46     :  60.913316
 P1      -C14     -C15     -C17     :  18.982472
 P1      -C14     -C15     -C23     :-167.298619
 P1      -C14     -C16     -H47     :-138.292189
 P1      -C14     -C16     -H48     : 102.666675
 P1      -C14     -C16     -H49     : -18.224584
 Pd2     -P1      -C7      -C6      : 163.349598
 Pd2     -P1      -C7      -C8      :  44.593853
 Pd2     -P1      -C7      -C9      : -73.343450
 Pd2     -P1      -C10     -C11     :  43.418523
 Pd2     -P1      -C10     -C12     : -72.337251
 Pd2     -P1      -C10     -C13     : 165.461183
 Pd2     -P1      -C14     -C15     :  -9.932549
 Pd2     -P1      -C14     -C16     : 171.212098
 Pd2     -C76     -C75     -C74     :-179.613080
 Pd2     -C76     -C75     -H14     :   3.081970
 Pd2     -C76     -C77     -C78     : 178.632122
 Pd2     -C76     -C77     -H82     :  -1.884996
 Pd2     -O3      -C105    -C106    : 154.691519
 Pd2     -O3      -C105    -C107    : -87.989157
 Pd2     -O3      -C105    -C108    :  37.162743
 C73     -C74     -C75     -C76     :  -0.699885
 C73     -C74     -C75     -H14     : 176.682488
 C73     -C78     -C77     -C76     :   1.991623
 C73     -C78     -C77     -H82     :-177.503309
 C74     -C73     -C78     -C77     :   1.648129
 C74     -C73     -C78     -H83     :-177.233108
 C74     -C75     -C76     -C77     :   4.126131
 C75     -C74     -C73     -C78     :  -2.281663
 C75     -C74     -C73     -F79     : 179.156631
 C75     -C76     -Pd2     -O3      : -95.484929
 C75     -C76     -C77     -C78     :  -4.806696
 C75     -C76     -C77     -H82     : 174.676185
 C76     -Pd2     -P1      -C7      :  55.031451
 C76     -Pd2     -P1      -C10     : -77.712776
 C76     -Pd2     -P1      -C14     : 169.566418
 C76     -Pd2     -O3      -C105    : -19.967206
 C76     -C75     -C74     -H80     : 179.910063
 C76     -C77     -C78     -H83     :-179.147359
 C77     -C76     -Pd2     -O3      :  80.798858
 C77     -C76     -C75     -H14     :-173.178819
 C77     -C78     -C73     -F79     :-179.790803
 C78     -C73     -C74     -H80     : 177.118119
 F79     -C73     -C74     -H80     :  -1.443587
 F79     -C73     -C78     -H83     :   1.327960
 H80     -C74     -C75     -H14     :  -2.707564
 H82     -C77     -C78     -H83     :   1.357709
 C6      -C7      -P1      -C10     : -61.734929
 C6      -C7      -P1      -C14     :  47.479395
 C6      -C7      -C8      -H32     : 173.566287
 C6      -C7      -C8      -H33     :  54.161451
 C6      -C7      -C8      -H34     : -65.053375
 C6      -C7      -C9      -H35     :  56.243186
 C6      -C7      -C9      -H36     : -61.886311
 C6      -C7      -C9      -H37     : 178.841339
 C7      -P1      -Pd2     -O3      :-110.076666
 C7      -P1      -C10     -C11     : -91.481429
 C7      -P1      -C10     -C12     : 152.762797
 C7      -P1      -C10     -C13     :  30.561231
 C7      -P1      -C14     -C15     : 112.609372
 C7      -P1      -C14     -C16     : -66.245981
 C8      -C7      -P1      -C10     : 179.509326
 C8      -C7      -P1      -C14     : -71.276350
 C8      -C7      -C6      -H29     : 173.563932
 C8      -C7      -C6      -H30     :  49.794510
 C8      -C7      -C6      -H31     : -67.619894
 C8      -C7      -C9      -H35     : 174.212168
 C8      -C7      -C9      -H36     :  56.082670
 C8      -C7      -C9      -H37     : -63.189680
 C9      -C7      -P1      -C10     :  61.572023
 C9      -C7      -P1      -C14     : 170.786348
 C9      -C7      -C6      -H29     : -67.238390
 C9      -C7      -C6      -H30     : 168.992188
 C9      -C7      -C6      -H31     :  51.577784
 C9      -C7      -C8      -H32     :  55.130795
 C9      -C7      -C8      -H33     : -64.274041
 C9      -C7      -C8      -H34     : 176.511133
 C10     -P1      -Pd2     -O3      : 117.179107
 C10     -P1      -C14     -C15     :-131.785406
 C10     -P1      -C14     -C16     :  49.359240
 C11     -C10     -P1      -C14     : 158.342271
 C11     -C10     -C12     -H41     : -59.938145
 C11     -C10     -C12     -H42     : 178.023145
 C11     -C10     -C12     -H43     :  58.171569
 C11     -C10     -C13     -H44     :  60.373195
 C11     -C10     -C13     -H45     : -57.583203
 C11     -C10     -C13     -H46     :-176.062942
 C12     -C10     -P1      -C14     :  42.586498
 C12     -C10     -C11     -H38     : 175.446959
[...]
    H116     Y    -0.00422   0.00011  -0.00393  -0.00032  -0.00000   0.00253
    H116     Z    -0.00105   0.00005  -0.00127  -0.00004  -0.00002   0.00101
    H117     X    -0.00259   0.00003  -0.00027  -0.00039  -0.00007   0.00072
    H117     Y    -0.00713   0.00016  -0.00107  -0.00096  -0.00022   0.00225
    H117     Z     0.00993  -0.00019   0.00123   0.00134   0.00027  -0.00277
  
  vibration #          235       236       237
                 --------- --------- ---------
  frequencies      3217.40   3219.15   3225.43
  intensities         9.57      8.09      8.74
  reduc. mass         0.76      0.46      0.27
  force const         4.64      2.82      1.68
    P1       X    -0.00002  -0.00002  -0.00000
    P1       Y     0.00004  -0.00001  -0.00002
    P1       Z     0.00009   0.00004  -0.00001
    Pd2      X     0.00000  -0.00001  -0.00000
    Pd2      Y     0.00000  -0.00001  -0.00002
    Pd2      Z     0.00000  -0.00001   0.00000
    C73      X    -0.00004   0.00221   0.00001
    C73      Y     0.00003  -0.00267  -0.00003
    C73      Z     0.00002  -0.00112  -0.00001
    C74      X     0.00007   0.00619   0.00020
    C74      Y    -0.00006  -0.00317  -0.00013
    C74      Z    -0.00003  -0.00245  -0.00008
    C75      X     0.00007   0.00537   0.00028
    C75      Y     0.00006   0.00299   0.00019
    C75      Z    -0.00001  -0.00108  -0.00005
    C76      X    -0.00002   0.00159  -0.00000
    C76      Y    -0.00004   0.00183  -0.00000
    C76      Z     0.00001  -0.00004  -0.00001
    C77      X     0.00078  -0.05318  -0.00042
    C77      Y    -0.00045   0.03003   0.00024
    C77      Z    -0.00026   0.01726   0.00014
    C78      X     0.00074  -0.04603  -0.00030
    C78      Y     0.00048  -0.02956  -0.00020
    C78      Z    -0.00009   0.00541   0.00004
    F79      X     0.00000  -0.00012  -0.00000
    F79      Y    -0.00000   0.00046   0.00001
    F79      Z    -0.00000   0.00013   0.00000
    H80      X    -0.00087  -0.06700  -0.00237
    H80      Y     0.00052   0.03798   0.00142
    H80      Z     0.00036   0.02727   0.00097
    H82      X    -0.00903   0.61200   0.00468
    H82      Y     0.00484  -0.32810  -0.00251
    H82      Z     0.00292  -0.19672  -0.00154
    H83      X    -0.00823   0.51313   0.00341
    H83      Y    -0.00513   0.32057   0.00216
    H83      Z     0.00098  -0.06140  -0.00041
    H14      X    -0.00076  -0.05797  -0.00298
    H14      Y    -0.00050  -0.03520  -0.00177
    H14      Z     0.00018   0.01184   0.00056
    C6       X     0.00282   0.00007  -0.00002
    C6       Y    -0.00231  -0.00024  -0.00004
    C6       Z     0.00245   0.00010   0.00001
    C7       X    -0.00001  -0.00001  -0.00001
    C7       Y    -0.00001  -0.00003   0.00002
    C7       Z     0.00004  -0.00002   0.00001
    C8       X    -0.00005   0.00016  -0.00000
    C8       Y    -0.00001  -0.00031  -0.00005
    C8       Z     0.00008  -0.00064  -0.00004
    C9       X    -0.00009   0.00150   0.00001
    C9       Y     0.00010  -0.00152  -0.00002
    C9       Z    -0.00008  -0.00429  -0.00002
    C10      X     0.00005   0.00001  -0.00001
    C10      Y     0.00038   0.00000   0.00001
    C10      Z    -0.00006  -0.00001  -0.00002
    C11      X    -0.00041  -0.00024   0.00000
    C11      Y    -0.00029  -0.00020  -0.00001
    C11      Z     0.00080   0.00053  -0.00004
    C12      X    -0.00014   0.00001   0.00012
    C12      Y     0.00084   0.00001  -0.00023
    C12      Z     0.00060   0.00005  -0.00066
    C13      X     0.00154  -0.00003  -0.00001
    C13      Y     0.01230   0.00014  -0.00002
    C13      Z     0.00532   0.00008   0.00001
    C14      X    -0.00013   0.00002  -0.00003
    C14      Y    -0.00056   0.00001   0.00002
    C14      Z    -0.00076  -0.00004  -0.00011
    C15      X     0.00017  -0.00001   0.00004
    C15      Y    -0.00006   0.00000   0.00004
    C15      Z    -0.00028   0.00003   0.00007
    C16      X     0.02489   0.00035  -0.00006
    C16      Y    -0.06774  -0.00098   0.00004
    C16      Z     0.03868   0.00057   0.00002
    C17      X     0.00009   0.00001  -0.00102
    C17      Y    -0.00000  -0.00009   0.00010
    C17      Z    -0.00008   0.00002   0.00115
    C18      X    -0.00000  -0.00048  -0.01050
    C18      Y    -0.00001   0.00016   0.00332
    C18      Z     0.00007   0.00012   0.00433
    C19      X    -0.00043  -0.00022  -0.01644
    C19      Y     0.00025   0.00013   0.00924
    C19      Z    -0.00041  -0.00023  -0.01526
    C20      X     0.00033   0.00000   0.01296
    C20      Y     0.00010  -0.00005   0.00597
    C20      Z    -0.00104   0.00020  -0.04946
    C21      X    -0.00019  -0.00060   0.04770
    C21      Y     0.00003   0.00018  -0.01416
    C21      Z     0.00016   0.00019  -0.01359
    C22      X    -0.00100  -0.00040   0.02407
    C22      Y     0.00044   0.00016  -0.01105
    C22      Z    -0.00105  -0.00050   0.02800
    C23      X    -0.00001   0.00001   0.00000
    C23      Y    -0.00006   0.00000  -0.00001
    C23      Z     0.00005  -0.00001  -0.00004
    C24      X     0.00171  -0.00001   0.00026
    C24      Y    -0.00064  -0.00001  -0.00012
    C24      Z    -0.00106   0.00000  -0.00017
    C25      X     0.00193   0.00011   0.00023
    C25      Y     0.00175   0.00010   0.00024
    C25      Z    -0.00087  -0.00005  -0.00010
    C26      X    -0.00060  -0.00004  -0.00005
    C26      Y     0.00322   0.00026   0.00026
    C26      Z     0.00066   0.00005   0.00005
    C27      X    -0.00181  -0.00020  -0.00016
    C27      Y     0.00058   0.00006   0.00004
    C27      Z     0.00103   0.00011   0.00010
    C28      X    -0.00004  -0.00009  -0.00003
    C28      Y    -0.00015  -0.00010  -0.00005
    C28      Z     0.00008   0.00004   0.00001
    H29      X    -0.02907  -0.00076  -0.00000
    H29      Y     0.00837   0.00017  -0.00001
    H29      Z    -0.02937  -0.00074   0.00002
    H30      X    -0.00097  -0.00036  -0.00007
    H30      Y     0.02194   0.00326   0.00027
    H30      Z    -0.00095  -0.00011  -0.00001
    H31      X    -0.00414   0.00043   0.00025
    H31      Y    -0.00221   0.00008   0.00012
    H31      Z     0.00120  -0.00018  -0.00006
    H32      X     0.00007  -0.00076  -0.00008
    H32      Y    -0.00049   0.00538   0.00030
    H32      Z    -0.00117   0.00879   0.00055
    H33      X     0.00034  -0.00090   0.00007
    H33      Y     0.00007  -0.00039   0.00002
    H33      Z    -0.00015   0.00012  -0.00001
    H34      X    -0.00003   0.00009  -0.00000
    H34      Y     0.00042   0.00174   0.00027
    H34      Z    -0.00013  -0.00029  -0.00005
    H35      X     0.00096   0.00796  -0.00002
    H35      Y    -0.00046  -0.00485   0.00000
    H35      Z     0.00171   0.01304   0.00001
    H36      X     0.00040  -0.00713   0.00010
    H36      Y     0.00011  -0.00188   0.00006
    H36      Z    -0.00003  -0.00032  -0.00002
    H37      X     0.00016  -0.01742  -0.00013
    H37      Y    -0.00044   0.02462   0.00015
    H37      Z    -0.00071   0.04108   0.00026
    H38      X     0.00234   0.00192   0.00012
    H38      Y     0.00141   0.00143   0.00010
    H38      Z    -0.00020   0.00028   0.00003
    H39      X     0.00235   0.00186  -0.00009
    H39      Y     0.00100   0.00053  -0.00000
    H39      Z    -0.00897  -0.00608   0.00043
    H40      X    -0.00019  -0.00080  -0.00006
    H40      Y    -0.00001   0.00049   0.00005
    H40      Z    -0.00025  -0.00057  -0.00003
    H41      X     0.00057   0.00014  -0.00113
    H41      Y    -0.00008   0.00008  -0.00214
    H41      Z    -0.00409  -0.00048   0.00814
    H42      X    -0.00029   0.00001  -0.00018
    H42      Y    -0.00977  -0.00017   0.00321
    H42      Z    -0.00359  -0.00007   0.00154
    H43      X     0.00101  -0.00013   0.00034
    H43      Y    -0.00067   0.00010  -0.00009
    H43      Z     0.00068  -0.00007  -0.00012
    H44      X    -0.03930  -0.00020   0.00026
    H44      Y    -0.02272  -0.00006   0.00017
    H44      Z     0.01010  -0.00005  -0.00011
    H45      X     0.01231   0.00023  -0.00005
    H45      Y    -0.00394  -0.00004   0.00002
    H45      Z     0.00615   0.00004   0.00001
    H46      X     0.01461   0.00023  -0.00001
    H46      Y    -0.14500  -0.00196   0.00007
    H46      Z    -0.07673  -0.00104   0.00008
    H47      X     0.12175   0.00178   0.00004
    H47      Y     0.11048   0.00162   0.00009
    H47      Z     0.00754   0.00007  -0.00010
    H48      X    -0.15239  -0.00206   0.00071
    H48      Y     0.05106   0.00063  -0.00032
    H48      Z     0.07558   0.00099  -0.00034
    H49      X    -0.27132  -0.00394  -0.00007
    H49      Y     0.67220   0.00972  -0.00007
    H49      Z    -0.53795  -0.00779  -0.00012
    H50      X    -0.00015   0.00523   0.11328
    H50      Y     0.00003  -0.00181  -0.03842
    H50      Z    -0.00008  -0.00170  -0.03778
    H51      X     0.00453   0.00245   0.16684
    H51      Y    -0.00266  -0.00148  -0.09770
    H51      Z     0.00473   0.00267   0.17294
    H52      X    -0.00350   0.00055  -0.15496
    H52      Y    -0.00127   0.00026  -0.05888
    H52      Z     0.01187  -0.00208   0.53952
    H53      X     0.00227   0.00672  -0.51793
    H53      Y    -0.00064  -0.00198   0.15369
    H53      Z    -0.00079  -0.00206   0.15642
    H54      X     0.01159   0.00508  -0.28241
    H54      Y    -0.00507  -0.00217   0.12315
    H54      Z     0.01209   0.00538  -0.29914
    H55      X    -0.01893   0.00010  -0.00278
    H55      Y     0.00692   0.00002   0.00107
    H55      Z     0.01164  -0.00003   0.00191
    H56      X    -0.02035  -0.00116  -0.00260
    H56      Y    -0.02010  -0.00113  -0.00261
    H56      Z     0.00896   0.00051   0.00112
    H57      X     0.00555   0.00045   0.00044
    H57      Y    -0.03572  -0.00290  -0.00285
    H57      Z    -0.00681  -0.00055  -0.00055
    H58      X     0.01965   0.00217   0.00177
    H58      Y    -0.00671  -0.00076  -0.00062
    H58      Z    -0.01093  -0.00121  -0.00100
    H59      X    -0.00019   0.00097   0.00023
    H59      Y     0.00008   0.00099   0.00028
    H59      Z    -0.00006  -0.00040  -0.00012
    O3       X    -0.00000   0.00006  -0.00002
    O3       Y     0.00000   0.00004   0.00000
    O3       Z     0.00001   0.00005   0.00009
    C105     X    -0.00000  -0.00017  -0.00005
    C105     Y    -0.00000  -0.00002   0.00001
    C105     Z    -0.00001  -0.00001  -0.00008
    C106     X     0.00000  -0.00010   0.00027
    C106     Y    -0.00000   0.00001   0.00053
    C106     Z    -0.00001  -0.00002   0.00019
    C107     X    -0.00000  -0.00009  -0.00000
    C107     Y     0.00000  -0.00090   0.00009
    C107     Z    -0.00002   0.00076  -0.00004
    C108     X     0.00001  -0.00094   0.00008
    C108     Y     0.00002  -0.00123   0.00008
    C108     Z    -0.00004   0.00182  -0.00015
    H109     X     0.00004   0.00049  -0.00201
    H109     Y     0.00001   0.00019  -0.00122
    H109     Z     0.00005   0.00074  -0.00205
    H110     X    -0.00009   0.00145  -0.00304
    H110     Y     0.00001  -0.00001   0.00055
    H110     Z     0.00003  -0.00062   0.00118
    H111     X     0.00001  -0.00003   0.00171
    H111     Y     0.00002  -0.00017  -0.00609
    H111     Z     0.00000  -0.00002  -0.00122
    H112     X     0.00008  -0.00098   0.00039
    H112     Y     0.00004  -0.00050   0.00022
    H112     Z     0.00010  -0.00046   0.00053
    H113     X    -0.00009   0.00528  -0.00047
    H113     Y    -0.00028   0.01680  -0.00134
    H113     Z     0.00033  -0.02044   0.00147
    H114     X    -0.00015   0.00701  -0.00070
    H114     Y     0.00003  -0.00135   0.00016
    H114     Z     0.00003  -0.00180   0.00016
    H115     X     0.00011  -0.00043   0.00020
    H115     Y     0.00003  -0.00028   0.00007
    H115     Z     0.00011  -0.00049   0.00014
    H116     X    -0.00002  -0.00024   0.00001
    H116     Y     0.00004   0.00448  -0.00058
    H116     Z     0.00001   0.00102  -0.00030
    H117     X    -0.00004   0.00242  -0.00024
    H117     Y    -0.00008   0.00690  -0.00067
    H117     Z     0.00012  -0.00989   0.00082
  
  Number of imaginary frequencies:   1
   
  Writing vibrational animation data to L_Ar_OtBu_PL747.vib
  Writing IR vibrational spectrum data to L_Ar_OtBu_PL747_vib.spm
  rotational symmetry number:  1

  rotational temperatures (K):      0.006924      0.003833      0.002985
   
  The Quasi-Harmonic approximation will be applied to compute
  vibrational constributions to thermodynamic properties.
  Frequencies will be adjusted to a minimum value of  100.00 cm^-1.

    1 vibrational frequencies below    0.0 cm-1 not included in zero-point
  energy or thermochemical analysis.  Set freqcut to change the frequency
  cutoff value.

  vibrational temperatures:
       mode:      2        3        4        5        6        7
  temp. (K):   143.88   143.88   143.88   143.88   143.88   143.88
   
       mode:      8        9       10       11       12       13
  temp. (K):   143.88   143.88   143.88   143.88   149.31   157.05
   
       mode:     14       15       16       17       18       19
  temp. (K):   162.86   173.62   182.09   187.66   199.20   214.52
   
       mode:     20       21       22       23       24       25
  temp. (K):   217.72   230.48   254.43   269.49   277.10   284.72
   
       mode:     26       27       28       29       30       31
  temp. (K):   309.01   331.11   342.63   344.05   354.27   358.15
   
       mode:     32       33       34       35       36       37
  temp. (K):   377.26   379.70   382.89   387.64   396.08   416.69
   
       mode:     38       39       40       41       42       43
  temp. (K):   426.26   432.10   438.46   448.75   452.96   474.74
   
       mode:     44       45       46       47       48       49
  temp. (K):   480.84   499.85   519.95   530.27   535.09   555.72
   
       mode:     50       51       52       53       54       55
  temp. (K):   568.52   578.15   587.06   591.34   596.65   598.07
   
       mode:     56       57       58       59       60       61
  temp. (K):   606.87   609.37   628.99   664.34   680.92   681.42
   
       mode:     62       63       64       65       66       67
  temp. (K):   698.33   712.16   743.50   766.52   792.44   833.20
   
       mode:     68       69       70       71       72       73
  temp. (K):   838.49   850.35   887.61   897.14   902.19   914.25
   
       mode:     74       75       76       77       78       79
  temp. (K):   915.07   951.10  1005.15  1024.02  1031.40  1044.83
   
       mode:     80       81       82       83       84       85
  temp. (K):  1100.90  1109.68  1113.85  1161.81  1194.27  1197.81
   
       mode:     86       87       88       89       90       91
  temp. (K):  1201.04  1203.06  1209.26  1241.28  1256.78  1302.19
   
       mode:     92       93       94       95       96       97
  temp. (K):  1312.49  1336.45  1363.12  1368.46  1371.74  1373.70
   
       mode:     98       99      100      101      102      103
  temp. (K):  1375.84  1377.51  1379.50  1389.68  1397.22  1408.72
   
       mode:    104      105      106      107      108      109
  temp. (K):  1412.37  1424.54  1426.19  1441.93  1461.79  1464.11
   
       mode:    110      111      112      113      114      115
  temp. (K):  1464.20  1467.61  1479.50  1480.69  1498.19  1502.21
   
       mode:    116      117      118      119      120      121
  temp. (K):  1512.79  1516.39  1517.21  1519.61  1520.72  1532.04
   
       mode:    122      123      124      125      126      127
  temp. (K):  1534.05  1556.97  1610.51  1616.04  1620.50  1663.88
   
       mode:    128      129      130      131      132      133
  temp. (K):  1723.72  1732.38  1739.52  1742.09  1748.86  1754.72
   
       mode:    134      135      136      137      138      139
  temp. (K):  1758.85  1761.33  1771.83  1779.32  1783.98  1786.95
   
       mode:    140      141      142      143      144      145
  temp. (K):  1795.29  1797.59  1817.94  1840.16  1891.06  1900.69
   
       mode:    146      147      148      149      150      151
  temp. (K):  1931.45  1933.33  1941.93  1981.77  2001.57  2016.95
   
       mode:    152      153      154      155      156      157
  temp. (K):  2021.76  2045.24  2048.93  2052.41  2052.97  2057.31
   
       mode:    158      159      160      161      162      163
  temp. (K):  2058.91  2071.16  2094.44  2108.89  2140.09  2145.54
   
       mode:    164      165      166      167      168      169
  temp. (K):  2154.82  2156.28  2158.76  2161.52  2166.30  2168.11
   
       mode:    170      171      172      173      174      175
  temp. (K):  2173.82  2176.35  2177.69  2181.24  2187.17  2195.17
   
       mode:    176      177      178      179      180      181
  temp. (K):  2196.05  2199.40  2201.56  2204.15  2210.44  2215.16
   
       mode:    182      183      184      185      186      187
  temp. (K):  2217.68  2219.81  2223.27  2229.36  2238.46  2345.21
   
       mode:    188      189      190      191      192      193
  temp. (K):  2364.26  2365.07  2376.35  2394.07  2395.26  2403.42
   
       mode:    194      195      196      197      198      199
  temp. (K):  4367.03  4368.65  4373.46  4377.47  4385.18  4386.12
   
       mode:    200      201      202      203      204      205
  temp. (K):  4386.38  4390.14  4394.48  4422.12  4470.28  4476.73
   
       mode:    206      207      208      209      210      211
  temp. (K):  4479.92  4480.37  4493.15  4499.30  4499.80  4510.08
   
       mode:    212      213      214      215      216      217
  temp. (K):  4514.37  4514.64  4515.24  4522.73  4523.61  4538.49
   
       mode:    218      219      220      221      222      223
  temp. (K):  4558.52  4566.15  4581.00  4582.42  4587.40  4590.14
   
       mode:    224      225      226      227      228      229
  temp. (K):  4592.05  4595.88  4600.72  4603.87  4605.71  4608.13
   
       mode:    230      231      232      233      234      235
  temp. (K):  4614.14  4617.63  4624.81  4626.82  4627.61  4629.12
   
       mode:    236      237
  temp. (K):  4631.63  4640.67
   
   
  Thermodynamic properties calculated assuming an ideal gas

  In the table below, the units for temperature
  are kelvins, the units for U, H, and G are
  kcal/mol and the units for Cv and S are cal/(mol K)

  The zero point energy (ZPE):    436.812 kcal/mol
  is not included in U, H, or G in the table below
  
 
  =============================================================================
  Thermodynamic properties for P = 1.00E+00 atm, calculated at   1 temperatures


  T =   298.15 K, P = 1.00E+00 atm
   
                  U         Cv          S          H          G        ln(Q)
              =========  =========  =========  =========  =========  =========
  trans.          0.889      2.981     45.119      1.481    -11.971   20.20475
  rot.            0.889      2.981     37.348      0.889    -10.247   17.29432
  vib.           22.387    148.929    133.800     22.387    -17.505   29.54535
  elec.           0.000      0.000      0.000      0.000      0.000    0.00000
  ----------------------------------------------------------------------------
  total          24.165    154.890    216.267     24.757    -39.723   67.04442
   
   Total internal energy, Utot(SCFE + ZPE + U):   -1926.012205 hartrees
   Total enthalpy, Htot (Utot + nRT), with n=1:   -1926.011261 hartrees
    Total Gibbs free energy, Gtot (Htot - T*S):   -1926.114016 hartrees
   
  end of program freq
   
 Time(freq)  user:       1.042  user+sys:       1.042  wallclock:       0.824
  
  start of program post
  
  Writing input files for PBF
  end of program post
   
 Time(post)  user:       0.302  user+sys:       0.302  wallclock:       0.118

 Total cpu seconds     user:   94888.927   user+sys:   94888.927
  
 Total elapsed time:    11317 seconds

Job L_Ar_OtBu_PL747 completed on bp1-compute167 at Tue Nov 25 10:33:30 2025
