Job L_Ar_NaOtBu_Br_O_trans_PL747 started on bp1-compute167 at Tue Nov 25 02:17:36 2025
jobid: bp1-compute167-0-692511bb

  +--------------------------------------------------------------------+
  |  Jaguar version 12.5, release 138                                  |
  |                                                                    |
  |  Copyright Schrodinger, Inc.                                       |
  |  All Rights Reserved.                                              |
  |                                                                    |
  |  The following have contributed to Jaguar (listed alphabetically): |
  |  Ty Balduf, Mike Beachy, Chandler Bennett, Art Bochevarov,         |
  |  Dale Braden, Yixiang Cao, Alan Chien, Chris Cortis,               |
  |  Rich Friesner, Jim Furness, Bill Goddard, Hod Greeley,            |
  |  Tom Hughes, Leif Jacobson, Jean-Marc Langlois, Daniel Levine,     |
  |  Rob Murphy, Dean Philipp, Tom Pollard, Murco Ringnalda,           |
  |  Daniel Mainz, Pablo Videla, Mark Watson, Haoyu Yu.                |
  |                                                                    |
  |  Use of this program should be acknowledged in publications as:    |
  |                                                                    |
  |  Jaguar, version 12.5, Schrodinger, Inc., New York, NY, 2024.      |
  |                                                                    |
  |  A. D. Bochevarov, E. Harder, T. F. Hughes, J. R. Greenwood,       |
  |  D. A. Braden, D. M. Philipp, D. Rinaldo, M. D. Halls,             |
  |  J. Zhang, R. A. Friesner, "Jaguar: A High-Performance Quantum     |
  |  Chemistry Software Program with Strengths in Life and Materials   |
  |  Sciences", Int. J. Quantum Chem., 2013, 113(18), 2110-2142.       |
  +--------------------------------------------------------------------+
  
  start of program pre
  
  Job name: L_Ar_NaOtBu_Br_O_trans_PL747
  Executables used: /software/local/apps/schrodinger2024-3/jaguar-v12.5/bin/Linux-x86_64
  Temporary files : /tmp/ar21627/L_Ar_NaOtBu_Br_O_trans_PL747#bp1-compute167-0-692511bb
  Basis file : using default basis file from /software/local/apps/schrodinger2024-3
  Maestro file (input):  L_Ar_NaOtBu_Br_O_trans_PL747.mae
  Maestro file (output): L_Ar_NaOtBu_Br_O_trans_PL747.01.mae
  
 Contents of input file: &gen and (if present) &atomic sections only
 ----------------Contents start----------------
&gen
dftname=b3pw91-d3
basis=6-31G*
numd=5
ip11=2
iaccg=3
isolv=2
igeopt=1
solvent=benzene
ifreq=1
&
&atomic
atom basis
Pd2 lacv3p*
Br117 lacv3p*
&
 -----------------Contents end-----------------
 
  PS calculation requested. Using PS version of 6-31g*
  basis set:               non_standard                    
  net molecular charge:    0
  multiplicity:            1
  
  Using up to  18 threads per process
  
  This run will use ECP on            2  atoms
  number of basis functions....          654
  
 Input geometry:
                                   angstroms
  atom               x                 y                 z
  P1            0.0000000000      0.0000000000      0.0000000000 
  Pd2           0.0000000000      0.0000000000      2.3493403021 
  C73           4.7519077370      0.0000000000      2.8836920289 
  C74           4.1294037361      1.2250171566      2.6985385258 
  C75           2.7414975505      1.2610367759      2.5434029555 
  C76           1.9913329963      0.0835378704      2.5485782283 
  C77           2.6425009405     -1.1290802361      2.8061575265 
  C78           4.0287364629     -1.1811511343      2.9601613181 
  F79           6.0961282932     -0.0417838585      3.0188039613 
  H80           4.7227280495      2.1356277267      2.6878250072 
  H82           2.0751628471     -2.0488324947      2.9163426942 
  H83           4.5431061114     -2.1194136099      3.1501496744 
  H14           2.2595401251      2.2250630350      2.4411518899 
  C6            1.6932150002      0.2507209728     -2.3661662097 
  C7            1.5819914546      0.6094087943     -0.8747336756 
  C8            2.7385616450     -0.0930600644     -0.1470841958 
  C9            1.7101735525      2.1333438973     -0.7272635479 
  C10          -1.5643935570      0.8589120283     -0.6873714380 
  C11          -1.7995536269      2.1348795892      0.1325062974 
  C12          -2.7409948381     -0.0945297299     -0.4252752425 
  C13          -1.5386481930      1.2450617618     -2.1734050868 
  C14          -0.0987006088     -1.7640803121     -0.5117800633 
  C15           0.0505714302     -2.7118911840      0.4444733776 
  C16          -0.3172163899     -2.1729677661     -1.9567173608 
  C17          -0.1088484438     -2.5240783305      1.9163043002 
  C18           0.8699105354     -3.0163573569      2.8109956648 
  C19           0.5572407011     -3.2547296121      4.1384854386 
  C20          -0.7435760073     -3.0392333499      4.6131987254 
  C21          -1.7177436434     -2.5470739455      3.7577786688 
  C22          -1.4054788296     -2.2703902810      2.4195580670 
  C23           0.2755426598     -4.1383926060      0.0756877681 
  C24          -0.5927833847     -5.1462904941      0.5158032738 
  C25          -0.3558236138     -6.4780078132      0.1843426732 
  C26           0.7659697946     -6.8248431566     -0.5704373404 
  C27           1.6497605167     -5.8313487853     -0.9933361631 
  C28           1.4032849011     -4.4979052486     -0.6749713549 
  H29           0.8549252339      0.6027884568     -2.9692963300 
  H30           1.8075190898     -0.8238461693     -2.5227922773 
  H31           2.6004394311      0.7293897389     -2.7598049922 
  H32           2.7934806200      0.1983713857      0.9017348576 
  H33           3.6871096854      0.1844768674     -0.6261220693 
  H34           2.6402627131     -1.1840459649     -0.1981429135 
  H35           0.9662795177      2.6665410468     -1.3284119835 
  H36           2.7003924787      2.4374217338     -1.0917478096 
  H37           1.6213440734      2.4634900270      0.3078628215 
  H38          -0.9653956296      2.8383066496      0.0606466192 
  H39          -1.9548070570      1.8939333347      1.1885054868 
  H40          -2.7019252558      2.6411523656     -0.2359372689 
  H41          -2.8264732394     -0.3305420935      0.6408952682 
  H42          -2.6588953625     -1.0331040536     -0.9835070021 
  H43          -3.6758569079      0.3961706608     -0.7272553747 
  H44          -0.7561765712      1.9750384630     -2.3989315715 
  H45          -2.4999186442      1.7154459307     -2.4223325391 
  H46          -1.4205616152      0.3905695942     -2.8446988429 
  H47          -1.0284632886     -3.0055262502     -2.0032152073 
  H48           0.5988732229     -2.5129992460     -2.4486073632 
  H49          -0.7147434809     -1.3558805365     -2.5582858580 
  H50           1.8626939258     -3.2407322931      2.4300996927 
  H51           1.3249215062     -3.6211807494      4.8158718610 
  H52          -0.9829897847     -3.2459590516      5.6526984179 
  H53          -2.7234149275     -2.3560390308      4.1216744785 
  H54          -2.1943332808     -1.9984827864      1.7250144202 
  H55          -1.4565560997     -4.8816617024      1.1212281969 
  H56          -1.0436956896     -7.2494553171      0.5243017813 
  H57           0.9559534676     -7.8667422808     -0.8195607595 
  H58           2.5357984924     -6.0952213813     -1.5672549181 
  H59           2.1017226645     -3.7256756796     -0.9900783629 
  C104          0.9113302847      0.2084264440      5.5992584422 
  C105          0.1460327742      0.2142543160      6.9468817839 
  C106          1.8447473505     -1.0141048875      5.6185465229 
  C107          1.7531681632      1.4914771723      5.5403733731 
  H108          0.8287383333      0.1390091022      7.8017830574 
  H109         -0.4129727125      1.1545830757      7.0903562966 
  H110         -0.5434524983     -0.6392318110      7.0027107705 
  H111          2.3574451238      1.6226094471      6.4480640846 
  H112          2.4281539927      1.4641835517      4.6839368664 
  H113          1.0932521080      2.3613357540      5.4293845915 
  H114          2.5209477434     -0.9793790144      6.4833757626 
  H115          1.2698102149     -1.9445912073      5.6717539596 
  H116          2.4527108199     -1.0463148878      4.7150975306 
  Br117        -2.8184944330      0.5229487152      2.8290315090 
  O118         -0.0504589666      0.1669074788      4.5706869245 
  Na119        -2.0473783534      0.8693040437      5.3894623747 
   
  principal moments of inertia:
        amu*angstrom^2:              5751.66872              6743.42945              7307.24262
                g*cm^2:          9.55086941E-37          1.11977266E-36          1.21339603E-36
   
  rotational constants:
               cm^(-1):      0.00293091      0.00249986      0.00230698
                   GHz:      0.08786650      0.07494392      0.06916138
   
  Molecular weight:     714.12 amu
   
  Stoichiometry: NaPdC33PH44BrOF
  Molecular Point Group: C1      
  Point Group used: C1
  
 
Number of optimization coordinates:   269
Number of independent coordinates:    269
Number of non-redundant coordinates:  243
Number of frozen coordinates:           0
Number of harmonic constraints:         0
 
Number of geometric degrees of freedom:   243
Maximum geometric degrees of freedom:     243
 " " " " " excluding dummy atoms:         243
 
 
  bond lengths (angstroms):
 
 P1      -Pd2     :   2.349340      P1      -C7      :   1.907678
 P1      -C10     :   1.912469      P1      -C14     :   1.839467
 Pd2     -C76     :   2.003018      Pd2     -O118    :   2.228180
 C73     -C74     :   1.386528      C73     -C78     :   1.387062
 C73     -F79     :   1.351640      C74     -C75     :   1.397014
 C74     -H80     :   1.086904      C75     -C76     :   1.396165
 C75     -H14     :   1.082629      C76     -C77     :   1.400289
 C77     -C78     :   1.395735      C77     -H82     :   1.086258
 C78     -H83     :   1.086742      C6      -C7      :   1.537985
 C6      -H29     :   1.091076      C6      -H30     :   1.091921
 C6      -H31     :   1.098695      C7      -C8      :   1.536421
 C7      -C9      :   1.536410      C8      -H32     :   1.089940
 C8      -H33     :   1.098293      C8      -H34     :   1.096595
 C9      -H35     :   1.095015      C9      -H36     :   1.098110
 C9      -H37     :   1.090126      C10     -C11     :   1.534794
 C10     -C12     :   1.536924      C10     -C13     :   1.535601
 C11     -H38     :   1.093523      C11     -H39     :   1.094209
 C11     -H40     :   1.098334      C12     -H41     :   1.095321
 C12     -H42     :   1.095119      C12     -H43     :   1.098156
 C13     -H44     :   1.093613      C13     -H45     :   1.098757
 C13     -H46     :   1.093040      C14     -C15     :   1.354640
 C14     -C16     :   1.517492      C15     -C17     :   1.492305
 C15     -C23     :   1.490477      C16     -H47     :   1.095987
 C16     -H48     :   1.093982      C16     -H49     :   1.089745
 C17     -C18     :   1.414489      C17     -C22     :   1.413815
 C18     -C19     :   1.384490      C18     -H50     :   1.086759
 C19     -C20     :   1.401398      C19     -H51     :   1.087416
 C20     -C21     :   1.386711      C20     -H52     :   1.086561
 C21     -C22     :   1.401748      C21     -H53     :   1.086411
 C22     -H54     :   1.085641      C23     -C24     :   1.401267
 C23     -C28     :   1.401621      C24     -C25     :   1.392655
 C24     -H55     :   1.087507      C25     -C26     :   1.395854
 C25     -H56     :   1.088059      C26     -C27     :   1.395335
 C26     -H57     :   1.087984      C27     -C28     :   1.392903
 C27     -H58     :   1.088152      C28     -H59     :   1.087863
 C104    -C105    :   1.549775      C104    -C106    :   1.538253
 C104    -C107    :   1.535701      C104    -O118    :   1.408802
 C105    -H108    :   1.096633      C105    -H109    :   1.103309
 C105    -H110    :   1.098611      C106    -H114    :   1.098354
 C106    -H115    :   1.095075      C106    -H116    :   1.089439
 C107    -H111    :   1.098294      C107    -H112    :   1.090795
 C107    -H113    :   1.097480      Br117   -Na119   :   2.696366
 O118    -Na119   :   2.269679
 
  bond angles:
 
 C7      -P1      -Pd2     : 117.292499  C10     -P1      -Pd2     : 111.064322
 C10     -P1      -C7      : 111.720067  C14     -P1      -Pd2     : 106.154110
 C14     -P1      -C7      : 102.901823  C14     -P1      -C10     : 106.667488
 C76     -Pd2     -P1      :  95.708586  O118    -Pd2     -P1      : 175.511683
 O118    -Pd2     -C76     :  85.424413  C78     -C73     -C74     : 121.711357
 F79     -C73     -C74     : 119.154266  F79     -C73     -C78     : 119.122069
 C75     -C74     -C73     : 118.923930  H80     -C74     -C73     : 119.764928
 H80     -C74     -C75     : 121.307437  C76     -C75     -C74     : 120.773389
 H14     -C75     -C74     : 118.406104  H14     -C75     -C76     : 120.806808
 C75     -C76     -Pd2     : 124.678739  C77     -C76     -Pd2     : 116.390823
 C77     -C76     -C75     : 118.761921  C78     -C77     -C76     : 120.961531
 H82     -C77     -C76     : 120.598541  H82     -C77     -C78     : 118.421271
 C77     -C78     -C73     : 118.683340  H83     -C78     -C73     : 119.872413
 H83     -C78     -C77     : 121.439081  H29     -C6      -C7      : 113.905845
 H30     -C6      -C7      : 112.097394  H30     -C6      -H29     : 108.583557
 H31     -C6      -C7      : 107.790769  H31     -C6      -H29     : 107.204742
 H31     -C6      -H30     : 106.912781  C6      -C7      -P1      : 115.475387
 C8      -C7      -P1      : 105.131506  C8      -C7      -C6      : 107.349284
 C9      -C7      -P1      : 110.000678  C9      -C7      -C6      : 108.564406
 C9      -C7      -C8      : 110.196301  H32     -C8      -C7      : 111.802704
 H33     -C8      -C7      : 109.149192  H33     -C8      -H32     : 107.976431
 H34     -C8      -C7      : 111.428683  H34     -C8      -H32     : 108.381134
 H34     -C8      -H33     : 107.969815  H35     -C9      -C7      : 111.938215
 H36     -C9      -C7      : 108.544158  H36     -C9      -H35     : 107.190137
 H37     -C9      -C7      : 112.627296  H37     -C9      -H35     : 108.570077
 H37     -C9      -H36     : 107.745552  C11     -C10     -P1      : 107.861010
 C12     -C10     -P1      : 106.637797  C12     -C10     -C11     : 107.899294
 C13     -C10     -P1      : 116.553664  C13     -C10     -C11     : 108.087051
 C13     -C10     -C12     : 109.503314  H38     -C11     -C10     : 112.507504
 H39     -C11     -C10     : 110.745216  H39     -C11     -H38     : 108.258263
 H40     -C11     -C10     : 109.262450  H40     -C11     -H38     : 107.948460
 H40     -C11     -H39     : 107.979231  H41     -C12     -C10     : 111.063871
 H42     -C12     -C10     : 112.790183  H42     -C12     -H41     : 108.503218
 H43     -C12     -C10     : 109.124621  H43     -C12     -H41     : 107.308525
 H43     -C12     -H42     : 107.855206  H44     -C13     -C10     : 112.297204
 H45     -C13     -C10     : 108.193465  H45     -C13     -H44     : 107.066792
 H46     -C13     -C10     : 113.550396  H46     -C13     -H44     : 108.533926
 H46     -C13     -H45     : 106.861121  C15     -C14     -P1      : 117.949321
 C16     -C14     -P1      : 122.076605  C16     -C14     -C15     : 119.966833
 C17     -C15     -C14     : 126.612203  C23     -C15     -C14     : 120.771536
 C23     -C15     -C17     : 112.371470  H47     -C16     -C14     : 109.787380
 H48     -C16     -C14     : 113.035562  H48     -C16     -H47     : 106.752663
 H49     -C16     -C14     : 112.094157  H49     -C16     -H47     : 108.024618
 H49     -C16     -H48     : 106.876708  C18     -C17     -C15     : 120.405764
 C22     -C17     -C15     : 118.139961  C22     -C17     -C18     : 118.157674
 C19     -C18     -C17     : 120.672473  H50     -C18     -C17     : 118.834474
 H50     -C18     -C19     : 120.452213  C20     -C19     -C18     : 120.527359
 H51     -C19     -C18     : 119.727330  H51     -C19     -C20     : 119.742698
 C21     -C20     -C19     : 119.847806  H52     -C20     -C19     : 119.956445
 H52     -C20     -C21     : 120.191144  C22     -C21     -C20     : 120.163689
 H53     -C21     -C20     : 120.403047  H53     -C21     -C22     : 119.424509
 C21     -C22     -C17     : 120.577861  H54     -C22     -C17     : 118.921872
 H54     -C22     -C21     : 119.889465  C24     -C23     -C15     : 121.141727
 C28     -C23     -C15     : 119.963443  C28     -C23     -C24     : 118.836178
 C25     -C24     -C23     : 120.504910  H55     -C24     -C23     : 119.473058
 H55     -C24     -C25     : 120.022015  C26     -C25     -C24     : 120.201519
 H56     -C25     -C24     : 119.739422  H56     -C25     -C26     : 120.056386
 C27     -C26     -C25     : 119.735573  H57     -C26     -C25     : 120.139051
 H57     -C26     -C27     : 120.122519  C28     -C27     -C26     : 120.017584
 H58     -C27     -C26     : 120.194413  H58     -C27     -C28     : 119.787066
 C27     -C28     -C23     : 120.686017  H59     -C28     -C23     : 119.316070
 H59     -C28     -C27     : 119.983143  C106    -C104    -C105    : 106.961678
 C107    -C104    -C105    : 107.511529  C107    -C104    -C106    : 109.380883
 O118    -C104    -C105    : 107.328804  O118    -C104    -C106    : 113.578010
 O118    -C104    -C107    : 111.769213  H108    -C105    -C104    : 111.728155
 H109    -C105    -C104    : 111.498629  H109    -C105    -H108    : 105.814572
 H110    -C105    -C104    : 110.559683  H110    -C105    -H108    : 107.324764
 H110    -C105    -H109    : 109.726413  H114    -C106    -C104    : 110.997273
 H115    -C106    -C104    : 110.936158  H115    -C106    -H114    : 108.169870
 H116    -C106    -C104    : 110.592976  H116    -C106    -H114    : 108.079355
 H116    -C106    -H115    : 107.948374  H111    -C107    -C104    : 111.695232
 H112    -C107    -C104    : 110.390348  H112    -C107    -H111    : 108.144566
 H113    -C107    -C104    : 109.661201  H113    -C107    -H111    : 108.649653
 H113    -C107    -H112    : 108.210913  C104    -O118    -Pd2     : 135.611428
 Na119   -O118    -Pd2     : 113.749880  Na119   -O118    -C104    : 109.156817
 O118    -Na119   -Br117   :  82.490227
 
  torsional angles:
 
 P1      -Pd2     -C76     -C75     :  85.773820
 P1      -Pd2     -C76     -C77     : -99.019380
 P1      -Pd2     -O118    -C104    :-108.846293
 P1      -Pd2     -O118    -Na119   :  55.311743
 P1      -C7      -C6      -H29     :  56.552522
 P1      -C7      -C6      -H30     : -67.240458
 P1      -C7      -C6      -H31     : 175.370534
 P1      -C7      -C8      -H32     : -62.706657
 P1      -C7      -C8      -H33     : 177.901526
 P1      -C7      -C8      -H34     :  58.749884
 P1      -C7      -C9      -H35     : -70.993592
 P1      -C7      -C9      -H36     : 170.895794
 P1      -C7      -C9      -H37     :  51.679096
 P1      -C10     -C11     -H38     :  60.807662
 P1      -C10     -C11     -H39     : -60.497422
 P1      -C10     -C11     -H40     :-179.314292
 P1      -C10     -C12     -H41     :  57.097466
 P1      -C10     -C12     -H42     : -64.955472
 P1      -C10     -C12     -H43     : 175.196556
 P1      -C10     -C13     -H44     : -62.591602
 P1      -C10     -C13     -H45     : 179.460415
 P1      -C10     -C13     -H46     :  61.016065
 P1      -C14     -C15     -C17     :  19.379020
 P1      -C14     -C15     -C23     :-166.753994
 P1      -C14     -C16     -H47     :-138.306125
 P1      -C14     -C16     -H48     : 102.625797
 P1      -C14     -C16     -H49     : -18.243276
 Pd2     -P1      -C7      -C6      : 164.343757
 Pd2     -P1      -C7      -C8      :  46.243720
 Pd2     -P1      -C7      -C9      : -72.377451
 Pd2     -P1      -C10     -C11     :  43.485809
 Pd2     -P1      -C10     -C12     : -72.192186
 Pd2     -P1      -C10     -C13     : 165.200299
 Pd2     -P1      -C14     -C15     :  -9.717758
 Pd2     -P1      -C14     -C16     : 171.262255
 Pd2     -C76     -C75     -C74     : 179.541743
 Pd2     -C76     -C75     -H14     :   0.909564
 Pd2     -C76     -C77     -C78     : 179.915385
 Pd2     -C76     -C77     -H82     :  -1.680645
 Pd2     -O118    -C104    -C105    :-175.281952
 Pd2     -O118    -C104    -C106    : -57.272709
 Pd2     -O118    -C104    -C107    :  67.071699
 Pd2     -O118    -Na119   -Br117   :   8.631805
 C73     -C74     -C75     -C76     :  -1.201093
 C73     -C74     -C75     -H14     : 177.463279
 C73     -C78     -C77     -C76     :   1.461041
 C73     -C78     -C77     -H82     :-176.976904
 C74     -C73     -C78     -C77     :   1.914037
 C74     -C73     -C78     -H83     :-177.271140
 C74     -C75     -C76     -C77     :   4.439939
 C75     -C74     -C73     -C78     :  -2.046790
 C75     -C74     -C73     -F79     : 179.241014
 C75     -C76     -Pd2     -O118    : -89.865590
 C75     -C76     -C77     -C78     :  -4.580440
 C75     -C76     -C77     -H82     : 173.823530
 C76     -Pd2     -P1      -C7      : -18.665304
 C76     -Pd2     -P1      -C10     :-148.829335
 C76     -Pd2     -P1      -C14     :  95.604561
 C76     -Pd2     -O118    -C104    :  -4.036498
 C76     -Pd2     -O118    -Na119   : 160.121539
 C76     -C75     -C74     -H80     : 179.500900
 C76     -C77     -C78     -H83     :-179.367097
 C77     -C76     -Pd2     -O118    :  85.341210
 C77     -C76     -C75     -H14     :-174.192240
 C77     -C78     -C73     -F79     :-179.373364
 C78     -C73     -C74     -H80     : 177.262279
 F79     -C73     -C74     -H80     :  -1.449917
 F79     -C73     -C78     -H83     :   1.441459
 H80     -C74     -C75     -H14     :  -1.834728
 H82     -C77     -C78     -H83     :   2.194958
 C6      -C7      -P1      -C10     : -65.798234
 C6      -C7      -P1      -C14     :  48.279841
 C6      -C7      -C8      -H32     : 173.837918
 C6      -C7      -C8      -H33     :  54.446101
 C6      -C7      -C8      -H34     : -64.705541
 C6      -C7      -C9      -H35     :  56.242207
 C6      -C7      -C9      -H36     : -61.868407
 C6      -C7      -C9      -H37     : 178.914894
 C7      -P1      -Pd2     -O118    :  85.753464
 C7      -P1      -C10     -C11     : -89.541464
 C7      -P1      -C10     -C12     : 154.780541
 C7      -P1      -C10     -C13     :  32.173026
 C7      -P1      -C14     -C15     : 114.068493
 C7      -P1      -C14     -C16     : -64.951494
 C8      -C7      -P1      -C10     : 176.101729
 C8      -C7      -P1      -C14     : -69.820195
 C8      -C7      -C6      -H29     : 173.410345
 C8      -C7      -C6      -H30     :  49.617365
 C8      -C7      -C6      -H31     : -67.771643
 C8      -C7      -C9      -H35     : 173.546388
 C8      -C7      -C9      -H36     :  55.435774
 C8      -C7      -C9      -H37     : -63.780924
 C9      -C7      -P1      -C10     :  57.480559
 C9      -C7      -P1      -C14     : 171.558634
 C9      -C7      -C6      -H29     : -67.480992
 C9      -C7      -C6      -H30     : 168.726028
 C9      -C7      -C6      -H31     :  51.337020
 C9      -C7      -C8      -H32     :  55.782979
 C9      -C7      -C8      -H33     : -63.608838
 C9      -C7      -C8      -H34     : 177.239520
 C10     -P1      -Pd2     -O118    : -44.410568
 C10     -P1      -C14     -C15     :-128.228501
 C10     -P1      -C14     -C16     :  52.751513
 C11     -C10     -P1      -C14     : 158.733583
 C11     -C10     -C12     -H41     : -58.554826
 C11     -C10     -C12     -H42     : 179.392236
 C11     -C10     -C12     -H43     :  59.544264
 C11     -C10     -C13     -H44     :  59.003944
 C11     -C10     -C13     -H45     : -58.944039
 C11     -C10     -C13     -H46     :-177.388388
 C12     -C10     -P1      -C14     :  43.055588
 C12     -C10     -C11     -H38     : 175.654623
 C12     -C10     -C11     -H39     :  54.349540
 C12     -C10     -C11     -H40     : -64.467330
 C12     -C10     -C13     -H44     : 176.305825
 C12     -C10     -C13     -H45     :  58.357842
 C12     -C10     -C13     -H46     : -60.086507
 C13     -C10     -P1      -C14     : -79.551927
 C13     -C10     -C11     -H38     : -66.014336
 C13     -C10     -C11     -H39     : 172.680581
 C13     -C10     -C11     -H40     :  53.863711
 C13     -C10     -C12     -H41     :-175.974549
 C13     -C10     -C12     -H42     :  61.972513
 C13     -C10     -C12     -H43     : -57.875459
 C14     -P1      -Pd2     -O118    :-159.976671
 C14     -C15     -C17     -C18     :-132.130957
 C14     -C15     -C17     -C22     :  68.743618
 C14     -C15     -C23     -C24     :-122.221470
 C14     -C15     -C23     -C28     :  60.596262
 C15     -C14     -C16     -H47     :  42.693175
 C15     -C14     -C16     -H48     : -76.374902
 C15     -C14     -C16     -H49     : 162.756025
 C15     -C17     -C18     -C19     :-158.449185
 C15     -C17     -C18     -H50     :  19.236938
 C15     -C17     -C22     -C21     : 157.348963
 C15     -C17     -C22     -H54     : -13.681987
 C15     -C23     -C24     -C25     :-178.778820
 C15     -C23     -C24     -H55     :   1.174858
 C15     -C23     -C28     -C27     : 178.037996
 C15     -C23     -C28     -H59     :  -0.563789
 C16     -C14     -C15     -C17     :-161.579525
 C16     -C14     -C15     -C23     :  12.287461
 C17     -C15     -C23     -C24     :  52.457456
 C17     -C15     -C23     -C28     :-124.724812
 C17     -C18     -C19     -C20     :   1.368325
 C17     -C18     -C19     -H51     :-179.221255
 C17     -C22     -C21     -C20     :   1.803375
 C17     -C22     -C21     -H53     :-179.268513
 C18     -C17     -C15     -C23     :  53.566013
 C18     -C17     -C22     -C21     :  -2.251291
 C18     -C17     -C22     -H54     :-173.282241
 C18     -C19     -C20     -C21     :  -1.853629
 C18     -C19     -C20     -H52     : 178.925374
 C19     -C18     -C17     -C22     :   0.672625
 C19     -C20     -C21     -C22     :   0.265325
 C19     -C20     -C21     -H53     :-178.652201
 C20     -C19     -C18     -H50     :-176.280295
 C20     -C21     -C22     -H54     : 172.747830
 C21     -C20     -C19     -H51     : 178.736041
 C22     -C17     -C15     -C23     :-105.559411
 C22     -C17     -C18     -H50     : 178.358748
 C22     -C21     -C20     -H52     : 179.484472
 C23     -C24     -C25     -C26     :   1.210423
 C23     -C24     -C25     -H56     :-179.383878
 C23     -C28     -C27     -C26     :   0.342609
 C23     -C28     -C27     -H58     :-179.306080
 C24     -C23     -C28     -C27     :   0.790986
 C24     -C23     -C28     -H59     :-177.810799
 C24     -C25     -C26     -C27     :  -0.056200
 C24     -C25     -C26     -H57     : 179.329763
 C25     -C24     -C23     -C28     :  -1.565461
 C25     -C26     -C27     -C28     :  -0.715655
 C25     -C26     -C27     -H58     : 178.931588
 C26     -C25     -C24     -H55     :-178.743001
 C26     -C27     -C28     -H59     : 178.935094
 C27     -C26     -C25     -H56     :-179.460005
 C28     -C23     -C24     -H55     : 178.388217
 C28     -C27     -C26     -H57     : 179.898280
 H50     -C18     -C19     -H51     :   3.130126
 H51     -C19     -C20     -H52     :  -0.484956
 H52     -C20     -C21     -H53     :   0.566946
 H53     -C21     -C22     -H54     :  -8.324058
 H55     -C24     -C25     -H56     :   0.662698
 H56     -C25     -C26     -H57     :  -0.074043
 H57     -C26     -C27     -H58     :  -0.454477
 H58     -C27     -C28     -H59     :  -0.713594
 C104    -O118    -Na119   -Br117   : 176.968913
 C105    -C104    -C106    -H114    : -57.079247
 C105    -C104    -C106    -H115    :  63.216639
 C105    -C104    -C106    -H116    :-177.033412
 C105    -C104    -C107    -H111    :  50.916845
 C105    -C104    -C107    -H112    : 171.277752
 C105    -C104    -C107    -H113    : -69.588227
 C105    -C104    -O118    -Na119   :  20.056135
 C106    -C104    -C105    -H108    :  51.751669
 C106    -C104    -C105    -H109    : 169.933730
 C106    -C104    -C105    -H110    : -67.710112
 C106    -C104    -C107    -H111    : -64.886196
 C106    -C104    -C107    -H112    :  55.474712
 C106    -C104    -C107    -H113    : 174.608733
 C106    -C104    -O118    -Na119   : 138.065379
 C107    -C104    -C105    -H108    : -65.637459
 C107    -C104    -C105    -H109    :  52.544602
 C107    -C104    -C105    -H110    : 174.900761
 C107    -C104    -C106    -H114    :  59.073900
 C107    -C104    -C106    -H115    : 179.369786
 C107    -C104    -C106    -H116    : -60.880265
 C107    -C104    -O118    -Na119   : -97.590213
 H108    -C105    -C104    -O118    : 173.976099
 H109    -C105    -C104    -O118    : -67.841841
 H110    -C105    -C104    -O118    :  54.514318
 H111    -C107    -C104    -O118    : 168.453485
 H112    -C107    -C104    -O118    : -71.185607
 H113    -C107    -C104    -O118    :  47.948414
 H114    -C106    -C104    -O118    :-175.300473
 H115    -C106    -C104    -O118    : -55.004587
 H116    -C106    -C104    -O118    :  64.745363
 
  nuclear repulsion energy.......          5715.183851936 hartrees
  
  Detected an organometallic with only one TM atom. 
  
  Oxidation state on metal       2 is     2
  Formal multiplet on metal      2 is     1
  Formal charge on ligand        3 is    -1
  Formal multiplet on ligand     3 is     1
  Formal charge on ligand        4 is    -1
  Formal multiplet on ligand     4 is     1
  
 
  Will use High-Quality Initial guess for organometallics
       including d-d repulsion (iguess=30)
 
 Non-default options chosen:
   SCF calculation type: DFT(b3pw91-d3)              
   DFT=Becke_3_Parameter/HF+Slater+Becke88+PW91+PW-GGAIIC (B3PW91-D3)
   Geometry will be optimized in redundant internal coordinates
   Solvation energy will be computed using PBF
     -solute cavity energy will not be included
     -surface area terms will not be included
   Vibrational frequencies and related properties will be computed
      from analytic second derivatives
   IR intensities will be computed
   Thermochemical properties will be computed
   Maximum number of geometry steps: 100
   Scaling standard convergence criteria by a factor of   5.00
   Solvent: benzene                                                         
   Internal dielectric constant:    1.000
   Continuum dielectric constant:   2.283
   Solvent probe molecule radius:   2.600
  
 Non-default print settings:
     11=  2
  
 Temporary integer options set:
     21= -1  73=  2
  
  atom       vdw   vdw2    cov     mass  grid  daf  charge   basis
  P1        2.147  2.074  1.060   30.974    Y    Y      Y    ps_6-31g*
  Pd2       1.450  1.450  1.280  105.903    Y    Y      Y    lacv3p*
  C73       1.949  1.900  0.770   12.000    Y    Y      Y    ps_6-31g*
  C74       1.949  1.900  0.770   12.000    Y    Y      Y    ps_6-31g*
  C75       1.949  1.900  0.770   12.000    Y    Y      Y    ps_6-31g*
  C76       1.949  1.900  0.770   12.000    Y    Y      Y    ps_6-31g*
  C77       1.949  1.900  0.770   12.000    Y    Y      Y    ps_6-31g*
  C78       1.949  1.900  0.770   12.000    Y    Y      Y    ps_6-31g*
  F79       1.736  1.682  0.720   18.998    Y    Y      Y    ps_6-31g*
  H80       1.597  1.150  0.320    1.008    Y    Y      Y    ps_6-31g*
  H82       1.597  1.150  0.320    1.008    Y    Y      Y    ps_6-31g*
  H83       1.597  1.150  0.320    1.008    Y    Y      Y    ps_6-31g*
  H14       1.597  1.150  0.320    1.008    Y    Y      Y    ps_6-31g*
  C6        1.949  1.900  0.770   12.000    Y    Y      Y    ps_6-31g*
  C7        1.949  1.900  0.770   12.000    Y    Y      Y    ps_6-31g*
  C8        1.949  1.900  0.770   12.000    Y    Y      Y    ps_6-31g*
  C9        1.949  1.900  0.770   12.000    Y    Y      Y    ps_6-31g*
  C10       1.949  1.900  0.770   12.000    Y    Y      Y    ps_6-31g*
  C11       1.949  1.900  0.770   12.000    Y    Y      Y    ps_6-31g*
  C12       1.949  1.900  0.770   12.000    Y    Y      Y    ps_6-31g*
  C13       1.949  1.900  0.770   12.000    Y    Y      Y    ps_6-31g*
  C14       1.949  1.900  0.770   12.000    Y    Y      Y    ps_6-31g*
  C15       1.949  1.900  0.770   12.000    Y    Y      Y    ps_6-31g*
  C16       1.949  1.900  0.770   12.000    Y    Y      Y    ps_6-31g*
  C17       1.949  1.900  0.770   12.000    Y    Y      Y    ps_6-31g*
  C18       1.949  1.900  0.770   12.000    Y    Y      Y    ps_6-31g*
  C19       1.949  1.900  0.770   12.000    Y    Y      Y    ps_6-31g*
  C20       1.949  1.900  0.770   12.000    Y    Y      Y    ps_6-31g*
  C21       1.949  1.900  0.770   12.000    Y    Y      Y    ps_6-31g*
  C22       1.949  1.900  0.770   12.000    Y    Y      Y    ps_6-31g*
  C23       1.949  1.900  0.770   12.000    Y    Y      Y    ps_6-31g*
  C24       1.949  1.900  0.770   12.000    Y    Y      Y    ps_6-31g*
  C25       1.949  1.900  0.770   12.000    Y    Y      Y    ps_6-31g*
  C26       1.949  1.900  0.770   12.000    Y    Y      Y    ps_6-31g*
  C27       1.949  1.900  0.770   12.000    Y    Y      Y    ps_6-31g*
  C28       1.949  1.900  0.770   12.000    Y    Y      Y    ps_6-31g*
  H29       1.597  1.150  0.320    1.008    Y    Y      Y    ps_6-31g*
  H30       1.597  1.150  0.320    1.008    Y    Y      Y    ps_6-31g*
  H31       1.597  1.150  0.320    1.008    Y    Y      Y    ps_6-31g*
  H32       1.597  1.150  0.320    1.008    Y    Y      Y    ps_6-31g*
  H33       1.597  1.150  0.320    1.008    Y    Y      Y    ps_6-31g*
  H34       1.597  1.150  0.320    1.008    Y    Y      Y    ps_6-31g*
  H35       1.597  1.150  0.320    1.008    Y    Y      Y    ps_6-31g*
  H36       1.597  1.150  0.320    1.008    Y    Y      Y    ps_6-31g*
  H37       1.597  1.150  0.320    1.008    Y    Y      Y    ps_6-31g*
  H38       1.597  1.150  0.320    1.008    Y    Y      Y    ps_6-31g*
  H39       1.597  1.150  0.320    1.008    Y    Y      Y    ps_6-31g*
  H40       1.597  1.150  0.320    1.008    Y    Y      Y    ps_6-31g*
  H41       1.597  1.150  0.320    1.008    Y    Y      Y    ps_6-31g*
  H42       1.597  1.150  0.320    1.008    Y    Y      Y    ps_6-31g*
  H43       1.597  1.150  0.320    1.008    Y    Y      Y    ps_6-31g*
  H44       1.597  1.150  0.320    1.008    Y    Y      Y    ps_6-31g*
  H45       1.597  1.150  0.320    1.008    Y    Y      Y    ps_6-31g*
  H46       1.597  1.150  0.320    1.008    Y    Y      Y    ps_6-31g*
  H47       1.597  1.150  0.320    1.008    Y    Y      Y    ps_6-31g*
  H48       1.597  1.150  0.320    1.008    Y    Y      Y    ps_6-31g*
  H49       1.597  1.150  0.320    1.008    Y    Y      Y    ps_6-31g*
  H50       1.597  1.150  0.320    1.008    Y    Y      Y    ps_6-31g*
  H51       1.597  1.150  0.320    1.008    Y    Y      Y    ps_6-31g*
  H52       1.597  1.150  0.320    1.008    Y    Y      Y    ps_6-31g*
  H53       1.597  1.150  0.320    1.008    Y    Y      Y    ps_6-31g*
  H54       1.597  1.150  0.320    1.008    Y    Y      Y    ps_6-31g*
  H55       1.597  1.150  0.320    1.008    Y    Y      Y    ps_6-31g*
  H56       1.597  1.150  0.320    1.008    Y    Y      Y    ps_6-31g*
  H57       1.597  1.150  0.320    1.008    Y    Y      Y    ps_6-31g*
  H58       1.597  1.150  0.320    1.008    Y    Y      Y    ps_6-31g*
  H59       1.597  1.150  0.320    1.008    Y    Y      Y    ps_6-31g*
  C104      1.949  1.900  0.770   12.000    Y    Y      Y    ps_6-31g*
  C105      1.949  1.900  0.770   12.000    Y    Y      Y    ps_6-31g*
  C106      1.949  1.900  0.770   12.000    Y    Y      Y    ps_6-31g*
  C107      1.949  1.900  0.770   12.000    Y    Y      Y    ps_6-31g*
  H108      1.597  1.150  0.320    1.008    Y    Y      Y    ps_6-31g*
  H109      1.597  1.150  0.320    1.008    Y    Y      Y    ps_6-31g*
  H110      1.597  1.150  0.320    1.008    Y    Y      Y    ps_6-31g*
  H111      1.597  1.150  0.320    1.008    Y    Y      Y    ps_6-31g*
  H112      1.597  1.150  0.320    1.008    Y    Y      Y    ps_6-31g*
  H113      1.597  1.150  0.320    1.008    Y    Y      Y    ps_6-31g*
  H114      1.597  1.150  0.320    1.008    Y    Y      Y    ps_6-31g*
  H115      1.597  1.150  0.320    1.008    Y    Y      Y    ps_6-31g*
  H116      1.597  1.150  0.320    1.008    Y    Y      Y    ps_6-31g*
  Br117     2.095  2.095  1.140   78.918    Y    Y      Y    lav3p*
  O118      1.702  1.600  0.730   15.995    Y    Y      Y    ps_6-31g*
  Na119     2.308  1.492  1.540   22.990    Y    Y      Y    ps_6-31g*
 
  atom      formal  2spin      esp    mulk    frag
  P1           0       0        Y    0.000       0
  Pd2          2       0        Y    0.000       0
  C73         -1       0        Y    0.000       0
  C104        -1       0        Y    0.000       0
  
  end of program pre
   
 Time(pre)  user:       4.728  user+sys:       4.728  wallclock:       1.029
  
  start of program onee
  
  smallest eigenvalue of S:    4.404E-04
  number of canonical orbitals.....          651
  end of program onee
   
 Time(onee)  user:      10.790  user+sys:      10.790  wallclock:       1.917
  
  start of program hfig
  
  initial wavefunction generated automatically from atomic wavefunctions
  Only one state below 0.010000
  Skip d-d repulsion considerations 
 
  Irreducible     Total no   No of occupied orbitals 
  representation  orbitals   Shell_1  Shell_2    ...
  No Symm          651        155
  ------------------------
  Orbital occupation/shell    1.000
 
  end of program hfig
   
 Time(hfig)  user:       2.246  user+sys:       2.246  wallclock:       0.990
  
  start of program probe
  
  end of program probe
   
 Time(probe)  user:       1.190  user+sys:       1.190  wallclock:       0.374
  
  start of program grid
  
   grid     grid set  grid #  grid sym
  ------    --------  ------  --------
  coarse        0        0        1
  medium        2        1        1
  fine          0        0        1
  ultrafine     4        2        1
  charge       -1        3        1
  gradient      4        2        1
  density       0        0        1
  DFT-fine    -11        4        1
  DFT-med.    -10        5        1
  DFT-grad    -12        6        1
  DFT-der2     -8        7        1
  DFT-cphf     -9        8        1
  LMP2-enrg     4        2        1
  LMP2-grad     2        1        1
  DFT-cphf2   -15        9        1
  PBF-dens      0        0        1
  plotting      0        0        1
  Rel-grad    -17        0        1
  
  number of gridpoints: 
     atom           P1         Pd2         C73         C74         C75         C76         C77
  grid # 1         609         355          78          92          93          96          91
  grid # 2         426         304         329         317         304         369         307
  grid # 3           6         208          24           9           6           6           6
  grid # 4        8582        8582        8582        8582        8582        8582        8582
  grid # 5        1192        1192        1192        1192        1192        1192        1192
  grid # 6        9488        9488        6164        6164        6164        6164        6164
  grid # 7       23054       32756       14018       14018       14018       14018       14018
  grid # 8         724        1144         750         750         750         750         750
  grid # 9         380        2168         406         406         406         406         406
   
  number of gridpoints: 
     atom          C78         F79         H80         H82         H83         H14          C6
  grid # 1          91         584         113          91         114         111          81
  grid # 2         315         566         463         380         459         440         236
  grid # 3          10         356         378          25         358         175           6
  grid # 4        8582        8582        8582        8582        8582        8582        8582
  grid # 5        1192        1192        1192        1192        1192        1192        1192
  grid # 6        6164        6164        6164        6164        6164        6164        6164
  grid # 7       14018       23160       15170       15170       15170       15170       14018
  grid # 8         750         778         792         792         792         792         750
  grid # 9         406         424         420         420         420         420         406
   
  number of gridpoints: 
     atom           C7          C8          C9         C10         C11         C12         C13
  grid # 1          87          78          79          87          81          79          81
  grid # 2         370         240         242         365         235         240         234
  grid # 3           6           6           6           6           6           6           6
  grid # 4        8582        8582        8582        8582        8582        8582        8582
  grid # 5        1192        1192        1192        1192        1192        1192        1192
  grid # 6        6164        6164        6164        6164        6164        6164        6164
  grid # 7       14018       14018       14018       14018       14018       14018       14018
  grid # 8         750         750         750         750         750         750         750
  grid # 9         406         406         406         406         406         406         406
   
  number of gridpoints: 
     atom          C14         C15         C16         C17         C18         C19         C20
  grid # 1          86          98          79          99          93          93          94
  grid # 2         385         358         242         356         301         321         322
  grid # 3           6           9           6           7          12          19          19
  grid # 4        8582        8582        8582        8582        8582        8582        8582
  grid # 5        1192        1192        1192        1192        1192        1192        1192
  grid # 6        6164        6164        6164        6164        6164        6164        6164
  grid # 7       14018       14018       14018       14018       14018       14018       14018
  grid # 8         750         750         750         750         750         750         750
  grid # 9         406         406         406         406         406         406         406
   
  number of gridpoints: 
     atom          C21         C22         C23         C24         C25         C26         C27
  grid # 1          95          94         100          95          97          97          97
  grid # 2         322         321         360         326         324         324         324
  grid # 3          15           7          12          27          46          50          42
  grid # 4        8582        8582        8582        8582        8582        8582        8582
  grid # 5        1192        1192        1192        1192        1192        1192        1192
  grid # 6        6164        6164        6164        6164        6164        6164        6164
  grid # 7       14018       14018       14018       14018       14018       14018       14018
  grid # 8         750         750         750         750         750         750         750
  grid # 9         406         406         406         406         406         406         406
   
  number of gridpoints: 
     atom          C28         H29         H30         H31         H32         H33         H34
  grid # 1          95         102         101         109          94         108         104
  grid # 2         325         425         423         446         403         447         432
  grid # 3          22         142         145         262          27         243         112
  grid # 4        8582        8582        8582        8582        8582        8582        8582
  grid # 5        1192        1192        1192        1192        1192        1192        1192
  grid # 6        6164        6164        6164        6164        6164        6164        6164
  grid # 7       14018       15170       15170       15170       15170       15170       15170
  grid # 8         750         792         792         792         792         792         792
  grid # 9         406         420         420         420         420         420         420
   
  number of gridpoints: 
     atom          H35         H36         H37         H38         H39         H40         H41
  grid # 1         102         109         102         105          99         109          92
  grid # 2         429         446         431         437         431         446         414
  grid # 3         159         259         116         179          94         266          64
  grid # 4        8582        8582        8582        8582        8582        8582        8582
  grid # 5        1192        1192        1192        1192        1192        1192        1192
  grid # 6        6164        6164        6164        6164        6164        6164        6164
  grid # 7       15170       15170       15170       15170       15170       15170       15170
  grid # 8         792         792         792         792         792         792         792
  grid # 9         420         420         420         420         420         420         420
   
  number of gridpoints: 
     atom          H42         H43         H44         H45         H46         H47         H48
  grid # 1         104         108         100         109         101         108         105
  grid # 2         436         447         428         446         425         448         427
  grid # 3         171         268         156         265         153         265         166
  grid # 4        8582        8582        8582        8582        8582        8582        8582
  grid # 5        1192        1192        1192        1192        1192        1192        1192
  grid # 6        6164        6164        6164        6164        6164        6164        6164
  grid # 7       15170       15170       15170       15170       15170       15170       15170
  grid # 8         792         792         792         792         792         792         792
  grid # 9         420         420         420         420         420         420         420
   
  number of gridpoints: 
     atom          H49         H50         H51         H52         H53         H54         H55
  grid # 1          99         100         107         115         115         106         111
  grid # 2         413         413         444         457         457         430         453
  grid # 3         105         177         280         296         265         125         275
  grid # 4        8582        8582        8582        8582        8582        8582        8582
  grid # 5        1192        1192        1192        1192        1192        1192        1192
  grid # 6        6164        6164        6164        6164        6164        6164        6164
  grid # 7       15170       15170       15170       15170       15170       15170       15170
  grid # 8         792         792         792         792         792         792         792
  grid # 9         420         420         420         420         420         420         420
   
  number of gridpoints: 
     atom          H56         H57         H58         H59        C104        C105        C106
  grid # 1         118         118         118         111          90          78          81
  grid # 2         467         467         467         443         327         241         239
  grid # 3         420         420         418         190           6           6           6
  grid # 4        8582        8582        8582        8582        8582        8582        8582
  grid # 5        1192        1192        1192        1192        1192        1192        1192
  grid # 6        6164        6164        6164        6164        6164        6164        6164
  grid # 7       15170       15170       15170       15170       14018       14018       14018
  grid # 8         792         792         792         792         750         750         750
  grid # 9         420         420         420         420         406         406         406
   
  number of gridpoints: 
     atom         C107        H108        H109        H110        H111        H112        H113
  grid # 1          81         107         101         101         108         103         108
  grid # 2         240         445         439         440         450         420         450
  grid # 3           6         271         208         186         285          86         244
  grid # 4        8582        8582        8582        8582        8582        8582        8582
  grid # 5        1192        1192        1192        1192        1192        1192        1192
  grid # 6        6164        6164        6164        6164        6164        6164        6164
  grid # 7       14018       15170       15170       15170       15170       15170       15170
  grid # 8         750         792         792         792         792         792         792
  grid # 9         406         420         420         420         420         420         420
   
  number of gridpoints: 
     atom         H114        H115        H116       Br117        O118       Na119       total
  grid # 1         108          99          98         472         115         696       10418
  grid # 2         450         411         410         453         474         653       32172
  grid # 3         271          69          56         154          15         267       10533
  grid # 4        8582        8582        8582        8582        8582        8582      712306
  grid # 5        1192        1192        1192        1192        1192        1192       98936
  grid # 6        6164        6164        6164        9488        6164        9488      524908
  grid # 7       15170       15170       15170       11604       23358       21102     1265108
  grid # 8         792         792         792         714         774         642       64374
  grid # 9         420         420         420         360         412         338       35960
   
  end of program grid
   
 Time(grid)  user:     406.736  user+sys:     406.736  wallclock:      27.979
  
  start of program rwr
  
  end of program rwr
   
 Time(rwr)  user:      45.502  user+sys:      45.502  wallclock:      12.540
  
  start of program scf
  
 number of electrons..........        310
 number of alpha electrons....        155
 number of beta electrons.....        155
 number of orbitals, total....        651
 number of doubly-occ'd orbs..        155
 number of open shell orbs....          0
 number of occupied orbitals..        155
 number of virtual orbitals...        496
 number of hamiltonians.......          1
 number of shells.............          1
 SCF type: DFT=Becke_3_Parameter/HF+Slater+Becke88+PW91+PW-GGAIIC (B3PW91-D3)
 Energy computed using pseudospectral method.
 Convergence Criterion:
    Energy (econv):       1.00E-05
    RMS density (dconv):  5.00E-06
  
       i  u  d  i  g                   
       t  p  i  c  r                                 RMS    maximum
       e  d  i  u  i                       energy  density   DIIS  
       r  t  s  t  d       total energy    change  change    error 
  
etot    1  N  N  5  M   -2097.16638139269           2.0E-03  2.3E-01
etot    2  Y  Y  6  M   -2100.54904566170  3.4E+00  3.3E-03  1.4E-01
etot    3  Y  Y  6  M   -2101.67832008016  1.1E+00  1.2E-03  6.5E-02
etot    4  N  Y  2  U   -2101.88856346086  2.1E-01  1.1E-03  3.9E-02
etot    5  Y  Y  6  M   -2101.98735914902  9.9E-02  6.4E-04  2.6E-02
etot    6  N  Y  2  U   -2102.00265894660  1.5E-02  8.9E-04  1.6E-02
etot    7  Y  Y  6  M   -2102.01283393567  1.0E-02  1.6E-04  5.9E-03
etot    8  N  Y  2  U   -2102.02392387814  1.1E-02  4.5E-05  1.4E-03
etot    9  N  Y  2  U   -2102.02436462633  4.4E-04  1.6E-05  3.6E-04
etot   10  N  Y  2  U   -2102.02437648020  1.2E-05  6.6E-06  1.7E-04
etot   11  N  Y  2  U   -2102.02438182976  5.3E-06  1.7E-06  3.1E-05
etot   12  N  N  2  U   -2102.02438241995  5.9E-07  0.0E+00  0.0E+00
 
  Computing the dispersion energy correction and its gradients...
  
  
 Energy components, in hartrees:
   (A)  Nuclear repulsion............    5715.18385193551
   (E)  Total one-electron terms.....  -14318.58996933971
   (F)    Electron-nuclear...........  -16320.84487475564
   (H)    Kinetic....................    2002.25490541593
   (I)  Total two-electron terms.....    6501.38173498425
   (J)    Coulomb....................    6768.87614545550
   (K)    Exchange+Correlation.......    -267.49441047125
   (L)  Electronic energy............   -7817.20823435546  (E+I)
   (N0) D3 correction................      -0.17797326490
   (N)  Total energy.................   -2102.20235568485  (A+L+N0)
   (O)  Gas phase energy.............   -2102.20235568485
  
 SCFE: SCF energy: DFT(b3pw91-d3)     -2102.20235568485 hartrees   iterations:  12
  
 
 HOMO energy:    -0.18321
 LUMO energy:    -0.04841
 
  Orbital energies (hartrees): 
   -77.07404   -38.45591   -24.67295   -19.05614   -10.23938   -10.19548
   -10.19417   -10.19399   -10.19227   -10.18831   -10.18702   -10.18567
   -10.17700   -10.17665   -10.17622   -10.17548   -10.17446   -10.16911
   -10.16908   -10.16831   -10.16632   -10.16518   -10.16432   -10.16400
   -10.16357   -10.16262   -10.16120   -10.15889   -10.15716   -10.15626
   -10.15547   -10.14545   -10.13943   -10.13247   -10.13001   -10.11859
   -10.11076    -6.57371    -4.73156    -4.73110    -4.72903    -3.32691
    -2.21969    -2.06041    -2.05601    -2.02515    -1.20514    -1.14878
    -1.14761    -1.14587    -0.91966    -0.87699    -0.85729    -0.85153
    -0.83078    -0.81189    -0.80565    -0.76235    -0.75758    -0.75042
    -0.75017    -0.74603    -0.74185    -0.73057    -0.69644    -0.68988
    -0.68736    -0.67952    -0.67634    -0.67316    -0.66627    -0.66031
    -0.65228    -0.62707    -0.61165    -0.60407    -0.60004    -0.59712
    -0.58725    -0.54801    -0.54627    -0.53979    -0.52117    -0.51560
    -0.51501    -0.49385    -0.47492    -0.47068    -0.46868    -0.46258
    -0.45831    -0.45538    -0.45304    -0.45078    -0.44450    -0.44220
    -0.44007    -0.43815    -0.43724    -0.43353    -0.43037    -0.42782
    -0.42461    -0.42370    -0.42111    -0.41950    -0.41659    -0.40796
    -0.40432    -0.39278    -0.38947    -0.38343    -0.38255    -0.38051
    -0.37860    -0.37459    -0.37333    -0.37042    -0.36748    -0.36339
    -0.35949    -0.35902    -0.35473    -0.35160    -0.34901    -0.34576
    -0.34497    -0.34238    -0.33366    -0.33059    -0.32597    -0.32335
    -0.32185    -0.31826    -0.31343    -0.30786    -0.30646    -0.29585
    -0.29027    -0.28166    -0.27574    -0.26796    -0.26074    -0.25660
    -0.24918    -0.24317    -0.23743    -0.23398    -0.23121    -0.22142
    -0.21909    -0.21374    -0.19926    -0.19437    -0.18321    -0.04841
    -0.03997    -0.02476    -0.01523    -0.00780    -0.00174     0.00352
     0.01359     0.02240     0.02871
 
  end of program scf
   
 Time(scf)  user:     659.514  user+sys:     659.514  wallclock:      62.222
  
  start of program der1a
  
  end of program der1a
   
 Time(der1a)  user:      30.118  user+sys:      30.118  wallclock:       2.592
  
  start of program rwr
  
  end of program rwr
   
 Time(rwr)  user:      32.290  user+sys:      32.290  wallclock:      14.547
  
  start of program der1b
  
   
  forces (hartrees/bohr) : total     
   
 atom  label           x              y              z
 ---- --------   -------------  -------------  -------------
    1 P1         -9.877996E-04  -1.458043E-03   4.035968E-03
    2 Pd2         4.492092E-03   2.050822E-02   2.342328E-02
    3 C73         3.995568E-03  -8.294089E-04  -1.922198E-04
    4 C74         6.880553E-06   2.458907E-03   1.561027E-03
    5 C75        -1.556124E-05   3.751253E-03   9.305528E-03
    6 C76        -6.893396E-03  -7.640859E-03   9.633522E-03
    7 C77         2.015418E-02   2.637074E-02  -3.527270E-03
    8 C78        -3.093607E-04   1.620173E-03  -5.231458E-03
    9 F79        -2.272030E-03   5.226562E-04  -5.019949E-04
   10 H80        -5.690728E-05  -6.860425E-04  -1.087205E-04
   11 H82         2.279659E-02   3.939531E-02   1.550814E-03
   12 H83         7.473579E-04  -1.299249E-04   5.660959E-04
   13 H14        -1.746865E-03   1.506974E-03  -2.807066E-03
   14 C6         -9.574490E-04   1.487557E-03  -6.038072E-04
   15 C7          1.518008E-03  -2.795239E-03  -2.273365E-04
   16 C8          4.739374E-03   1.203852E-03  -1.130143E-02
   17 C9         -6.295311E-04  -1.606600E-03  -1.024740E-03
   18 C10        -1.906022E-03   3.558091E-04   3.425945E-04
   19 C11         4.494464E-03   3.914451E-03   1.988550E-04
   20 C12         1.055195E-03  -4.597295E-03  -3.286712E-03
   21 C13         1.290120E-03  -6.169126E-04  -1.210576E-04
   22 C14         8.965423E-04   3.607113E-04   3.619980E-04
   23 C15         1.800010E-04   5.409918E-04   1.666937E-03
   24 C16         3.881815E-04  -6.020160E-05   1.899866E-04
   25 C17        -4.758667E-03  -6.906416E-03   2.133261E-03
   26 C18        -2.801708E-02  -3.538641E-02  -6.211228E-03
   27 C19        -7.755080E-03  -1.095086E-02   5.112048E-04
   28 C20         3.428245E-03   1.181576E-03  -3.196554E-03
   29 C21         1.632557E-03  -2.683812E-05  -2.955069E-03
   30 C22         1.587931E-03  -1.461342E-02   1.277186E-03
   31 C23         2.469972E-04  -3.212444E-04  -3.832638E-04
   32 C24        -2.736088E-04  -7.984626E-04  -4.003293E-04
   33 C25         6.894077E-04   2.770992E-04  -4.865750E-04
   34 C26         4.928815E-05   6.396537E-04   8.414466E-05
   35 C27        -6.423531E-04  -3.869337E-04   4.682350E-04
   36 C28         2.306091E-05  -6.769756E-04   2.543112E-04
   37 H29        -3.636379E-04  -5.168708E-05  -5.692859E-04
   38 H30         1.319302E-05   3.384440E-04   5.304267E-04
   39 H31         2.669419E-05  -2.845886E-04   3.299931E-05
   40 H32         3.486039E-03  -5.047829E-03  -2.525091E-02
   41 H33        -5.729397E-05  -3.808133E-04  -2.387535E-03
   42 H34        -2.641226E-04   1.676892E-04  -3.714386E-05
   43 H35        -1.997003E-04   1.254033E-04   7.060079E-04
   44 H36         2.094804E-04   6.202962E-05   7.764378E-04
   45 H37        -1.234592E-03  -1.469515E-04   2.179645E-03
   46 H38         1.380127E-03   1.362447E-03  -1.985145E-03
   47 H39         1.440073E-03   5.941751E-03  -6.441116E-03
   48 H40        -1.044916E-04  -2.404164E-04   2.801208E-05
   49 H41        -1.267345E-03   1.263069E-04  -7.699972E-03
   50 H42         4.597440E-04   3.158618E-04  -2.294249E-03
   51 H43         2.571947E-04   2.539880E-04   6.642780E-04
   52 H44         1.167853E-04   1.584546E-04  -3.181614E-04
   53 H45         2.306553E-04  -2.606849E-04   4.811190E-04
   54 H46         1.009253E-04  -1.624968E-04  -3.511727E-04
   55 H47         3.905925E-05   1.254826E-04  -3.381399E-05
   56 H48         6.902653E-05  -2.505721E-04   1.204419E-04
   57 H49        -1.220397E-04   3.688309E-05   2.890591E-04
   58 H50        -1.540055E-02  -2.803215E-02  -6.217138E-03
   59 H51        -1.179974E-03  -3.809366E-03  -3.389004E-03
   60 H52         3.575303E-04  -6.483926E-04   5.792811E-04
   61 H53        -2.587059E-04   8.060984E-05  -1.756308E-03
   62 H54         1.860221E-03  -2.199307E-04   7.771951E-04
   63 H55         5.199875E-04   7.068143E-04   2.783667E-04
   64 H56         2.683529E-04   3.892723E-04  -1.773610E-04
   65 H57        -8.802197E-05   4.229865E-04   8.193060E-05
   66 H58        -4.342167E-04   6.079268E-05   2.552463E-04
   67 H59        -4.947901E-04   4.629547E-04   1.128882E-04
   68 C104        5.920712E-05  -4.813154E-04  -2.377148E-03
   69 C105        5.802509E-04  -1.086263E-03  -3.779019E-04
   70 C106       -1.468912E-03   1.422699E-03   1.082866E-02
   71 C107        1.289366E-04   4.119160E-04   2.465516E-03
   72 H108       -6.114868E-04   4.401340E-04   8.510373E-05
   73 H109       -3.260775E-04   1.432724E-03   2.376405E-04
   74 H110       -2.819535E-04  -1.124111E-03  -7.766959E-04
   75 H111       -5.812385E-05   1.875448E-04   2.453491E-04
   76 H112       -1.782959E-03   1.020611E-03   4.384850E-03
   77 H113       -2.052880E-04   4.731568E-04  -8.556852E-05
   78 H114        5.790055E-04   1.037016E-03   3.276346E-04
   79 H115        2.577500E-03   1.053472E-02   4.550878E-03
   80 H116       -3.545409E-03   7.922907E-04   1.079141E-02
   81 Br117      -8.585290E-03   4.468804E-03   1.732435E-02
   82 O118       -2.773453E-03  -1.193146E-04  -3.531862E-03
   83 Na119       8.494520E-03  -4.670173E-03  -8.421588E-03
 -------------   -------------  -------------  -------------
     total       -6.635847E-04   1.950596E-03  -3.462277E-04
   
  end of program der1b
   
 Time(der1b)  user:     197.731  user+sys:     197.731  wallclock:      17.541
  
  start of program geopt
  
 ----------------------------------------------------------------------------
  Geometry optimization step  1
  Total energy:     -2102.20235568485 hartrees
 ----------------------------------------------------------------------------
  
  
  Level shifts adjusted to satisfy step-size constraints
   Step size:    0.3001241
   Cos(theta):   0.6723877
   Final level shift:  -5.6173009E-01
  
  gradient maximum:        4.6829E-01 .  (  2.2500E-03 )
  gradient rms:            6.3927E-02 .  (  1.5000E-03 )
  displacement maximum:    4.7628E-02 .  (  9.0000E-03 )
  displacement rms:        8.6486E-03 .  (  6.0000E-03 )
  
  predicted energy change:  -8.1709E-02
  step size:     0.14185
  trust radius:  0.30000
  
  molecular structure not yet converged...
  
  center of mass moved by:
     x:    -1.4419E-02     y:     4.7845E-02     z:     6.0287E-02
  
  new geometry: 
                                   angstroms
  atom               x                 y                 z
  P1            0.0037107602     -0.0256486162      0.0411940637 
  Pd2           0.0181635534      0.0461653140      2.3992529534 
  C73           4.7700916709      0.0452350812      2.9064612607 
  C74           4.1516627738      1.2694211408      2.7007511938 
  C75           2.7629813110      1.3063931550      2.5539162917 
  C76           2.0106450772      0.1311185764      2.5894559646 
  C77           2.6539247605     -1.0752294165      2.8664348437 
  C78           4.0414172101     -1.1310137061      3.0112975528 
  F79           6.1144363379      0.0006004734      3.0333087269 
  H80           4.7489178814      2.1767144121      2.6676545169 
  H82           2.0627728782     -1.9836159971      2.9880946804 
  H83           4.5532125229     -2.0675746786      3.2169149236 
  H14           2.2817957414      2.2692755307      2.4321858455 
  C6            1.6046680773      0.1264360643     -2.3971022928 
  C7            1.5712573972      0.5121689403     -0.9085584984 
  C8            2.7427768776     -0.2269107012     -0.2490024146 
  C9            1.7576242659      2.0315685492     -0.7829924632 
  C10          -1.5086027856      0.8585380707     -0.7290181838 
  C11          -1.7146194440      2.1861951472      0.0151407746 
  C12          -2.7280535787     -0.0426320050     -0.4783117158 
  C13          -1.4243310156      1.1663236835     -2.2311035942 
  C14          -0.1198243473     -1.7903619652     -0.4771548169 
  C15           0.0390832396     -2.7855507014      0.4315770911 
  C16          -0.3553706244     -2.1767087992     -1.9255234311 
  C17          -0.0583232295     -2.7151375733      1.9176729571 
  C18           0.9544612493     -3.3093899571      2.7081015272 
  C19           0.7006718489     -3.6766013427      4.0178993955 
  C20          -0.5743486605     -3.5003372676      4.5682229612 
  C21          -1.5838144462     -2.9177138251      3.8177991810 
  C22          -1.3269046822     -2.5051401575      2.5030414152 
  C23           0.2347507978     -4.1857939850     -0.0393961147 
  C24          -0.6226236335     -5.2152278835      0.3705130978 
  C25          -0.4060160430     -6.5246194209     -0.0509671581 
  C26           0.6861956148     -6.8286224457     -0.8649251708 
  C27           1.5556541200     -5.8132887701     -1.2637596565 
  C28           1.3290418400     -4.5013500826     -0.8556337946 
  H29           0.7548282064      0.5001485191     -2.9705596549 
  H30           1.6725650801     -0.9539213436     -2.5393910768 
  H31           2.5112348543      0.5641275971     -2.8371196522 
  H32           2.8676656709      0.0654972040      0.7919076201 
  H33           3.6691391756      0.0165880215     -0.7869279790 
  H34           2.6041806426     -1.3139168481     -0.2896269469 
  H35           1.0089924621      2.5849227427     -1.3594342150 
  H36           2.7425565749      2.2977167764     -1.1890452492 
  H37           1.7207607688      2.3734498986      0.2521014450 
  H38          -0.8520710093      2.8532468009     -0.0748057459 
  H39          -1.9029709035      2.0139747785      1.0776024743 
  H40          -2.5886078338      2.7036117922     -0.4028677826 
  H41          -2.8601496977     -0.2416663788      0.5888535305 
  H42          -2.6614924326     -1.0001382212     -1.0061576661 
  H43          -3.6330622275      0.4719672039     -0.8274585767 
  H44          -0.6065968516      1.8524296545     -2.4692141209 
  H45          -2.3581868453      1.6604672884     -2.5323318279 
  H46          -1.3218949823      0.2744468052     -2.8548185204 
  H47          -1.0775791691     -2.9994209973     -1.9773687092 
  H48           0.5522481038     -2.5217677260     -2.4295187164 
  H49          -0.7475499464     -1.3464757986     -2.5123532447 
  H50           1.9104957467     -3.5357426207      2.2485895023 
  H51           1.4919735210     -4.1241779096      4.6137195781 
  H52          -0.7690936108     -3.8093125186      5.5917405934 
  H53          -2.5694946874     -2.7595248328      4.2461521653 
  H54          -2.1463543009     -2.1751237710      1.8729146094 
  H55          -1.4576114823     -4.9851345095      1.0281306402 
  H56          -1.0851405512     -7.3130407100      0.2664510581 
  H57           0.8612339582     -7.8538956254     -1.1837284006 
  H58           2.4185174592     -6.0445300494     -1.8848676610 
  H59           2.0206617106     -3.7135578842     -1.1462790143 
  C104          0.8808263434      0.3884500552      5.6735537417 
  C105          0.0725450810      0.4389524762      6.9948981388 
  C106          1.8199332564     -0.8212512145      5.7889620628 
  C107          1.7093945751      1.6796758699      5.6029410321 
  H108          0.7276247988      0.4068140819      7.8736727760 
  H109         -0.5005784808      1.3780100333      7.0830889303 
  H110         -0.6085012087     -0.4208092428      7.0624798443 
  H111          2.2783246258      1.8480308173      6.5272507824 
  H112          2.4157395152      1.6341360323      4.7742066939 
  H113          1.0439819963      2.5371138799      5.4392810842 
  H114          2.4611632501     -0.7379172581      6.6770340112 
  H115          1.2471414249     -1.7502787541      5.8629992609 
  H116          2.4619699227     -0.8914587333      4.9127668219 
  Br117        -2.9136411668      0.6397371777      2.9307109117 
  O118         -0.0508072170      0.2984045785      4.6177621690 
  Na119        -2.0325131383      1.0366128829      5.4427456058 
   
 
  bond lengths (angstroms):
 
 P1      -Pd2     :   2.359196      P1      -C7      :   1.910100
 P1      -C10     :   1.913663      P1      -C14     :   1.843410
 Pd2     -C76     :   2.003341      Pd2     -O118    :   2.233868
 C73     -C74     :   1.386868      C73     -C78     :   1.387630
 C73     -F79     :   1.351053      C74     -C75     :   1.396912
 C74     -H80     :   1.086734      C75     -C76     :   1.395902
 C75     -H14     :   1.083282      C76     -C77     :   1.394920
 C77     -C78     :   1.396149      C77     -H82     :   1.090609
 C78     -H83     :   1.086904      C6      -C7      :   1.538073
 C6      -H29     :   1.091211      C6      -H30     :   1.091800
 C6      -H31     :   1.098659      C7      -C8      :   1.534181
 C7      -C9      :   1.535928      C8      -H32     :   1.088390
 C8      -H33     :   1.098546      C8      -H34     :   1.096559
 C9      -H35     :   1.094959      C9      -H36     :   1.098092
 C9      -H37     :   1.090716      C10     -C11     :   1.535867
 C10     -C12     :   1.536887      C10     -C13     :   1.535609
 C11     -H38     :   1.094092      C11     -H39     :   1.092685
 C11     -H40     :   1.098320      C12     -H41     :   1.093575
 C12     -H42     :   1.095386      C12     -H43     :   1.098069
 C13     -H44     :   1.093676      C13     -H45     :   1.098637
 C13     -H46     :   1.093141      C14     -C15     :   1.356999
 C14     -C16     :   1.517405      C15     -C17     :   1.490948
 C15     -C23     :   1.490229      C16     -H47     :   1.095960
 C16     -H48     :   1.094006      C16     -H49     :   1.089707
 C17     -C18     :   1.415502      C17     -C22     :   1.412818
 C18     -C19     :   1.383772      C18     -H50     :   1.084615
 C19     -C20     :   1.399858      C19     -H51     :   1.086961
 C20     -C21     :   1.386220      C20     -H52     :   1.086729
 C21     -C22     :   1.401716      C21     -H53     :   1.086313
 C22     -H54     :   1.085112      C23     -C24     :   1.401018
 C23     -C28     :   1.401175      C24     -C25     :   1.392505
 C24     -H55     :   1.087478      C25     -C26     :   1.395662
 C25     -H56     :   1.087921      C26     -C27     :   1.394966
 C26     -H57     :   1.087869      C27     -C28     :   1.392517
 C27     -H58     :   1.088017      C28     -H59     :   1.087855
 C104    -C105    :   1.549781      C104    -C106    :   1.535779
 C104    -C107    :   1.535831      C104    -O118    :   1.410938
 C105    -H108    :   1.096543      C105    -H109    :   1.103665
 C105    -H110    :   1.098900      C106    -H114    :   1.098541
 C106    -H115    :   1.093921      C106    -H116    :   1.088512
 C107    -H111    :   1.098350      C107    -H112    :   1.089861
 C107    -H113    :   1.097615      Br117   -Na119   :   2.691508
 O118    -Na119   :   2.269958
 
  bond angles:
 
 C7      -P1      -Pd2     : 118.906955  C10     -P1      -Pd2     : 113.145251
 C10     -P1      -C7      : 108.561837  C14     -P1      -Pd2     : 108.095737
 C14     -P1      -C7      : 100.645153  C14     -P1      -C10     : 106.032400
 C76     -Pd2     -P1      :  95.870529  O118    -Pd2     -P1      : 174.805997
 O118    -Pd2     -C76     :  86.079587  C78     -C73     -C74     : 121.687077
 F79     -C73     -C74     : 119.129894  F79     -C73     -C78     : 119.170906
 C75     -C74     -C73     : 118.832056  H80     -C74     -C73     : 119.761761
 H80     -C74     -C75     : 121.402786  C76     -C75     -C74     : 120.718797
 H14     -C75     -C74     : 118.483928  H14     -C75     -C76     : 120.785680
 C75     -C76     -Pd2     : 124.703171  C77     -C76     -Pd2     : 116.157355
 C77     -C76     -C75     : 118.988683  C78     -C77     -C76     : 120.894342
 H82     -C77     -C76     : 119.505263  H82     -C77     -C78     : 119.592175
 C77     -C78     -C73     : 118.695667  H83     -C78     -C73     : 119.830928
 H83     -C78     -C77     : 121.467367  H29     -C6      -C7      : 113.940891
 H30     -C6      -C7      : 112.063888  H30     -C6      -H29     : 108.592120
 H31     -C6      -C7      : 107.795461  H31     -C6      -H29     : 107.200962
 H31     -C6      -H30     : 106.899921  C6      -C7      -P1      : 115.367845
 C8      -C7      -P1      : 106.097007  C8      -C7      -C6      : 106.180258
 C9      -C7      -P1      : 109.722409  C9      -C7      -C6      : 108.939835
 C9      -C7      -C8      : 110.411284  H32     -C8      -C7      : 111.675517
 H33     -C8      -C7      : 109.064457  H33     -C8      -H32     : 108.179661
 H34     -C8      -C7      : 111.413986  H34     -C8      -H32     : 108.436567
 H34     -C8      -H33     : 107.948689  H35     -C9      -C7      : 111.958089
 H36     -C9      -C7      : 108.564315  H36     -C9      -H35     : 107.223070
 H37     -C9      -C7      : 112.554142  H37     -C9      -H35     : 108.547515
 H37     -C9      -H36     : 107.774206  C11     -C10     -P1      : 108.083163
 C12     -C10     -P1      : 106.886009  C12     -C10     -C11     : 108.747665
 C13     -C10     -P1      : 116.291162  C13     -C10     -C11     : 107.941362
 C13     -C10     -C12     : 108.701282  H38     -C11     -C10     : 112.423555
 H39     -C11     -C10     : 110.977117  H39     -C11     -H38     : 108.175328
 H40     -C11     -C10     : 109.242685  H40     -C11     -H38     : 107.989012
 H40     -C11     -H39     : 107.887285  H41     -C12     -C10     : 111.207718
 H42     -C12     -C10     : 112.689186  H42     -C12     -H41     : 108.571626
 H43     -C12     -C10     : 109.104419  H43     -C12     -H41     : 107.218969
 H43     -C12     -H42     : 107.849104  H44     -C13     -C10     : 112.317219
 H45     -C13     -C10     : 108.161761  H45     -C13     -H44     : 107.079064
 H46     -C13     -C10     : 113.561189  H46     -C13     -H44     : 108.514775
 H46     -C13     -H45     : 106.868687  C15     -C14     -P1      : 120.392193
 C16     -C14     -P1      : 121.502821  C16     -C14     -C15     : 118.076421
 C17     -C15     -C14     : 128.696709  C23     -C15     -C14     : 119.526462
 C23     -C15     -C17     : 111.590207  H47     -C16     -C14     : 109.790134
 H48     -C16     -C14     : 113.032402  H48     -C16     -H47     : 106.746634
 H49     -C16     -C14     : 112.080093  H49     -C16     -H47     : 108.016745
 H49     -C16     -H48     : 106.905518  C18     -C17     -C15     : 119.341890
 C22     -C17     -C15     : 118.597937  C22     -C17     -C18     : 118.260817
 C19     -C18     -C17     : 120.579904  H50     -C18     -C17     : 118.797112
 H50     -C18     -C19     : 120.483900  C20     -C19     -C18     : 120.380915
 H51     -C19     -C18     : 119.643569  H51     -C19     -C20     : 119.962090
 C21     -C20     -C19     : 120.223683  H52     -C20     -C19     : 119.846834
 H52     -C20     -C21     : 119.924356  C22     -C21     -C20     : 119.867820
 H53     -C21     -C20     : 120.563720  H53     -C21     -C22     : 119.557616
 C21     -C22     -C17     : 120.626871  H54     -C22     -C17     : 118.860784
 H54     -C22     -C21     : 119.721405  C24     -C23     -C15     : 121.170653
 C28     -C23     -C15     : 119.884813  C28     -C23     -C24     : 118.874615
 C25     -C24     -C23     : 120.475483  H55     -C24     -C23     : 119.428736
 H55     -C24     -C25     : 120.094433  C26     -C25     -C24     : 120.203591
 H56     -C25     -C24     : 119.738105  H56     -C25     -C26     : 120.054277
 C27     -C26     -C25     : 119.733684  H57     -C26     -C25     : 120.139926
 H57     -C26     -C27     : 120.125902  C28     -C27     -C26     : 120.033869
 H58     -C27     -C26     : 120.186871  H58     -C27     -C28     : 119.775766
 C27     -C28     -C23     : 120.664035  H59     -C28     -C23     : 119.279415
 H59     -C28     -C27     : 120.033078  C106    -C104    -C105    : 106.290983
 C107    -C104    -C105    : 107.047998  C107    -C104    -C106    : 109.620735
 O118    -C104    -C105    : 107.199496  O118    -C104    -C106    : 114.187386
 O118    -C104    -C107    : 112.053644  H108    -C105    -C104    : 111.761846
 H109    -C105    -C104    : 111.511594  H109    -C105    -H108    : 105.731298
 H110    -C105    -C104    : 110.497610  H110    -C105    -H108    : 107.339096
 H110    -C105    -H109    : 109.812779  H114    -C106    -C104    : 110.972965
 H115    -C106    -C104    : 110.723045  H115    -C106    -H114    : 108.381887
 H116    -C106    -C104    : 110.547735  H116    -C106    -H114    : 108.139466
 H116    -C106    -H115    : 107.971606  H111    -C107    -C104    : 111.692514
 H112    -C107    -C104    : 110.455423  H112    -C107    -H111    : 108.095880
 H113    -C107    -C104    : 109.667669  H113    -C107    -H111    : 108.648417
 H113    -C107    -H112    : 108.189804  C104    -O118    -Pd2     : 136.883516
 Na119   -O118    -Pd2     : 115.126133  Na119   -O118    -C104    : 106.483310
 O118    -Na119   -Br117   :  84.182911
 
  torsional angles:
 
 P1      -Pd2     -C76     -C75     :  86.161428
 P1      -Pd2     -C76     -C77     : -98.363883
 P1      -Pd2     -O118    -C104    :-115.820089
 P1      -Pd2     -O118    -Na119   :  47.798316
 P1      -C7      -C6      -H29     :  56.546108
 P1      -C7      -C6      -H30     : -67.258933
 P1      -C7      -C6      -H31     : 175.383986
 P1      -C7      -C8      -H32     : -62.799510
 P1      -C7      -C8      -H33     : 177.690501
 P1      -C7      -C8      -H34     :  58.628437
 P1      -C7      -C9      -H35     : -71.070519
 P1      -C7      -C9      -H36     : 170.753612
 P1      -C7      -C9      -H37     :  51.532957
 P1      -C10     -C11     -H38     :  60.953543
 P1      -C10     -C11     -H39     : -60.352189
 P1      -C10     -C11     -H40     :-179.184561
 P1      -C10     -C12     -H41     :  56.953276
 P1      -C10     -C12     -H42     : -65.222099
 P1      -C10     -C12     -H43     : 175.015964
 P1      -C10     -C13     -H44     : -62.607251
 P1      -C10     -C13     -H45     : 179.438109
 P1      -C10     -C13     -H46     :  60.999086
 P1      -C14     -C15     -C17     :  18.772119
 P1      -C14     -C15     -C23     :-166.639334
 P1      -C14     -C16     -H47     :-138.318967
 P1      -C14     -C16     -H48     : 102.620740
 P1      -C14     -C16     -H49     : -18.273322
 Pd2     -P1      -C7      -C6      : 166.070600
 Pd2     -P1      -C7      -C8      :  48.824692
 Pd2     -P1      -C7      -C9      : -70.454245
 Pd2     -P1      -C10     -C11     :  43.714903
 Pd2     -P1      -C10     -C12     : -73.186319
 Pd2     -P1      -C10     -C13     : 165.232100
 Pd2     -P1      -C14     -C15     : -10.992690
 Pd2     -P1      -C14     -C16     : 170.988919
 Pd2     -C76     -C75     -C74     : 179.752375
 Pd2     -C76     -C75     -H14     :   1.009875
 Pd2     -C76     -C77     -C78     : 179.640450
 Pd2     -C76     -C77     -H82     :  -1.406831
 Pd2     -O118    -C104    -C105    :-175.243788
 Pd2     -O118    -C104    -C106    : -57.796056
 Pd2     -O118    -C104    -C107    :  67.593135
 Pd2     -O118    -Na119   -Br117   :   8.675097
 C73     -C74     -C75     -C76     :  -1.122391
 C73     -C74     -C75     -H14     : 177.648532
 C73     -C78     -C77     -C76     :   1.539053
 C73     -C78     -C77     -H82     :-177.412764
 C74     -C73     -C78     -C77     :   1.856296
 C74     -C73     -C78     -H83     :-177.263104
 C74     -C75     -C76     -C77     :   4.396265
 C75     -C74     -C73     -C78     :  -2.060775
 C75     -C74     -C73     -F79     : 179.216686
 C75     -C76     -Pd2     -O118    : -89.006685
 C75     -C76     -C77     -C78     :  -4.612204
 C75     -C76     -C77     -H82     : 174.340515
 C76     -Pd2     -P1      -C7      : -17.527120
 C76     -Pd2     -P1      -C10     :-146.688658
 C76     -Pd2     -P1      -C14     :  96.203378
 C76     -Pd2     -O118    -C104    :  -3.575121
 C76     -Pd2     -O118    -Na119   : 160.043284
 C76     -C75     -C74     -H80     : 179.549871
 C76     -C77     -C78     -H83     :-179.356580
 C77     -C76     -Pd2     -O118    :  86.468004
 C77     -C76     -C75     -H14     :-174.346235
 C77     -C78     -C73     -F79     :-179.421675
 C78     -C73     -C74     -H80     : 177.278248
 F79     -C73     -C74     -H80     :  -1.444291
 F79     -C73     -C78     -H83     :   1.458925
 H80     -C74     -C75     -H14     :  -1.679206
 H82     -C77     -C78     -H83     :   1.691603
 C6      -C7      -P1      -C10     : -62.700545
 C6      -C7      -P1      -C14     :  48.372268
 C6      -C7      -C8      -H32     : 173.968266
 C6      -C7      -C8      -H33     :  54.458277
 C6      -C7      -C8      -H34     : -64.603787
[...]
                 --------- --------- ---------
  frequencies      3219.12   3219.47   3230.81
  intensities         4.20      4.05      6.49
  reduc. mass         0.33      0.25      0.43
  force const         2.04      1.53      2.67
    P1       X    -0.00009  -0.00005   0.00000
    P1       Y    -0.00003   0.00001   0.00001
    P1       Z    -0.00001   0.00001  -0.00000
    Pd2      X     0.00001  -0.00002   0.00002
    Pd2      Y     0.00000  -0.00000   0.00000
    Pd2      Z     0.00000   0.00000   0.00000
    C73      X    -0.00008  -0.00003   0.00004
    C73      Y     0.00013   0.00018   0.00005
    C73      Z    -0.00000  -0.00001   0.00001
    C74      X    -0.00023  -0.00027   0.00006
    C74      Y    -0.00079  -0.00083   0.00019
    C74      Z     0.00003   0.00002  -0.00001
    C75      X     0.00073   0.00096  -0.00022
    C75      Y    -0.00049  -0.00077   0.00022
    C75      Z     0.00020   0.00028  -0.00007
    C76      X     0.00027   0.00015  -0.00006
    C76      Y    -0.00031  -0.00013   0.00003
    C76      Z    -0.00024  -0.00016  -0.00002
    C77      X    -0.00064  -0.00093  -0.00050
    C77      Y    -0.00233  -0.00340  -0.00185
    C77      Z    -0.00013   0.00001   0.00009
    C78      X    -0.00057   0.00065   0.00058
    C78      Y     0.00042  -0.00066  -0.00051
    C78      Z    -0.00041   0.00012   0.00021
    F79      X     0.00003   0.00001  -0.00001
    F79      Y     0.00001  -0.00000  -0.00001
    F79      Z     0.00000  -0.00000  -0.00000
    H80      X     0.00229   0.00253  -0.00059
    H80      Y     0.00846   0.00913  -0.00211
    H80      Z    -0.00020  -0.00022   0.00006
    H82      X     0.00740   0.01044   0.00550
    H82      Y     0.02557   0.03889   0.02158
    H82      Z    -0.00635  -0.00521  -0.00125
    H83      X     0.00598  -0.00698  -0.00608
    H83      Y    -0.00584   0.00667   0.00576
    H83      Z     0.00261  -0.00238  -0.00227
    H14      X    -0.00758  -0.01016   0.00238
    H14      Y     0.00769   0.01022  -0.00242
    H14      Z    -0.00251  -0.00327   0.00078
    C6       X    -0.00075  -0.00046   0.00001
    C6       Y     0.00065   0.00051  -0.00001
    C6       Z    -0.00052  -0.00036   0.00000
    C7       X     0.00001   0.00002  -0.00000
    C7       Y    -0.00078  -0.00048  -0.00001
    C7       Z    -0.00035  -0.00022  -0.00002
    C8       X    -0.01198  -0.00742  -0.00003
    C8       Y    -0.03967  -0.02445  -0.00014
    C8       Z    -0.06162  -0.03776  -0.00027
    C9       X    -0.00007  -0.00006  -0.00000
    C9       Y     0.00007   0.00006   0.00001
    C9       Z    -0.00106  -0.00069   0.00000
    C10      X     0.00003  -0.00003   0.00002
    C10      Y     0.00002   0.00002  -0.00000
    C10      Z    -0.00000  -0.00000  -0.00001
    C11      X    -0.00002  -0.00014   0.00008
    C11      Y     0.00000  -0.00002   0.00002
    C11      Z    -0.00001   0.00011  -0.00007
    C12      X    -0.00001  -0.00001  -0.00001
    C12      Y    -0.00013   0.00019  -0.00014
    C12      Z     0.00039  -0.00083   0.00061
    C13      X     0.00000  -0.00002   0.00002
    C13      Y    -0.00018  -0.00009   0.00002
    C13      Z    -0.00012  -0.00008   0.00000
    C14      X    -0.00002  -0.00009   0.00006
    C14      Y     0.00002   0.00004  -0.00000
    C14      Z     0.00002  -0.00004   0.00007
    C15      X    -0.00013   0.00001  -0.00013
    C15      Y    -0.00002  -0.00008   0.00001
    C15      Z     0.00012  -0.00017   0.00014
    C16      X     0.00005   0.00005   0.00003
    C16      Y     0.00005   0.00018  -0.00007
    C16      Z    -0.00005  -0.00012  -0.00005
    C17      X     0.00017  -0.00096   0.00097
    C17      Y    -0.00012   0.00040  -0.00039
    C17      Z    -0.00081   0.00152  -0.00234
    C18      X     0.00091   0.00272   0.00115
    C18      Y    -0.00064  -0.00196  -0.00065
    C18      Z    -0.00110  -0.00750  -0.00233
    C19      X    -0.00218   0.00713   0.00450
    C19      Y     0.00105  -0.00351  -0.00223
    C19      Z     0.00078  -0.00114  -0.00110
    C20      X    -0.00612   0.00997   0.00935
    C20      Y     0.00304  -0.00498  -0.00458
    C20      Z    -0.00940   0.01591   0.01236
    C21      X     0.01354  -0.02119  -0.02480
    C21      Y    -0.00556   0.00868   0.01000
    C21      Z    -0.02412   0.03754   0.05355
    C22      X    -0.02835   0.04599  -0.05337
    C22      Y     0.01275  -0.02073   0.02424
    C22      Z     0.00239  -0.00383   0.00092
    C23      X     0.00001  -0.00007   0.00005
    C23      Y     0.00003  -0.00005   0.00001
    C23      Z     0.00000   0.00004   0.00002
    C24      X    -0.00032   0.00062  -0.00033
    C24      Y     0.00012  -0.00022   0.00014
    C24      Z     0.00050  -0.00096   0.00052
    C25      X    -0.00002   0.00008  -0.00011
    C25      Y    -0.00006   0.00013  -0.00015
    C25      Z     0.00000  -0.00002   0.00005
    C26      X     0.00001  -0.00003   0.00000
    C26      Y     0.00010  -0.00017  -0.00003
    C26      Z     0.00004  -0.00005  -0.00002
    C27      X     0.00001   0.00014   0.00001
    C27      Y    -0.00003  -0.00006  -0.00000
    C27      Z    -0.00003  -0.00022  -0.00003
    C28      X     0.00020   0.00025  -0.00005
    C28      Y     0.00022   0.00029  -0.00005
    C28      Z    -0.00014  -0.00016   0.00003
    H29      X     0.00959   0.00640  -0.00004
    H29      Y    -0.00961  -0.00644   0.00004
    H29      Z     0.00938   0.00622  -0.00004
    H30      X     0.00175   0.00074   0.00005
    H30      Y     0.00294   0.00093   0.00006
    H30      Z     0.00126   0.00066  -0.00001
    H31      X     0.00005  -0.00025  -0.00005
    H31      Y    -0.00044  -0.00026  -0.00000
    H31      Z     0.00088   0.00069  -0.00000
    H32      X     0.06833   0.04184   0.00033
    H32      Y     0.08571   0.05249   0.00040
    H32      Z     0.66557   0.40762   0.00285
    H33      X    -0.04547  -0.02756  -0.00041
    H33      Y    -0.01618  -0.00988  -0.00012
    H33      Z     0.01203   0.00722   0.00016
    H34      X     0.12110   0.07479   0.00044
    H34      Y     0.41537   0.25643   0.00145
    H34      Z     0.06240   0.03862   0.00020
    H35      X     0.00161   0.00115   0.00005
    H35      Y    -0.00180  -0.00127  -0.00004
    H35      Z     0.00145   0.00099   0.00003
    H36      X    -0.00211  -0.00148  -0.00004
    H36      Y     0.00038   0.00019  -0.00001
    H36      Z     0.00059   0.00044   0.00001
    H37      X     0.00180   0.00116  -0.00001
    H37      Y     0.00482   0.00303  -0.00000
    H37      Z     0.01100   0.00704  -0.00007
    H38      X     0.00005   0.00128  -0.00087
    H38      Y     0.00008   0.00045  -0.00026
    H38      Z     0.00006  -0.00005   0.00007
    H39      X     0.00010   0.00024  -0.00006
    H39      Y    -0.00003   0.00022  -0.00014
    H39      Z     0.00005  -0.00141   0.00080
    H40      X     0.00003   0.00029  -0.00008
    H40      Y     0.00002  -0.00044   0.00015
    H40      Z    -0.00006   0.00022  -0.00013
    H41      X     0.00080  -0.00159   0.00118
    H41      Y     0.00166  -0.00335   0.00253
    H41      Z    -0.00402   0.00805  -0.00608
    H42      X    -0.00028   0.00098  -0.00067
    H42      Y    -0.00074   0.00226  -0.00147
    H42      Z    -0.00064   0.00214  -0.00139
    H43      X    -0.00026   0.00087  -0.00043
    H43      Y     0.00052  -0.00124   0.00062
    H43      Z    -0.00001   0.00002   0.00001
    H44      X    -0.00030  -0.00007  -0.00033
    H44      Y    -0.00011  -0.00000  -0.00014
    H44      Z     0.00002  -0.00004   0.00009
    H45      X    -0.00052  -0.00000  -0.00006
    H45      Y     0.00054  -0.00006   0.00011
    H45      Z    -0.00012   0.00012  -0.00009
    H46      X     0.00044   0.00022  -0.00001
    H46      Y     0.00206   0.00126  -0.00013
    H46      Z     0.00160   0.00092  -0.00011
    H47      X    -0.00077  -0.00021  -0.00021
    H47      Y    -0.00005   0.00007  -0.00004
    H47      Z     0.00015   0.00013   0.00014
    H48      X     0.00004   0.00013  -0.00016
    H48      Y     0.00016  -0.00046   0.00067
    H48      Z     0.00007  -0.00028   0.00035
    H49      X    -0.00003  -0.00027   0.00005
    H49      Y    -0.00066  -0.00193  -0.00001
    H49      Z     0.00048   0.00178   0.00005
    H50      X    -0.00753  -0.03691  -0.00980
    H50      Y     0.00273   0.02262   0.00632
    H50      Z     0.01742   0.08487   0.02268
    H51      X     0.02298  -0.07506  -0.04609
    H51      Y    -0.01152   0.03711   0.02272
    H51      Z    -0.00228   0.00544   0.00388
    H52      X     0.06102  -0.10161  -0.08040
    H52      Y    -0.03039   0.05081   0.04000
    H52      Z     0.10526  -0.17635  -0.13670
    H53      X    -0.14253   0.22209   0.28855
    H53      Y     0.06001  -0.09335  -0.12135
    H53      Z     0.28610  -0.44526  -0.59128
    H54      X     0.32865  -0.53282   0.59339
    H54      Y    -0.15015   0.24341  -0.27086
    H54      Z    -0.01909   0.03065  -0.02884
    H55      X     0.00357  -0.00689   0.00358
    H55      Y    -0.00128   0.00253  -0.00129
    H55      Z    -0.00550   0.01062  -0.00546
    H56      X     0.00033  -0.00094   0.00130
    H56      Y     0.00041  -0.00113   0.00150
    H56      Z    -0.00020   0.00059  -0.00081
    H57      X    -0.00009   0.00016   0.00003
    H57      Y    -0.00119   0.00191   0.00031
    H57      Z    -0.00055   0.00088   0.00014
    H58      X    -0.00020  -0.00164  -0.00016
    H58      Y     0.00012   0.00070   0.00007
    H58      Z     0.00035   0.00249   0.00025
    H59      X    -0.00235  -0.00289   0.00059
    H59      Y    -0.00263  -0.00318   0.00064
    H59      Z     0.00142   0.00171  -0.00039
    C104     X     0.00001  -0.00001  -0.00001
    C104     Y     0.00001  -0.00002  -0.00003
    C104     Z    -0.00002   0.00004   0.00007
    C105     X     0.00003  -0.00004   0.00007
    C105     Y     0.00002  -0.00004   0.00001
    C105     Z     0.00002  -0.00002   0.00003
    C106     X    -0.00053   0.00075   0.00085
    C106     Y    -0.00004   0.00009   0.00001
    C106     Z     0.00057  -0.00080  -0.00120
    C107     X    -0.00002   0.00007   0.00008
    C107     Y     0.00004  -0.00009  -0.00011
    C107     Z    -0.00000  -0.00005  -0.00004
    H108     X    -0.00006   0.00009  -0.00010
    H108     Y     0.00002  -0.00003   0.00006
    H108     Z    -0.00011   0.00011  -0.00039
    H109     X     0.00008  -0.00015  -0.00020
    H109     Y    -0.00024   0.00050   0.00068
    H109     Z    -0.00002   0.00003   0.00006
    H110     X    -0.00029   0.00037  -0.00063
    H110     Y    -0.00017   0.00022  -0.00041
    H110     Z    -0.00005   0.00006  -0.00012
    H111     X     0.00001  -0.00001  -0.00006
    H111     Y    -0.00000  -0.00002  -0.00001
    H111     Z     0.00014  -0.00006  -0.00025
    H112     X     0.00015  -0.00076  -0.00087
    H112     Y    -0.00001   0.00025   0.00026
    H112     Z    -0.00017   0.00066   0.00076
    H113     X     0.00005  -0.00010  -0.00010
    H113     Y    -0.00043   0.00081   0.00107
    H113     Z     0.00004  -0.00007  -0.00010
    H114     X    -0.00083   0.00120   0.00153
    H114     Y     0.00078  -0.00114  -0.00148
    H114     Z    -0.00230   0.00339   0.00490
    H115     X     0.00073  -0.00141   0.00112
    H115     Y    -0.00017   0.00022   0.00116
    H115     Z     0.00057  -0.00085  -0.00042
    H116     X     0.00662  -0.00892  -0.01311
    H116     Y    -0.00221   0.00315   0.00416
    H116     Z    -0.00517   0.00702   0.00966
    Br117    X    -0.00004   0.00007  -0.00007
    Br117    Y     0.00002  -0.00004   0.00004
    Br117    Z     0.00001  -0.00001   0.00000
    O118     X    -0.00002   0.00002  -0.00003
    O118     Y     0.00001  -0.00001   0.00002
    O118     Z     0.00001  -0.00003  -0.00002
    Na119    X     0.00001  -0.00001   0.00002
    Na119    Y     0.00001  -0.00002   0.00003
    Na119    Z     0.00001  -0.00000   0.00001
  
  Number of imaginary frequencies:   1
   
  Writing vibrational animation data to L_Ar_NaOtBu_Br_O_trans_PL747.vib
  Writing IR vibrational spectrum data to L_Ar_NaOtBu_Br_O_trans_PL747_vib.spm
  rotational symmetry number:  1

  rotational temperatures (K):      0.004724      0.003076      0.002872
   
  The Quasi-Harmonic approximation will be applied to compute
  vibrational constributions to thermodynamic properties.
  Frequencies will be adjusted to a minimum value of  100.00 cm^-1.

    1 vibrational frequencies below    0.0 cm-1 not included in zero-point
  energy or thermochemical analysis.  Set freqcut to change the frequency
  cutoff value.

  vibrational temperatures:
       mode:      2        3        4        5        6        7
  temp. (K):   143.88   143.88   143.88   143.88   143.88   143.88
   
       mode:      8        9       10       11       12       13
  temp. (K):   143.88   143.88   143.88   143.88   143.88   143.88
   
       mode:     14       15       16       17       18       19
  temp. (K):   143.88   143.88   150.79   161.32   177.16   179.98
   
       mode:     20       21       22       23       24       25
  temp. (K):   184.51   190.39   201.45   204.45   210.51   230.67
   
       mode:     26       27       28       29       30       31
  temp. (K):   247.42   259.47   265.20   268.65   291.30   306.30
   
       mode:     32       33       34       35       36       37
  temp. (K):   316.39   322.37   333.22   339.13   348.04   358.14
   
       mode:     38       39       40       41       42       43
  temp. (K):   366.14   371.78   376.02   387.41   402.87   412.97
   
       mode:     44       45       46       47       48       49
  temp. (K):   420.88   433.34   444.24   455.01   457.50   485.03
   
       mode:     50       51       52       53       54       55
  temp. (K):   488.96   508.01   525.13   536.92   551.58   561.64
   
       mode:     56       57       58       59       60       61
  temp. (K):   570.21   584.14   590.83   593.61   598.82   613.29
   
       mode:     62       63       64       65       66       67
  temp. (K):   616.33   625.27   632.96   666.99   671.36   691.67
   
       mode:     68       69       70       71       72       73
  temp. (K):   705.02   709.86   741.92   765.93   799.33   806.78
   
       mode:     74       75       76       77       78       79
  temp. (K):   830.29   844.58   853.54   898.97   902.61   906.48
   
       mode:     80       81       82       83       84       85
  temp. (K):   912.41   958.74  1012.18  1025.98  1041.48  1050.65
   
       mode:     86       87       88       89       90       91
  temp. (K):  1096.79  1113.80  1129.18  1165.91  1189.27  1196.44
   
       mode:     92       93       94       95       96       97
  temp. (K):  1199.31  1202.60  1218.96  1250.73  1266.15  1311.98
   
       mode:     98       99      100      101      102      103
  temp. (K):  1320.92  1325.50  1357.03  1362.50  1371.15  1371.43
   
       mode:    104      105      106      107      108      109
  temp. (K):  1376.39  1384.02  1385.81  1392.33  1408.16  1411.96
   
       mode:    110      111      112      113      114      115
  temp. (K):  1417.12  1418.01  1434.67  1444.55  1460.40  1465.89
   
       mode:    116      117      118      119      120      121
  temp. (K):  1466.92  1471.83  1476.79  1482.13  1504.69  1507.21
   
       mode:    122      123      124      125      126      127
  temp. (K):  1517.86  1520.17  1520.75  1525.35  1525.63  1534.14
   
       mode:    128      129      130      131      132      133
  temp. (K):  1539.26  1564.30  1607.03  1615.42  1618.05  1656.16
   
       mode:    134      135      136      137      138      139
  temp. (K):  1718.99  1731.75  1732.09  1733.64  1740.40  1743.77
   
       mode:    140      141      142      143      144      145
  temp. (K):  1756.18  1766.80  1768.66  1773.07  1778.46  1786.41
   
       mode:    146      147      148      149      150      151
  temp. (K):  1794.79  1815.93  1829.78  1837.00  1861.50  1899.26
   
       mode:    152      153      154      155      156      157
  temp. (K):  1930.27  1931.54  1946.33  1976.88  1985.90  2012.51
   
       mode:    158      159      160      161      162      163
  temp. (K):  2033.90  2040.27  2044.64  2048.50  2052.52  2056.27
   
       mode:    164      165      166      167      168      169
  temp. (K):  2064.03  2067.27  2093.12  2105.69  2138.96  2145.19
   
       mode:    170      171      172      173      174      175
  temp. (K):  2146.85  2157.59  2160.39  2165.58  2168.73  2172.61
   
       mode:    176      177      178      179      180      181
  temp. (K):  2177.34  2180.65  2182.47  2188.75  2193.23  2193.85
   
       mode:    182      183      184      185      186      187
  temp. (K):  2198.96  2200.25  2203.09  2212.12  2213.27  2216.76
   
       mode:    188      189      190      191      192      193
  temp. (K):  2218.80  2221.10  2225.07  2236.11  2241.60  2360.45
   
       mode:    194      195      196      197      198      199
  temp. (K):  2361.25  2365.83  2369.40  2371.78  2398.75  2403.84
   
       mode:    200      201      202      203      204      205
  temp. (K):  4333.03  4361.49  4370.92  4374.17  4382.26  4384.68
   
       mode:    206      207      208      209      210      211
  temp. (K):  4387.09  4387.94  4396.93  4419.33  4439.41  4462.22
   
       mode:    212      213      214      215      216      217
  temp. (K):  4467.97  4475.82  4494.61  4498.54  4504.42  4513.63
   
       mode:    218      219      220      221      222      223
  temp. (K):  4517.54  4531.30  4539.60  4544.67  4550.17  4556.71
   
       mode:    224      225      226      227      228      229
  temp. (K):  4564.35  4575.87  4578.12  4580.25  4582.17  4586.38
   
       mode:    230      231      232      233      234      235
  temp. (K):  4589.36  4595.57  4597.44  4602.17  4603.78  4608.14
   
       mode:    236      237      238      239      240      241
  temp. (K):  4613.37  4613.67  4619.89  4623.92  4626.09  4631.59
   
       mode:    242      243
  temp. (K):  4632.10  4648.41
   
   
  Thermodynamic properties calculated assuming an ideal gas

  In the table below, the units for temperature
  are kelvins, the units for U, H, and G are
  kcal/mol and the units for Cv and S are cal/(mol K)

  The zero point energy (ZPE):    438.067 kcal/mol
  is not included in U, H, or G in the table below
  
 
  =============================================================================
  Thermodynamic properties for P = 1.00E+00 atm, calculated at   1 temperatures


  T =   298.15 K, P = 1.00E+00 atm
   
                  U         Cv          S          H          G        ln(Q)
              =========  =========  =========  =========  =========  =========
  trans.          0.889      2.981     45.578      1.481    -12.108   20.43571
  rot.            0.889      2.981     37.985      0.889    -10.436   17.61468
  vib.           24.909    160.257    151.706     24.909    -20.322   34.30010
  elec.           0.000      0.000      0.000      0.000      0.000    0.00000
  ----------------------------------------------------------------------------
  total          26.686    166.218    235.269     27.279    -42.867   72.35050
   
   Total internal energy, Utot(SCFE + ZPE + U):   -2101.591358 hartrees
   Total enthalpy, Htot (Utot + nRT), with n=1:   -2101.590413 hartrees
    Total Gibbs free energy, Gtot (Htot - T*S):   -2101.702197 hartrees
   
  end of program freq
   
 Time(freq)  user:       0.818  user+sys:       0.818  wallclock:       0.414
  
  start of program post
  
  Writing input files for PBF
  end of program post
   
 Time(post)  user:       0.248  user+sys:       0.248  wallclock:       0.089

 Total cpu seconds     user:  154364.752   user+sys:  154364.752
  
 Total elapsed time:    18369 seconds

Job L_Ar_NaOtBu_Br_O_trans_PL747 completed on bp1-compute167 at Tue Nov 25 07:23:45 2025
