Job L_Ar_Br_N_Na_N_trans_PL747_4 started on bp1-compute190 at Wed Dec 10 16:12:33 2025
jobid: bp1-compute190-0-69399bed

  +--------------------------------------------------------------------+
  |  Jaguar version 12.5, release 138                                  |
  |                                                                    |
  |  Copyright Schrodinger, Inc.                                       |
  |  All Rights Reserved.                                              |
  |                                                                    |
  |  The following have contributed to Jaguar (listed alphabetically): |
  |  Ty Balduf, Mike Beachy, Chandler Bennett, Art Bochevarov,         |
  |  Dale Braden, Yixiang Cao, Alan Chien, Chris Cortis,               |
  |  Rich Friesner, Jim Furness, Bill Goddard, Hod Greeley,            |
  |  Tom Hughes, Leif Jacobson, Jean-Marc Langlois, Daniel Levine,     |
  |  Rob Murphy, Dean Philipp, Tom Pollard, Murco Ringnalda,           |
  |  Daniel Mainz, Pablo Videla, Mark Watson, Haoyu Yu.                |
  |                                                                    |
  |  Use of this program should be acknowledged in publications as:    |
  |                                                                    |
  |  Jaguar, version 12.5, Schrodinger, Inc., New York, NY, 2024.      |
  |                                                                    |
  |  A. D. Bochevarov, E. Harder, T. F. Hughes, J. R. Greenwood,       |
  |  D. A. Braden, D. M. Philipp, D. Rinaldo, M. D. Halls,             |
  |  J. Zhang, R. A. Friesner, "Jaguar: A High-Performance Quantum     |
  |  Chemistry Software Program with Strengths in Life and Materials   |
  |  Sciences", Int. J. Quantum Chem., 2013, 113(18), 2110-2142.       |
  +--------------------------------------------------------------------+
  
  start of program pre
  
  Job name: L_Ar_Br_N_Na_N_trans_PL747_4
  Executables used: /software/local/apps/schrodinger2024-3/jaguar-v12.5/bin/Linux-x86_64
  Temporary files : /tmp/ar21627/L_Ar_Br_N_Na_N_trans_PL747_4#bp1-compute190-0-69399bed
  Basis file : using default basis file from /software/local/apps/schrodinger2024-3
  Maestro file (input):  L_Ar_Br_N_Na_N_trans_PL747_4.mae
  Maestro file (output): L_Ar_Br_N_Na_N_trans_PL747_4.01.mae
  
 Contents of input file: &gen and (if present) &atomic sections only
 ----------------Contents start----------------
&gen
dftname=b3pw91-d3
basis=6-31G*
numd=5
ip11=2
iaccg=3
isolv=2
igeopt=1
solvent=benzene
ifreq=1
&
&atomic
atom basis
Pd2 lacv3p*
Br3 lacv3p*
&
 -----------------Contents end-----------------
 
  PS calculation requested. Using PS version of 6-31g*
  basis set:               non_standard                    
  net molecular charge:    0
  multiplicity:            1
  
  Using up to  18 threads per process
  
  This run will use ECP on            2  atoms
  number of basis functions....          676
  
 Input geometry:
                                   angstroms
  atom               x                 y                 z
  P1            0.5083294503     -0.0237592286      0.1287825158 
  Pd2           0.3353915311      0.0034262351      2.4871111689 
  C73           4.7068366517      1.6758636783      3.3525707745 
  C74           3.6806369624      2.5853544569      3.1399374239 
  C75           2.3978025115      2.1026040349      2.8674073209 
  C76           2.1557623478      0.7265073563      2.7883371870 
  C77           3.2055808860     -0.1662405173      3.0379756483 
  C78           4.4915768489      0.3053473287      3.3179604283 
  F79           5.9519172576      2.1388664243      3.6105759014 
  H80           3.8861388235      3.6515530771      3.1937264817 
  H82           3.0297314732     -1.2386768143      3.0133043000 
  H83           5.3197593247     -0.3742245466      3.5032130715 
  H14           1.5895397704      2.8140536565      2.7300275391 
  C6            1.9800412223     -0.1816345853     -2.3451522681 
  C7            2.1604219048      0.1120611440     -0.8450763868 
  C8            3.1164412201     -0.9574451530     -0.3061343737 
  C9            2.8133472367      1.4875693530     -0.6515604058 
  C10          -0.6237291166      1.4364918136     -0.4217304701 
  C11          -0.2535776085      2.6240513766      0.4927981002 
  C12          -2.0887916473      1.0757448281     -0.1327172286 
  C13          -0.5169684048      1.9225484760     -1.8767250029 
  C14          -0.1524804813     -1.6277418740     -0.5242141122 
  C15           0.1625208852     -2.8126506057      0.0534549224 
  C16          -1.0445835276     -1.6299104232     -1.7501107107 
  C17           0.9745072491     -3.0959368733      1.2763720966 
  C18           2.2095636179     -3.7516973381      1.1762045119 
  C19           2.9286957731     -4.1039166115      2.3153476440 
  C20           2.4106815597     -3.8328726966      3.5834915759 
  C21           1.1617792265     -3.2260453973      3.6945972118 
  C22           0.4440079718     -2.8663404007      2.5522635233 
  C23          -0.4121622924     -4.0733987543     -0.5130807162 
  C24          -1.6650663132     -4.4998369611     -0.0556600979 
  C25          -2.2234218357     -5.6816473172     -0.5386644025 
  C26          -1.5352793089     -6.4480182304     -1.4806090358 
  C27          -0.2868065868     -6.0262361072     -1.9399571449 
  C28           0.2735479451     -4.8434937989     -1.4582366544 
  H29           1.3651036705      0.5513125493     -2.8677206782 
  H30           1.5513102065     -1.1756735118     -2.5111431196 
  H31           2.9719914536     -0.1717978382     -2.8183335832 
  H32           3.2550968810     -0.8922530980      0.7728801205 
  H33           4.0979056154     -0.8281809326     -0.7835373240 
  H34           2.7587925804     -1.9576157856     -0.5546363327 
  H35           2.2314001025      2.3018359761     -1.0917105147 
  H36           3.7905270817      1.4835445444     -1.1542023918 
  H37           2.9836210409      1.7104292650      0.4047142088 
  H38           0.7997058433      2.9075680972      0.4194459400 
  H39          -0.4708385978      2.4050029669      1.5439168867 
  H40          -0.8547605620      3.4956839936      0.1989495029 
  H41          -2.2407814160      0.6998996479      0.8828321791 
  H42          -2.4858938133      0.3327196121     -0.8286872543 
  H43          -2.6956551527      1.9855993803     -0.2439143588 
  H44           0.4699860072      2.3254960403     -2.1184669824 
  H45          -1.2377241871      2.7404035091     -2.0139219757 
  H46          -0.7665122303      1.1556902040     -2.6145821298 
  H47          -2.0953113406     -1.7483396598     -1.4597071047 
  H48          -0.7997697725     -2.4659511030     -2.4129274864 
  H49          -0.9584584261     -0.7115595710     -2.3300426896 
  H50           2.6139896606     -3.9948418153      0.1970138462 
  H51           3.8934665877     -4.5959941926      2.2118374377 
  H52           2.9729173673     -4.1050859098      4.4743230876 
  H53           0.7380606183     -3.0220526219      4.6760960981 
  H54          -0.5601199940     -2.4597480945      2.6433248831 
  H55          -2.1945020576     -3.8925343381      0.6769585595 
  H56          -3.1991677880     -6.0032431565     -0.1794162439 
  H57          -1.9716787930     -7.3709738593     -1.8570322149 
  H58           0.2516649462     -6.6181896445     -2.6775906695 
  H59           1.2421437184     -4.5080317870     -1.8249442419 
  N104          0.0758001963      0.2890392237      4.5684192538 
  H105          0.9743276694      0.0581528046      4.9966401627 
  C107         -0.1701699924      1.6485882037      4.8006764300 
  C108         -0.6967178124      4.4072697914      5.1967630670 
  C109          0.6886345769      2.4550927406      5.5769922730 
  C110         -1.3119912249      2.2648430163      4.2365940532 
  C111         -1.5612154020      3.6195232073      4.4301316758 
  C112          0.4274351946      3.8093777744      5.7692828686 
  H113          1.5916990937      2.0119641148      5.9951047228 
  H114         -1.9772701004      1.6614634297      3.6205388312 
  H115         -2.4387616449      4.0689546400      3.9678630048 
  H116          1.1220540299      4.4071320631      6.3579833288 
  H117         -0.8909426612      5.4682831446      5.3361913979 
  Na119        -1.8306661742     -0.9619785990      5.2896549230 
  Br3          -2.3377605372     -0.8939186062      2.4867263349 
   
  principal moments of inertia:
        amu*angstrom^2:              5071.48301              8222.30779              9057.26022
                g*cm^2:          8.42139461E-37          1.36534616E-36          1.50399326E-36
   
  rotational constants:
               cm^(-1):      0.00332400      0.00205023      0.00186123
                   GHz:      0.09965113      0.06146437      0.05579822
   
  Molecular weight:     733.11 amu
   
  Stoichiometry: NaPdC35PNH41BrF
  Molecular Point Group: C1      
  Point Group used: C1
  
 
Number of optimization coordinates:   282
Number of independent coordinates:    282
Number of non-redundant coordinates:  240
Number of frozen coordinates:           0
Number of harmonic constraints:         0
 
Number of geometric degrees of freedom:   240
Maximum geometric degrees of freedom:     240
 " " " " " excluding dummy atoms:         240
 
 
  bond lengths (angstroms):
 
 P1      -Pd2     :   2.364817      P1      -C7      :   1.922565
 P1      -C10     :   1.927940      P1      -C14     :   1.853600
 Pd2     -C76     :   1.981750      Pd2     -N104    :   2.116791
 Pd2     -Br3     :   2.819746      C73     -C74     :   1.387614
 C73     -C78     :   1.387750      C73     -F79     :   1.353205
 C74     -C75     :   1.397492      C74     -H80     :   1.087154
 C75     -C76     :   1.399456      C75     -H14     :   1.085506
 C76     -C77     :   1.400513      C77     -C78     :   1.398060
 C77     -H82     :   1.087038      C78     -H83     :   1.087209
 C6      -C7      :   1.539163      C6      -H29     :   1.090155
 C6      -H30     :   1.095206      C6      -H31     :   1.099074
 C7      -C8      :   1.532408      C7      -C9      :   1.534856
 C8      -H32     :   1.089838      C8      -H33     :   1.099043
 C8      -H34     :   1.090874      C9      -H35     :   1.093355
 C9      -H36     :   1.098884      C9      -H37     :   1.092875
 C10     -C11     :   1.543915      C10     -C12     :   1.536254
 C10     -C13     :   1.537744      C11     -H38     :   1.093238
 C11     -H39     :   1.095461      C11     -H40     :   1.098868
 C12     -H41     :   1.093481      C12     -H42     :   1.092772
 C12     -H43     :   1.099310      C13     -H44     :   1.093108
 C13     -H45     :   1.098726      C13     -H46     :   1.093058
 C14     -C15     :   1.355336      C14     -C16     :   1.516138
 C15     -C17     :   1.495025      C15     -C23     :   1.496900
 C16     -H47     :   1.096535      C16     -H48     :   1.094634
 C16     -H49     :   1.089544      C17     -C18     :   1.401934
 C17     -C22     :   1.400729      C18     -C19     :   1.392428
 C18     -H50     :   1.086966      C19     -C20     :   1.396421
 C19     -H51     :   1.087951      C20     -C21     :   1.392961
 C20     -H52     :   1.088021      C21     -C22     :   1.396248
 C21     -H53     :   1.088343      C22     -H54     :   1.087144
 C23     -C24     :   1.400304      C23     -C28     :   1.398773
 C24     -C25     :   1.393460      C24     -H55     :   1.088967
 C25     -C26     :   1.395752      C25     -H56     :   1.088376
 C26     -C27     :   1.395559      C26     -H57     :   1.088111
 C27     -C28     :   1.394608      C27     -H58     :   1.088331
 C28     -H59     :   1.088663      N104    -H105    :   1.021779
 N104    -C107    :   1.401006      N104    -Na119   :   2.391619
 C107    -C109    :   1.410908      C107    -C110    :   1.414820
 C108    -C111    :   1.398436      C108    -C112    :   1.396057
 C108    -H117    :   1.087618      C109    -C112    :   1.392583
 C109    -H113    :   1.089361      C110    -C111    :   1.390945
 C110    -H114    :   1.089122      C111    -H115    :   1.088930
 C112    -H116    :   1.089208      Na119   -Br3     :   2.849243
 
  bond angles:
 
 C7      -P1      -Pd2     : 124.553866  C10     -P1      -Pd2     : 103.480443
 C10     -P1      -C7      : 107.844229  C14     -P1      -Pd2     : 109.584451
 C14     -P1      -C7      : 100.896277  C14     -P1      -C10     : 110.211792
 C76     -Pd2     -P1      :  95.083246  N104    -Pd2     -P1      : 172.332353
 N104    -Pd2     -C76     :  85.064451  Br3     -Pd2     -P1      :  93.757465
 Br3     -Pd2     -C76     : 170.732737  Br3     -Pd2     -N104    :  85.803007
 C78     -C73     -C74     : 121.921733  F79     -C73     -C74     : 119.039271
 F79     -C73     -C78     : 119.037311  C75     -C74     -C73     : 118.838083
 H80     -C74     -C73     : 119.697830  H80     -C74     -C75     : 121.463090
 C76     -C75     -C74     : 120.627590  H14     -C75     -C74     : 118.801782
 H14     -C75     -C76     : 120.566486  C75     -C76     -Pd2     : 121.751535
 C77     -C76     -Pd2     : 118.885692  C77     -C76     -C75     : 119.149322
 C78     -C77     -C76     : 120.676332  H82     -C77     -C76     : 120.236730
 H82     -C77     -C78     : 119.086700  C77     -C78     -C73     : 118.737819
 H83     -C78     -C73     : 119.662554  H83     -C78     -C77     : 121.599100
 H29     -C6      -C7      : 113.890821  H30     -C6      -C7      : 111.517072
 H30     -C6      -H29     : 108.467087  H31     -C6      -C7      : 108.186734
 H31     -C6      -H29     : 107.260200  H31     -C6      -H30     : 107.228245
 C6      -C7      -P1      : 112.302145  C8      -C7      -P1      : 107.977632
 C8      -C7      -C6      : 106.421628  C9      -C7      -P1      : 111.407448
 C9      -C7      -C6      : 110.104787  C9      -C7      -C8      : 108.405054
 H32     -C8      -C7      : 112.695072  H33     -C8      -C7      : 108.800119
 H33     -C8      -H32     : 108.024045  H34     -C8      -C7      : 110.808130
 H34     -C8      -H32     : 108.789624  H34     -C8      -H33     : 107.557564
 H35     -C9      -C7      : 112.969736  H36     -C9      -C7      : 108.501613
 H36     -C9      -H35     : 106.971606  H37     -C9      -C7      : 111.770323
 H37     -C9      -H35     : 108.671747  H37     -C9      -H36     : 107.715553
 C11     -C10     -P1      : 105.823594  C12     -C10     -P1      : 109.171547
 C12     -C10     -C11     : 107.326969  C13     -C10     -P1      : 117.957675
 C13     -C10     -C11     : 107.499385  C13     -C10     -C12     : 108.568496
 H38     -C11     -C10     : 112.999382  H39     -C11     -C10     : 111.531413
 H39     -C11     -H38     : 107.897640  H40     -C11     -C10     : 108.696976
 H40     -C11     -H38     : 107.664809  H40     -C11     -H39     : 107.859990
 H41     -C12     -C10     : 112.829347  H42     -C12     -C10     : 112.730694
 H42     -C12     -H41     : 107.895249  H43     -C12     -C10     : 108.244679
 H43     -C12     -H41     : 107.559112  H43     -C12     -H42     : 107.321632
 H44     -C13     -C10     : 112.858197  H45     -C13     -C10     : 107.932039
 H45     -C13     -H44     : 106.874734  H46     -C13     -C10     : 113.647456
 H46     -C13     -H44     : 108.388568  H46     -C13     -H45     : 106.748575
 C15     -C14     -P1      : 121.568317  C16     -C14     -P1      : 119.725834
 C16     -C14     -C15     : 118.693849  C17     -C15     -C14     : 129.831552
 C23     -C15     -C14     : 119.064355  C23     -C15     -C17     : 111.008663
 H47     -C16     -C14     : 110.477569  H48     -C16     -C14     : 111.044579
 H48     -C16     -H47     : 106.988534  H49     -C16     -C14     : 112.498423
 H49     -C16     -H47     : 107.923277  H49     -C16     -H48     : 107.684854
 C18     -C17     -C15     : 120.574811  C22     -C17     -C15     : 120.552754
 C22     -C17     -C18     : 118.385472  C19     -C18     -C17     : 120.987429
 H50     -C18     -C17     : 119.787038  H50     -C18     -C19     : 119.224995
 C20     -C19     -C18     : 120.149879  H51     -C19     -C18     : 119.640658
 H51     -C19     -C20     : 120.208659  C21     -C20     -C19     : 119.313391
 H52     -C20     -C19     : 120.218260  H52     -C20     -C21     : 120.463902
 C22     -C21     -C20     : 120.522701  H53     -C21     -C20     : 120.175231
 H53     -C21     -C22     : 119.301072  C21     -C22     -C17     : 120.551125
 H54     -C22     -C17     : 119.170503  H54     -C22     -C21     : 120.174643
 C24     -C23     -C15     : 118.448048  C28     -C23     -C15     : 122.088372
 C28     -C23     -C24     : 119.451329  C25     -C24     -C23     : 120.236444
 H55     -C24     -C23     : 119.008215  H55     -C24     -C25     : 120.754788
 C26     -C25     -C24     : 120.135411  H56     -C25     -C24     : 119.697526
 H56     -C25     -C26     : 120.166968  C27     -C26     -C25     : 119.818072
 H57     -C26     -C25     : 120.096942  H57     -C26     -C27     : 120.084910
 C28     -C27     -C26     : 120.137451  H58     -C27     -C26     : 120.087474
 H58     -C27     -C28     : 119.774872  C27     -C28     -C23     : 120.221187
 H59     -C28     -C23     : 119.611408  H59     -C28     -C27     : 120.163223
 H105    -N104    -Pd2     : 105.886801  C107    -N104    -Pd2     : 108.388896
 C107    -N104    -H105    : 107.709486  Na119   -N104    -Pd2     : 108.886340
 Na119   -N104    -H105    : 117.155400  Na119   -N104    -C107    : 108.521458
 C109    -C107    -N104    : 122.619403  C110    -C107    -N104    : 119.886079
 C110    -C107    -C109    : 117.492286  C112    -C108    -C111    : 118.774079
 H117    -C108    -C111    : 120.624463  H117    -C108    -C112    : 120.598598
 C112    -C109    -C107    : 121.178624  H113    -C109    -C107    : 118.898255
 H113    -C109    -C112    : 119.873193  C111    -C110    -C107    : 120.886769
 H114    -C110    -C107    : 118.501714  H114    -C110    -C111    : 120.585118
 C110    -C111    -C108    : 120.939458  H115    -C111    -C108    : 119.895289
 H115    -C111    -C110    : 119.162855  C109    -C112    -C108    : 120.723815
 H116    -C112    -C108    : 120.009144  H116    -C112    -C109    : 119.256505
 Br3     -Na119   -N104    :  80.369767  Na119   -Br3     -Pd2     :  80.720251
 
  torsional angles:
 
 P1      -Pd2     -C76     -C75     :  90.566569
 P1      -Pd2     -C76     -C77     : -94.789020
 P1      -Pd2     -N104    -H105    :-128.420110
 P1      -Pd2     -N104    -C107    : -13.085428
 P1      -Pd2     -N104    -Na119   : 104.788801
 P1      -Pd2     -Br3     -Na119   : 173.429767
 P1      -C7      -C6      -H29     :  65.700089
 P1      -C7      -C6      -H30     : -57.463445
 P1      -C7      -C6      -H31     :-175.149731
 P1      -C7      -C8      -H32     : -54.703641
 P1      -C7      -C8      -H33     :-174.482697
 P1      -C7      -C8      -H34     :  67.465303
 P1      -C7      -C9      -H35     : -66.391851
 P1      -C7      -C9      -H36     : 175.174140
 P1      -C7      -C9      -H37     :  56.543623
 P1      -C10     -C11     -H38     :  58.958474
 P1      -C10     -C11     -H39     : -62.802062
 P1      -C10     -C11     -H40     : 178.408593
 P1      -C10     -C12     -H41     :  48.983009
 P1      -C10     -C12     -H42     : -73.552847
 P1      -C10     -C12     -H43     : 167.892514
 P1      -C10     -C13     -H44     : -62.967620
 P1      -C10     -C13     -H45     : 179.158768
 P1      -C10     -C13     -H46     :  60.971761
 P1      -C14     -C15     -C17     :   3.381091
 P1      -C14     -C15     -C23     : 179.481115
 P1      -C14     -C16     -H47     :-101.939305
 P1      -C14     -C16     -H48     : 139.514892
 P1      -C14     -C16     -H49     :  18.740153
 Pd2     -P1      -C7      -C6      : 169.959265
 Pd2     -P1      -C7      -C8      :  52.936693
 Pd2     -P1      -C7      -C9      : -65.993994
 Pd2     -P1      -C10     -C11     :  46.367399
 Pd2     -P1      -C10     -C12     : -68.863606
 Pd2     -P1      -C10     -C13     : 166.649645
 Pd2     -P1      -C14     -C15     : -44.404457
 Pd2     -P1      -C14     -C16     : 136.872338
 Pd2     -C76     -C75     -C74     : 177.123986
 Pd2     -C76     -C75     -H14     :  -2.126783
 Pd2     -C76     -C77     -C78     :-176.964017
 Pd2     -C76     -C77     -H82     :   3.215166
 Pd2     -N104    -C107    -C109    :-117.853820
 Pd2     -N104    -C107    -C110    :  61.588756
 Pd2     -N104    -Na119   -Br3     : -17.823751
 Pd2     -Br3     -Na119   -N104    :  12.726344
 C73     -C74     -C75     -C76     :  -1.039067
 C73     -C74     -C75     -H14     : 178.224743
 C73     -C78     -C77     -C76     :   0.415644
 C73     -C78     -C77     -H82     :-179.761503
 C74     -C73     -C78     -C77     :   1.092033
 C74     -C73     -C78     -H83     :-179.167795
 C74     -C75     -C76     -C77     :   2.493302
 C75     -C74     -C73     -C78     :  -0.783976
 C75     -C74     -C73     -F79     : 179.692868
 C75     -C76     -Pd2     -N104    : -81.737766
 C75     -C76     -Pd2     -Br3     : -71.930168
 C75     -C76     -C77     -C78     :  -2.178077
 C75     -C76     -C77     -H82     : 178.001107
 C76     -Pd2     -P1      -C7      :  16.050299
 C76     -Pd2     -P1      -C10     :-107.158479
 C76     -Pd2     -P1      -C14     : 135.300642
 C76     -Pd2     -N104    -H105    : -36.981562
 C76     -Pd2     -N104    -C107    :  78.353120
 C76     -Pd2     -N104    -Na119   :-163.772651
 C76     -Pd2     -Br3     -Na119   : -24.041206
 C76     -C75     -C74     -H80     : 179.325381
 C76     -C77     -C78     -H83     :-179.319275
 C77     -C76     -Pd2     -N104    :  92.906645
 C77     -C76     -Pd2     -Br3     : 102.714242
 C77     -C76     -C75     -H14     :-176.757466
 C77     -C78     -C73     -F79     :-179.384802
 C78     -C73     -C74     -H80     : 178.858152
 F79     -C73     -C74     -H80     :  -0.665004
 F79     -C73     -C78     -H83     :   0.355370
 H80     -C74     -C75     -H14     :  -1.410810
 H82     -C77     -C78     -H83     :   0.503578
 C6      -C7      -P1      -C10     : -68.772727
 C6      -C7      -P1      -C14     :  46.795483
 C6      -C7      -C8      -H32     :-175.472237
 C6      -C7      -C8      -H33     :  64.748706
 C6      -C7      -C8      -H34     : -53.303294
 C6      -C7      -C9      -H35     :  58.887782
 C6      -C7      -C9      -H36     : -59.546226
 C6      -C7      -C9      -H37     :-178.176743
 C7      -P1      -Pd2     -N104    : 106.815863
 C7      -P1      -Pd2     -Br3     :-166.731859
 C7      -P1      -C10     -C11     : -87.254402
 C7      -P1      -C10     -C12     : 157.514593
 C7      -P1      -C10     -C13     :  33.027845
 C7      -P1      -C14     -C15     :  88.560338
 C7      -P1      -C14     -C16     : -90.162867
 C8      -C7      -P1      -C10     : 174.204702
 C8      -C7      -P1      -C14     : -70.227089
 C8      -C7      -C6      -H29     :-176.351484
 C8      -C7      -C6      -H30     :  60.484982
 C8      -C7      -C6      -H31     : -57.201304
 C8      -C7      -C9      -H35     : 174.932923
 C8      -C7      -C9      -H36     :  56.498914
 C8      -C7      -C9      -H37     : -62.131603
 C9      -C7      -P1      -C10     :  55.274015
 C9      -C7      -P1      -C14     : 170.842224
 C9      -C7      -C6      -H29     : -59.067501
 C9      -C7      -C6      -H30     : 177.768965
 C9      -C7      -C6      -H31     :  60.082679
 C9      -C7      -C8      -H32     :  66.119797
 C9      -C7      -C8      -H33     : -53.659259
 C9      -C7      -C8      -H34     :-171.711260
 C10     -P1      -Pd2     -N104    : -16.392915
 C10     -P1      -Pd2     -Br3     :  70.059363
 C10     -P1      -C14     -C15     :-157.648445
 C10     -P1      -C14     -C16     :  23.628350
 C11     -C10     -P1      -C14     : 163.468731
 C11     -C10     -C12     -H41     : -65.277129
 C11     -C10     -C12     -H42     : 172.187014
 C11     -C10     -C12     -H43     :  53.632375
 C11     -C10     -C13     -H44     :  56.440453
 C11     -C10     -C13     -H45     : -61.433160
 C11     -C10     -C13     -H46     :-179.620167
 C12     -C10     -P1      -C14     :  48.237726
 C12     -C10     -C11     -H38     : 175.444438
 C12     -C10     -C11     -H39     :  53.683903
 C12     -C10     -C11     -H40     : -65.105443
 C12     -C10     -C13     -H44     : 172.247245
 C12     -C10     -C13     -H45     :  54.373633
 C12     -C10     -C13     -H46     : -63.813374
 C13     -C10     -P1      -C14     : -76.249022
 C13     -C10     -C11     -H38     : -67.932030
 C13     -C10     -C11     -H39     : 170.307434
 C13     -C10     -C11     -H40     :  51.518088
 C13     -C10     -C12     -H41     : 178.804529
 C13     -C10     -C12     -H42     :  56.268672
 C13     -C10     -C12     -H43     : -62.285967
 C14     -P1      -Pd2     -N104    :-133.933794
 C14     -P1      -Pd2     -Br3     : -47.481516
 C14     -C15     -C17     -C18     :-112.913549
 C14     -C15     -C17     -C22     :  75.221049
 C14     -C15     -C23     -C24     : -87.472084
 C14     -C15     -C23     -C28     :  93.808947
 C15     -C14     -C16     -H47     :  79.300832
 C15     -C14     -C16     -H48     : -39.244971
 C15     -C14     -C16     -H49     :-160.019710
 C15     -C17     -C18     -C19     :-175.432831
 C15     -C17     -C18     -H50     :   4.298150
 C15     -C17     -C22     -C21     : 175.070233
 C15     -C17     -C22     -H54     :  -1.233414
 C15     -C23     -C24     -C25     :-178.758996
 C15     -C23     -C24     -H55     :   1.509708
 C15     -C23     -C28     -C27     : 178.686356
 C15     -C23     -C28     -H59     :  -2.056330
 C16     -C14     -C15     -C17     :-177.882909
 C16     -C14     -C15     -C23     :  -1.782884
 C17     -C15     -C23     -C24     :  89.320548
 C17     -C15     -C23     -C28     : -89.398421
 C17     -C18     -C19     -C20     :   1.439127
 C17     -C18     -C19     -H51     :-178.886234
 C17     -C22     -C21     -C20     :  -0.726660
 C17     -C22     -C21     -H53     : 178.910786
 C18     -C17     -C15     -C23     :  70.737708
 C18     -C17     -C22     -C21     :   3.029830
 C18     -C17     -C22     -H54     :-173.273818
 C18     -C19     -C20     -C21     :   0.935582
 C18     -C19     -C20     -H52     :-179.828019
 C19     -C18     -C17     -C22     :  -3.394249
 C19     -C20     -C21     -C22     :  -1.287959
 C19     -C20     -C21     -H53     : 179.077768
 C20     -C19     -C18     -H50     :-178.293343
 C20     -C21     -C22     -H54     : 175.539840
 C21     -C20     -C19     -H51     :-178.737195
 C22     -C17     -C15     -C23     :-101.127694
 C22     -C17     -C18     -H50     : 176.336732
 C22     -C21     -C20     -H52     : 179.477560
 C23     -C24     -C25     -C26     :   0.078677
 C23     -C24     -C25     -H56     :-179.809559
 C23     -C28     -C27     -C26     :  -0.027551
 C23     -C28     -C27     -H58     : 179.808966
 C24     -C23     -C28     -C27     :  -0.020142
 C24     -C23     -C28     -H59     : 179.237172
 C24     -C25     -C26     -C27     :  -0.126116
 C24     -C25     -C26     -H57     : 179.973824
 C25     -C24     -C23     -C28     :  -0.005385
 C25     -C26     -C27     -C28     :   0.100591
 C25     -C26     -C27     -H58     :-179.735412
 C26     -C25     -C24     -H55     : 179.805224
 C26     -C27     -C28     -H59     :-179.280743
 C27     -C26     -C25     -H56     : 179.761591
 C28     -C23     -C24     -H55     :-179.736681
 C28     -C27     -C26     -H57     :-179.999337
 H50     -C18     -C19     -H51     :   1.381297
 H51     -C19     -C20     -H52     :   0.499203
 H52     -C20     -C21     -H53     :  -0.156712
 H53     -C21     -C22     -H54     :  -4.822714
 H55     -C24     -C25     -H56     :  -0.083011
 H56     -C25     -C26     -H57     :  -0.138469
 H57     -C26     -C27     -H58     :   0.164660
 H58     -C27     -C28     -H59     :   0.555775
 N104    -Pd2     -Br3     -Na119   : -14.243799
 N104    -C107    -C109    -C112    : 178.864282
 N104    -C107    -C109    -H113    :   1.437784
 N104    -C107    -C110    -C111    :-178.622671
 N104    -C107    -C110    -H114    :  -0.480890
 H105    -N104    -Pd2     -Br3     : 144.594576
 H105    -N104    -C107    -C109    :  -3.713435
 H105    -N104    -C107    -C110    : 175.729141
 H105    -N104    -Na119   -Br3     :-137.866036
 C107    -N104    -Pd2     -Br3     :-100.070742
 C107    -N104    -Na119   -Br3     :  99.966685
 C107    -C109    -C112    -C108    :   0.030880
 C107    -C109    -C112    -H116    :-178.788462
 C107    -C110    -C111    -C108    :  -0.552841
 C107    -C110    -C111    -H115    : 178.883244
 C108    -C111    -C110    -H114    :-178.655910
 C108    -C112    -C109    -H113    : 177.432582
 C109    -C107    -N104    -Na119   : 124.039524
 C109    -C107    -C110    -C111    :   0.848059
 C109    -C107    -C110    -H114    : 178.989841
 C109    -C112    -C108    -C111    :   0.289559
 C109    -C112    -C108    -H117    :-179.099052
 C110    -C107    -N104    -Na119   : -56.517900
 C110    -C107    -C109    -C112    :  -0.590896
 C110    -C107    -C109    -H113    :-178.017394
 C110    -C111    -C108    -C112    :  -0.029944
 C110    -C111    -C108    -H117    : 179.358504
 C111    -C108    -C112    -H116    : 179.100045
 C112    -C108    -C111    -H115    :-179.461931
 H113    -C109    -C112    -H116    :  -1.386760
 H114    -C110    -C111    -H115    :   0.780176
 H115    -C111    -C108    -H117    :  -0.073483
 H116    -C112    -C108    -H117    :  -0.288567
 Na119   -N104    -Pd2     -Br3     :  17.803487
 
  nuclear repulsion energy.......          5792.723414100 hartrees
  
  Detected an organometallic with only one TM atom. 
  
  Oxidation state on metal       2 is     2
  Formal multiplet on metal      2 is     1
  Formal charge on ligand        3 is    -1
  Formal multiplet on ligand     3 is     1
  Formal charge on ligand        4 is    -1
  Formal multiplet on ligand     4 is     1
  
 
  Will use High-Quality Initial guess for organometallics
       including d-d repulsion (iguess=30)
 
 Non-default options chosen:
   SCF calculation type: DFT(b3pw91-d3)              
   DFT=Becke_3_Parameter/HF+Slater+Becke88+PW91+PW-GGAIIC (B3PW91-D3)
   Geometry will be optimized in redundant internal coordinates
   Solvation energy will be computed using PBF
     -solute cavity energy will not be included
     -surface area terms will not be included
   Vibrational frequencies and related properties will be computed
      from analytic second derivatives
   IR intensities will be computed
   Thermochemical properties will be computed
   Maximum number of geometry steps: 100
   Scaling standard convergence criteria by a factor of   5.00
   Solvent: benzene                                                         
   Internal dielectric constant:    1.000
   Continuum dielectric constant:   2.283
   Solvent probe molecule radius:   2.600
  
 Non-default print settings:
     11=  2
  
 Temporary integer options set:
     21= -1  73=  2
  
  atom       vdw   vdw2    cov     mass  grid  daf  charge   basis
  P1        2.147  2.074  1.060   30.974    Y    Y      Y    ps_6-31g*
  Pd2       1.450  1.450  1.280  105.903    Y    Y      Y    lacv3p*
  C73       1.949  1.900  0.770   12.000    Y    Y      Y    ps_6-31g*
  C74       1.949  1.900  0.770   12.000    Y    Y      Y    ps_6-31g*
  C75       1.949  1.900  0.770   12.000    Y    Y      Y    ps_6-31g*
  C76       1.949  1.900  0.770   12.000    Y    Y      Y    ps_6-31g*
  C77       1.949  1.900  0.770   12.000    Y    Y      Y    ps_6-31g*
  C78       1.949  1.900  0.770   12.000    Y    Y      Y    ps_6-31g*
  F79       1.736  1.682  0.720   18.998    Y    Y      Y    ps_6-31g*
  H80       1.597  1.150  0.320    1.008    Y    Y      Y    ps_6-31g*
  H82       1.597  1.150  0.320    1.008    Y    Y      Y    ps_6-31g*
  H83       1.597  1.150  0.320    1.008    Y    Y      Y    ps_6-31g*
  H14       1.597  1.150  0.320    1.008    Y    Y      Y    ps_6-31g*
  C6        1.949  1.900  0.770   12.000    Y    Y      Y    ps_6-31g*
  C7        1.949  1.900  0.770   12.000    Y    Y      Y    ps_6-31g*
  C8        1.949  1.900  0.770   12.000    Y    Y      Y    ps_6-31g*
  C9        1.949  1.900  0.770   12.000    Y    Y      Y    ps_6-31g*
  C10       1.949  1.900  0.770   12.000    Y    Y      Y    ps_6-31g*
  C11       1.949  1.900  0.770   12.000    Y    Y      Y    ps_6-31g*
  C12       1.949  1.900  0.770   12.000    Y    Y      Y    ps_6-31g*
  C13       1.949  1.900  0.770   12.000    Y    Y      Y    ps_6-31g*
  C14       1.949  1.900  0.770   12.000    Y    Y      Y    ps_6-31g*
  C15       1.949  1.900  0.770   12.000    Y    Y      Y    ps_6-31g*
  C16       1.949  1.900  0.770   12.000    Y    Y      Y    ps_6-31g*
  C17       1.949  1.900  0.770   12.000    Y    Y      Y    ps_6-31g*
  C18       1.949  1.900  0.770   12.000    Y    Y      Y    ps_6-31g*
  C19       1.949  1.900  0.770   12.000    Y    Y      Y    ps_6-31g*
  C20       1.949  1.900  0.770   12.000    Y    Y      Y    ps_6-31g*
  C21       1.949  1.900  0.770   12.000    Y    Y      Y    ps_6-31g*
  C22       1.949  1.900  0.770   12.000    Y    Y      Y    ps_6-31g*
  C23       1.949  1.900  0.770   12.000    Y    Y      Y    ps_6-31g*
  C24       1.949  1.900  0.770   12.000    Y    Y      Y    ps_6-31g*
  C25       1.949  1.900  0.770   12.000    Y    Y      Y    ps_6-31g*
  C26       1.949  1.900  0.770   12.000    Y    Y      Y    ps_6-31g*
  C27       1.949  1.900  0.770   12.000    Y    Y      Y    ps_6-31g*
  C28       1.949  1.900  0.770   12.000    Y    Y      Y    ps_6-31g*
  H29       1.597  1.150  0.320    1.008    Y    Y      Y    ps_6-31g*
  H30       1.597  1.150  0.320    1.008    Y    Y      Y    ps_6-31g*
  H31       1.597  1.150  0.320    1.008    Y    Y      Y    ps_6-31g*
  H32       1.597  1.150  0.320    1.008    Y    Y      Y    ps_6-31g*
  H33       1.597  1.150  0.320    1.008    Y    Y      Y    ps_6-31g*
  H34       1.597  1.150  0.320    1.008    Y    Y      Y    ps_6-31g*
  H35       1.597  1.150  0.320    1.008    Y    Y      Y    ps_6-31g*
  H36       1.597  1.150  0.320    1.008    Y    Y      Y    ps_6-31g*
  H37       1.597  1.150  0.320    1.008    Y    Y      Y    ps_6-31g*
  H38       1.597  1.150  0.320    1.008    Y    Y      Y    ps_6-31g*
  H39       1.597  1.150  0.320    1.008    Y    Y      Y    ps_6-31g*
  H40       1.597  1.150  0.320    1.008    Y    Y      Y    ps_6-31g*
  H41       1.597  1.150  0.320    1.008    Y    Y      Y    ps_6-31g*
  H42       1.597  1.150  0.320    1.008    Y    Y      Y    ps_6-31g*
  H43       1.597  1.150  0.320    1.008    Y    Y      Y    ps_6-31g*
  H44       1.597  1.150  0.320    1.008    Y    Y      Y    ps_6-31g*
  H45       1.597  1.150  0.320    1.008    Y    Y      Y    ps_6-31g*
  H46       1.597  1.150  0.320    1.008    Y    Y      Y    ps_6-31g*
  H47       1.597  1.150  0.320    1.008    Y    Y      Y    ps_6-31g*
  H48       1.597  1.150  0.320    1.008    Y    Y      Y    ps_6-31g*
  H49       1.597  1.150  0.320    1.008    Y    Y      Y    ps_6-31g*
  H50       1.597  1.150  0.320    1.008    Y    Y      Y    ps_6-31g*
  H51       1.597  1.150  0.320    1.008    Y    Y      Y    ps_6-31g*
  H52       1.597  1.150  0.320    1.008    Y    Y      Y    ps_6-31g*
  H53       1.597  1.150  0.320    1.008    Y    Y      Y    ps_6-31g*
  H54       1.597  1.150  0.320    1.008    Y    Y      Y    ps_6-31g*
  H55       1.597  1.150  0.320    1.008    Y    Y      Y    ps_6-31g*
  H56       1.597  1.150  0.320    1.008    Y    Y      Y    ps_6-31g*
  H57       1.597  1.150  0.320    1.008    Y    Y      Y    ps_6-31g*
  H58       1.597  1.150  0.320    1.008    Y    Y      Y    ps_6-31g*
  H59       1.597  1.150  0.320    1.008    Y    Y      Y    ps_6-31g*
  N104      1.831  1.600  0.750   14.003    Y    Y      Y    ps_6-31g*
  H105      1.597  1.150  0.320    1.008    Y    Y      Y    ps_6-31g*
  C107      1.949  1.900  0.770   12.000    Y    Y      Y    ps_6-31g*
  C108      1.949  1.900  0.770   12.000    Y    Y      Y    ps_6-31g*
  C109      1.949  1.900  0.770   12.000    Y    Y      Y    ps_6-31g*
  C110      1.949  1.900  0.770   12.000    Y    Y      Y    ps_6-31g*
  C111      1.949  1.900  0.770   12.000    Y    Y      Y    ps_6-31g*
  C112      1.949  1.900  0.770   12.000    Y    Y      Y    ps_6-31g*
  H113      1.597  1.150  0.320    1.008    Y    Y      Y    ps_6-31g*
  H114      1.597  1.150  0.320    1.008    Y    Y      Y    ps_6-31g*
  H115      1.597  1.150  0.320    1.008    Y    Y      Y    ps_6-31g*
  H116      1.597  1.150  0.320    1.008    Y    Y      Y    ps_6-31g*
  H117      1.597  1.150  0.320    1.008    Y    Y      Y    ps_6-31g*
  Na119     2.308  1.492  1.540   22.990    Y    Y      Y    ps_6-31g*
  Br3       2.095  2.095  1.140   78.918    Y    Y      Y    lav3p*
 
  atom      formal  2spin      esp    mulk    frag
  P1           0       0        Y    0.000       0
  Pd2          2       0        Y    0.000       0
  C73         -1       0        Y    0.000       0
  N104        -1       0        Y    0.000       0
  
  end of program pre
   
 Time(pre)  user:       4.469  user+sys:       4.469  wallclock:       0.955
  
  start of program onee
  
  smallest eigenvalue of S:    4.241E-04
  number of canonical orbitals.....          673
  end of program onee
   
 Time(onee)  user:      11.605  user+sys:      11.605  wallclock:       1.933
  
  start of program hfig
  
  initial wavefunction generated automatically from atomic wavefunctions
  Only one state below 0.010000
  Skip d-d repulsion considerations 
 
  Irreducible     Total no   No of occupied orbitals 
  representation  orbitals   Shell_1  Shell_2    ...
  No Symm          673        159
  ------------------------
  Orbital occupation/shell    1.000
 
  end of program hfig
   
 Time(hfig)  user:       2.394  user+sys:       2.394  wallclock:       1.038
  
  start of program probe
  
  end of program probe
   
 Time(probe)  user:       1.380  user+sys:       1.380  wallclock:       0.447
  
  start of program grid
  
   grid     grid set  grid #  grid sym
  ------    --------  ------  --------
  coarse        0        0        1
  medium        2        1        1
  fine          0        0        1
  ultrafine     4        2        1
  charge       -1        3        1
  gradient      4        2        1
  density       0        0        1
  DFT-fine    -11        4        1
  DFT-med.    -10        5        1
  DFT-grad    -12        6        1
  DFT-der2     -8        7        1
  DFT-cphf     -9        8        1
  LMP2-enrg     4        2        1
  LMP2-grad     2        1        1
  DFT-cphf2   -15        9        1
  PBF-dens      0        0        1
  plotting      0        0        1
  Rel-grad    -17        0        1
  
  number of gridpoints: 
     atom           P1         Pd2         C73         C74         C75         C76         C77
  grid # 1         613         348          79          93          94         100          95
  grid # 2         431         295         334         320         319         389         319
  grid # 3           6         191          32          14           7           7          12
  grid # 4        8582        8582        8582        8582        8582        8582        8582
  grid # 5        1192        1192        1192        1192        1192        1192        1192
  grid # 6        9488        9488        6164        6164        6164        6164        6164
  grid # 7       23054       32756       14018       14018       14018       14018       14018
  grid # 8         724        1144         750         750         750         750         750
  grid # 9         380        2168         406         406         406         406         406
   
  number of gridpoints: 
     atom          C78         F79         H80         H82         H83         H14          C6
  grid # 1          93         585         113         108         114         109          81
  grid # 2         322         566         462         431         462         436         236
  grid # 3          28         366         376          92         385         119           6
  grid # 4        8582        8582        8582        8582        8582        8582        8582
  grid # 5        1192        1192        1192        1192        1192        1192        1192
  grid # 6        6164        6164        6164        6164        6164        6164        6164
  grid # 7       14018       23160       15170       15170       15170       15170       14018
  grid # 8         750         778         792         792         792         792         750
  grid # 9         406         424         420         420         420         420         406
   
  number of gridpoints: 
     atom           C7          C8          C9         C10         C11         C12         C13
  grid # 1          89          79          81          88          80          81          81
  grid # 2         367         235         238         364         235         233         233
  grid # 3           6           6           6           6           6           6           6
  grid # 4        8582        8582        8582        8582        8582        8582        8582
  grid # 5        1192        1192        1192        1192        1192        1192        1192
  grid # 6        6164        6164        6164        6164        6164        6164        6164
  grid # 7       14018       14018       14018       14018       14018       14018       14018
  grid # 8         750         750         750         750         750         750         750
  grid # 9         406         406         406         406         406         406         406
   
  number of gridpoints: 
     atom          C14         C15         C16         C17         C18         C19         C20
  grid # 1          87          99          80          99          95          95          95
  grid # 2         392         362         235         358         322         321         321
  grid # 3           6           6           6          17          23          30          29
  grid # 4        8582        8582        8582        8582        8582        8582        8582
  grid # 5        1192        1192        1192        1192        1192        1192        1192
  grid # 6        6164        6164        6164        6164        6164        6164        6164
  grid # 7       14018       14018       14018       14018       14018       14018       14018
  grid # 8         750         750         750         750         750         750         750
  grid # 9         406         406         406         406         406         406         406
   
  number of gridpoints: 
     atom          C21         C22         C23         C24         C25         C26         C27
  grid # 1          95          94         100          96          97          97          96
  grid # 2         323         324         358         324         325         325         324
  grid # 3          29          22          17          31          46          50          43
  grid # 4        8582        8582        8582        8582        8582        8582        8582
  grid # 5        1192        1192        1192        1192        1192        1192        1192
  grid # 6        6164        6164        6164        6164        6164        6164        6164
  grid # 7       14018       14018       14018       14018       14018       14018       14018
  grid # 8         750         750         750         750         750         750         750
  grid # 9         406         406         406         406         406         406         406
   
  number of gridpoints: 
     atom          C28         H29         H30         H31         H32         H33         H34
  grid # 1          95         102         103         109         100         108         101
  grid # 2         323         426         431         446         424         445         420
  grid # 3          24         155         143         269          75         253          80
  grid # 4        8582        8582        8582        8582        8582        8582        8582
  grid # 5        1192        1192        1192        1192        1192        1192        1192
  grid # 6        6164        6164        6164        6164        6164        6164        6164
  grid # 7       14018       15170       15170       15170       15170       15170       15170
  grid # 8         750         792         792         792         792         792         792
  grid # 9         406         420         420         420         420         420         420
   
  number of gridpoints: 
     atom          H35         H36         H37         H38         H39         H40         H41
  grid # 1         100         107         103         102         101         107          95
  grid # 2         422         445         428         423         421         445         426
  grid # 3         149         269          97         104          56         246          77
  grid # 4        8582        8582        8582        8582        8582        8582        8582
  grid # 5        1192        1192        1192        1192        1192        1192        1192
  grid # 6        6164        6164        6164        6164        6164        6164        6164
  grid # 7       15170       15170       15170       15170       15170       15170       15170
  grid # 8         792         792         792         792         792         792         792
  grid # 9         420         420         420         420         420         420         420
   
  number of gridpoints: 
     atom          H42         H43         H44         H45         H46         H47         H48
  grid # 1         104         109         100         109         101         104         107
  grid # 2         432         446         423         445         421         442         442
  grid # 3         157         258         155         259         155         208         216
  grid # 4        8582        8582        8582        8582        8582        8582        8582
  grid # 5        1192        1192        1192        1192        1192        1192        1192
  grid # 6        6164        6164        6164        6164        6164        6164        6164
  grid # 7       15170       15170       15170       15170       15170       15170       15170
  grid # 8         792         792         792         792         792         792         792
  grid # 9         420         420         420         420         420         420         420
   
  number of gridpoints: 
     atom          H49         H50         H51         H52         H53         H54         H55
  grid # 1         100         107         117         117         113         103         112
  grid # 2         416         443         466         466         452         427         451
  grid # 3         108         177         398         393         228          65         207
  grid # 4        8582        8582        8582        8582        8582        8582        8582
  grid # 5        1192        1192        1192        1192        1192        1192        1192
  grid # 6        6164        6164        6164        6164        6164        6164        6164
  grid # 7       15170       15170       15170       15170       15170       15170       15170
  grid # 8         792         792         792         792         792         792         792
  grid # 9         420         420         420         420         420         420         420
   
  number of gridpoints: 
     atom          H56         H57         H58         H59        N104        H105        C107
  grid # 1         118         118         118         111         101         105          96
  grid # 2         467         467         467         445         377         424         349
  grid # 3         420         420         421         234           6         150          14
  grid # 4        8582        8582        8582        8582        8582        8582        8582
  grid # 5        1192        1192        1192        1192        1192        1192        1192
  grid # 6        6164        6164        6164        6164        6164        6164        6164
  grid # 7       15170       15170       15170       15170       14142       15170       14018
  grid # 8         792         792         792         792         778         792         750
  grid # 9         420         420         420         420         416         420         406
   
  number of gridpoints: 
     atom         C108        C109        C110        C111        C112        H113        H114
  grid # 1          96          96          95          96          96         114         107
  grid # 2         324         326         324         326         325         451         437
  grid # 3          39          24          18          34          35         283         115
  grid # 4        8582        8582        8582        8582        8582        8582        8582
  grid # 5        1192        1192        1192        1192        1192        1192        1192
  grid # 6        6164        6164        6164        6164        6164        6164        6164
  grid # 7       14018       14018       14018       14018       14018       15170       15170
  grid # 8         750         750         750         750         750         792         792
  grid # 9         406         406         406         406         406         420         420
   
  number of gridpoints: 
     atom         H115        H116        H117       Na119         Br3       total
  grid # 1         117         117         118         716         473       10473
  grid # 2         465         466         466         690         451       31985
  grid # 3         382         392         422         363         169       10960
  grid # 4        8582        8582        8582        8582        8582      703724
  grid # 5        1192        1192        1192        1192        1192       97744
  grid # 6        6164        6164        6164        9488        9488      518744
  grid # 7       15170       15170       15170       21102       11604     1238418
  grid # 8         792         792         792         642         714       63502
  grid # 9         420         420         420         338         360       35516
   
  end of program grid
   
 Time(grid)  user:     386.487  user+sys:     386.487  wallclock:      26.909
  
  start of program rwr
  
  end of program rwr
   
 Time(rwr)  user:      43.106  user+sys:      43.106  wallclock:      13.664
  
  start of program scf
  
 number of electrons..........        318
 number of alpha electrons....        159
 number of beta electrons.....        159
 number of orbitals, total....        673
 number of doubly-occ'd orbs..        159
 number of open shell orbs....          0
 number of occupied orbitals..        159
 number of virtual orbitals...        514
 number of hamiltonians.......          1
 number of shells.............          1
 SCF type: DFT=Becke_3_Parameter/HF+Slater+Becke88+PW91+PW-GGAIIC (B3PW91-D3)
 Energy computed using pseudospectral method.
 Convergence Criterion:
    Energy (econv):       1.00E-05
    RMS density (dconv):  5.00E-06
  
       i  u  d  i  g                   
       t  p  i  c  r                                 RMS    maximum
       e  d  i  u  i                       energy  density   DIIS  
       r  t  s  t  d       total energy    change  change    error 
  
etot    1  N  N  5  M   -2151.17552528021           2.0E-03  1.7E-01
etot    2  Y  Y  6  M   -2154.71444976556  3.5E+00  2.9E-03  1.1E-01
etot    3  Y  Y  6  M   -2155.62257418238  9.1E-01  1.1E-03  6.9E-02
etot    4  N  Y  2  U   -2155.95286693458  3.3E-01  8.6E-04  5.3E-02
etot    5  Y  Y  6  M   -2156.02694948552  7.4E-02  5.7E-04  3.1E-02
etot    6  N  Y  2  U   -2156.03230036560  5.4E-03  5.3E-04  1.3E-02
etot    7  Y  Y  6  M   -2156.03930896897  7.0E-03  9.6E-05  4.1E-03
etot    8  N  Y  2  U   -2156.04338338883  4.1E-03  3.4E-05  1.3E-03
etot    9  N  Y  2  U   -2156.04363150008  2.5E-04  8.9E-06  2.1E-04
etot   10  N  Y  2  U   -2156.04364014710  8.6E-06  4.1E-06  1.2E-04
etot   11  N  N  2  U   -2156.04364349735  3.4E-06  0.0E+00  0.0E+00
 
  Computing the dispersion energy correction and its gradients...
  
  
 Energy components, in hartrees:
   (A)  Nuclear repulsion............    5792.72341410039
   (E)  Total one-electron terms.....  -14544.05493671270
   (F)    Electron-nuclear...........  -16599.29068812741
   (H)    Kinetic....................    2055.23575141470
   (I)  Total two-electron terms.....    6595.28787911496
   (J)    Coulomb....................    6870.66796349225
   (K)    Exchange+Correlation.......    -275.38008437729
   (L)  Electronic energy............   -7948.76705759774  (E+I)
   (N0) D3 correction................      -0.16854616506
   (N)  Total energy.................   -2156.21218966240  (A+L+N0)
   (O)  Gas phase energy.............   -2156.21218966240
  
 SCFE: SCF energy: DFT(b3pw91-d3)     -2156.21218966240 hartrees   iterations:  11
  
 
 HOMO energy:    -0.17667
 LUMO energy:    -0.04372
 
  Orbital energies (hartrees): 
   -77.06826   -38.48779   -24.66617   -14.28683   -10.23052   -10.19381
   -10.19323   -10.18856   -10.18755   -10.18750   -10.18211   -10.18076
   -10.17216   -10.17215   -10.17168   -10.17160   -10.17111   -10.17063
   -10.17032   -10.16981   -10.16669   -10.16307   -10.16029   -10.15757
   -10.15720   -10.15669   -10.15649   -10.15515   -10.15472   -10.15403
   -10.15373   -10.15361   -10.14823   -10.14694   -10.14690   -10.14475
   -10.14341   -10.14259   -10.13279    -6.56777    -4.72577    -4.72537
    -4.72266    -3.32022    -2.24956    -2.05353    -2.04991    -2.01907
    -1.19794    -1.17874    -1.17703    -1.17536    -0.87382    -0.87148
    -0.85317    -0.83996    -0.82744    -0.81005    -0.80913    -0.80380
    -0.75547    -0.74717    -0.74471    -0.74210    -0.73617    -0.72732
    -0.72026    -0.69565    -0.69206    -0.68757    -0.68366    -0.67898
    -0.67874    -0.66940    -0.64876    -0.60974    -0.60124    -0.60045
    -0.59984    -0.59538    -0.59018    -0.58058    -0.56800    -0.54573
    -0.54360    -0.52500    -0.52103    -0.51171    -0.49641    -0.48813
    -0.46777    -0.46428    -0.46213    -0.45893    -0.45732    -0.45218
    -0.44964    -0.44561    -0.44252    -0.44146    -0.43934    -0.43653
    -0.43364    -0.43212    -0.42696    -0.42599    -0.42056    -0.41867
    -0.41705    -0.41193    -0.40920    -0.40605    -0.40400    -0.39934
    -0.39023    -0.38337    -0.37871    -0.37577    -0.37487    -0.37430
    -0.37229    -0.36746    -0.36067    -0.35864    -0.35712    -0.35642
    -0.35429    -0.34884    -0.34837    -0.34404    -0.34012    -0.33781
    -0.33140    -0.32618    -0.32426    -0.32124    -0.32012    -0.31718
    -0.31525    -0.30930    -0.30134    -0.29601    -0.27462    -0.26439
    -0.26283    -0.25968    -0.25176    -0.24961    -0.24878    -0.24236
    -0.24058    -0.24017    -0.23619    -0.23090    -0.22821    -0.22670
    -0.20620    -0.19489    -0.17667    -0.04372    -0.03129    -0.01678
    -0.00963    -0.00376     0.00191     0.00579     0.00992     0.01214
     0.01882
 
  end of program scf
   
 Time(scf)  user:     583.984  user+sys:     583.984  wallclock:      55.182
  
  start of program der1a
  
  end of program der1a
   
 Time(der1a)  user:      32.376  user+sys:      32.376  wallclock:       2.925
  
  start of program rwr
  
  end of program rwr
   
 Time(rwr)  user:      33.891  user+sys:      33.891  wallclock:      15.211
  
  start of program der1b
  
   
  forces (hartrees/bohr) : total     
   
 atom  label           x              y              z
 ---- --------   -------------  -------------  -------------
    1 P1          5.668236E-04   3.378612E-04   1.656616E-03
    2 Pd2        -2.836033E-03   1.363574E-03  -4.943246E-03
    3 C73         2.057558E-03   7.181811E-04   5.731708E-04
    4 C74        -5.911415E-04  -9.765807E-05   1.070110E-04
    5 C75         1.452924E-03   1.622628E-04   2.597526E-04
    6 C76        -4.143913E-04  -2.082088E-03  -6.390129E-04
    7 C77         1.667211E-03   1.207533E-03   5.076372E-04
    8 C78        -3.346930E-04  -3.537109E-04   1.498216E-04
    9 F79        -1.455597E-03  -5.631618E-04  -2.029104E-04
   10 H80         9.101139E-05  -6.580614E-04   2.099359E-04
   11 H82        -5.559601E-05  -8.174302E-06  -8.352338E-05
   12 H83        -2.856944E-04   4.846806E-04   4.239290E-05
   13 H14        -2.726966E-04  -1.174933E-04  -9.304507E-06
   14 C6          1.487197E-04  -4.090217E-05   1.741705E-04
   15 C7         -5.924460E-04  -1.184765E-04  -2.073292E-04
   16 C8         -9.045134E-05   7.450785E-05   1.130178E-04
   17 C9         -8.181426E-05  -2.222567E-04   2.301087E-04
   18 C10        -1.025518E-03  -1.130589E-04   7.846543E-05
   19 C11        -9.488155E-05  -3.901316E-04   2.174325E-04
   20 C12        -7.885626E-04   4.114297E-03  -2.923975E-03
   21 C13         4.698430E-04   9.393046E-05   1.131364E-04
   22 C14         4.979985E-04  -1.975410E-04  -1.361655E-04
   23 C15         4.437885E-05   9.759333E-05  -8.274753E-04
   24 C16         2.335356E-04  -3.478531E-04   2.417525E-05
   25 C17         2.953370E-04  -1.319048E-04   3.143967E-04
   26 C18        -1.719596E-04   4.076552E-04   5.645572E-04
   27 C19        -4.299854E-04   6.595207E-05   3.808076E-04
   28 C20        -1.142285E-04   4.097922E-05   1.756110E-04
   29 C21         7.439101E-04  -8.224278E-04  -1.886727E-03
   30 C22         9.141533E-04  -3.149118E-03   1.637106E-03
   31 C23        -5.186935E-04   8.885922E-05   3.613543E-04
   32 C24         1.184938E-04  -7.077085E-04  -3.642702E-04
   33 C25         7.070250E-04   5.130243E-05  -3.398598E-04
   34 C26         3.954350E-04   3.838344E-04   2.663780E-05
   35 C27        -5.906367E-04   1.019128E-04   4.295155E-04
   36 C28        -6.480404E-04  -5.167878E-04  -5.024713E-05
   37 H29        -1.069212E-04   4.352206E-06   7.463368E-05
   38 H30        -1.551351E-05   3.617230E-05   2.176754E-05
   39 H31        -2.021891E-04  -3.273746E-05   1.029255E-05
   40 H32        -1.893594E-05   1.185763E-04   1.222498E-04
   41 H33        -1.162074E-04  -8.283600E-05   1.452751E-04
   42 H34        -6.948153E-05  -3.058091E-05  -6.234715E-05
   43 H35        -1.033098E-04  -1.568145E-04   1.334512E-04
   44 H36        -1.602203E-04   1.122724E-05   1.727269E-04
   45 H37        -7.127597E-05  -1.441051E-05   9.563020E-05
   46 H38        -1.476918E-04   4.470203E-05   1.988921E-04
   47 H39        -1.359987E-04  -2.589033E-04   3.398146E-05
   48 H40        -6.349832E-05  -1.315567E-04   1.040864E-04
   49 H41         1.249931E-03   5.421581E-03  -7.497514E-03
   50 H42        -8.104332E-05  -7.540959E-05   1.003181E-04
   51 H43         3.135011E-05   2.370712E-04  -8.772124E-04
   52 H44        -3.067967E-05  -8.668755E-05  -3.547414E-05
   53 H45        -1.092303E-05  -2.436321E-04   1.789507E-04
   54 H46        -5.220527E-05  -4.683980E-05   1.310701E-04
   55 H47         4.753378E-05  -1.272140E-04   1.411440E-04
   56 H48        -1.686990E-04  -5.846088E-05   5.126690E-05
   57 H49        -6.065065E-05  -3.522830E-06   2.191424E-04
   58 H50        -2.763777E-04   1.077972E-04   2.277921E-04
   59 H51        -4.734647E-04   1.749247E-04   1.044621E-04
   60 H52        -1.685048E-04   7.213951E-05  -3.446338E-04
   61 H53         3.086831E-04  -2.258449E-04   4.079853E-04
   62 H54         4.453467E-03  -3.004719E-03  -9.866728E-04
   63 H55         4.798794E-04   3.906119E-05  -3.908856E-04
   64 H56         5.415144E-04   3.111990E-05  -2.808045E-04
   65 H57         3.018915E-04   4.272488E-04   1.237902E-04
   66 H58        -2.989288E-04   2.832972E-04   3.660339E-04
   67 H59        -5.044917E-04   1.485539E-05   2.768104E-04
   68 N104        6.932453E-05  -3.877248E-03   5.188849E-03
   69 H105       -3.666220E-04   5.083921E-04  -6.947502E-04
   70 C107       -8.444354E-04   3.411046E-03   1.046092E-03
   71 C108        1.696879E-04  -9.024247E-04  -1.466321E-04
   72 C109       -4.021373E-04  -7.500929E-04  -7.420805E-04
   73 C110        6.524589E-04   1.667393E-04   1.947979E-03
   74 C111        4.234604E-04   2.488634E-04   1.018344E-03
   75 C112       -1.067086E-03   1.712247E-05  -4.052031E-04
   76 H113       -3.804833E-04   2.491022E-06  -1.692655E-04
   77 H114        4.603395E-04   1.412763E-03  -1.825298E-04
   78 H115        2.135949E-04  -2.906611E-04   2.309677E-04
   79 H116       -4.939642E-04  -4.623029E-04  -2.129345E-04
   80 H117       -2.236886E-05  -5.069812E-04   5.658771E-05
   81 Na119       4.915660E-03   5.239957E-03  -9.570092E-03
   82 Br3        -7.506337E-03  -8.192312E-03   1.231132E-02
 -------------   -------------  -------------  -------------
     total       -1.090573E-03  -2.374290E-03  -1.624352E-03
   
  end of program der1b
   
 Time(der1b)  user:     204.300  user+sys:     204.300  wallclock:      17.863
  
  start of program geopt
  
 ----------------------------------------------------------------------------
  Geometry optimization step  1
  Total energy:     -2156.21218966240 hartrees
 ----------------------------------------------------------------------------
  
  
  Level shifts adjusted to satisfy step-size constraints
   Step size:    0.3001196
   Cos(theta):   0.6417614
   Final level shift:  -6.9870979E-02
  
  gradient maximum:        5.2016E-02 .  (  2.2500E-03 )
  gradient rms:            8.2655E-03 .  (  1.5000E-03 )
  displacement maximum:    1.1196E-01 .  (  9.0000E-03 )
  displacement rms:        1.4622E-02 .  (  6.0000E-03 )
  
  predicted energy change:  -1.5032E-02
  step size:     0.24554
  trust radius:  0.30000
  
  molecular structure not yet converged...
  
  center of mass moved by:
     x:    -7.5678E-02     y:     3.0498E-02     z:     4.0900E-02
  
  new geometry: 
                                   angstroms
  atom               x                 y                 z
  P1            0.4551967334     -0.0352283177      0.1455042752 
  Pd2           0.2533749493      0.0473552629      2.5046865697 
  C73           4.6340765312      1.7263160087      3.3472504101 
  C74           3.6101562467      2.6316838756      3.1100570265 
  C75           2.3277157049      2.1457696728      2.8420544384 
  C76           2.0800143935      0.7688815049      2.7911824896 
  C77           3.1293690008     -0.1182767004      3.0659607820 
  C78           4.4151270114      0.3564672707      3.3410646809 
  F79           5.8774342304      2.1921300152      3.6015014795 
  H80           3.8179121030      3.6976780659      3.1429054121 
  H82           2.9519209211     -1.1907082500      3.0668962627 
  H83           5.2408230040     -0.3197727385      3.5454601598 
  H14           1.5211105231      2.8557570954      2.6873880980 
  C6            2.0202585239     -0.3232496400     -2.2552099771 
  C7            2.1510619361     -0.0112290081     -0.7540498927 
  C8            3.0203901709     -1.1206766156     -0.1538628229 
  C9            2.8687747915      1.3295246359     -0.5504127214 
  C10          -0.5209587241      1.4858263676     -0.5631965359 
  C11          -0.2142103733      2.6569114906      0.3949559440 
  C12          -2.0353743090      1.2554297248     -0.5394924973 
  C13          -0.1544456404      1.9547052193     -1.9804245299 
  C14          -0.1975153196     -1.6566947280     -0.4780139552 
  C15           0.1986183475     -2.8467968463      0.0436752074 
  C16          -1.1576597079     -1.6730725047     -1.6504981706 
  C17           1.1460775459     -3.1646405444      1.1608389513 
  C18           2.3714930436     -3.7871752190      0.8860931187 
  C19           3.2242364018     -4.1855570923      1.9117599829 
  C20           2.8542002616     -3.9984625236      3.2434954070 
  C21           1.6171647357     -3.4300038764      3.5296999981 
  C22           0.7664757059     -3.0234467783      2.5003777085 
  C23          -0.4055248099     -4.1033109632     -0.4993105689 
  C24          -1.5879072119     -4.5778015177      0.0790847612 
  C25          -2.1678440296     -5.7583550646     -0.3784433137 
  C26          -1.5724398695     -6.4751898277     -1.4160389393 
  C27          -0.3942567672     -6.0062655443     -1.9952921358 
  C28           0.1877985081     -4.8248908466     -1.5391511883 
  H29           1.4714101746      0.4327453565     -2.8169658140 
  H30           1.5430019850     -1.2945512245     -2.4231581235 
  H31           3.0305314389     -0.3785347466     -2.6839263940 
  H32           3.1118769188     -1.0433129921      0.9293967899 
  H33           4.0287363804     -1.0535564832     -0.5853836015 
  H34           2.6203857343     -2.1038865179     -0.4048843462 
  H35           2.3521439579      2.1661210323     -1.0282698144 
  H36           3.8659366354      1.2646547364     -1.0070368811 
  H37           3.0027290693      1.5605053746      0.5093703488 
  H38           0.8531846860      2.8799825474      0.4712120094 
  H39          -0.5902773874      2.4582205745      1.4049331428 
  H40          -0.7170871517      3.5591328645      0.0202307600 
  H41          -2.3938187493      0.9172344747      0.4313394480 
  H42          -2.3647643992      0.5320198714     -1.2893141216 
  H43          -2.5309811649      2.2101152902     -0.7677685719 
  H44           0.8784548619      2.3035503049     -2.0591797150 
  H45          -0.7995590320      2.8079824972     -2.2304169264 
  H46          -0.3227766304      1.1965166065     -2.7494925712 
  H47          -2.1854510649     -1.8266955095     -1.3005454312 
  H48          -0.9274924119     -2.4939129957     -2.3370296784 
  H49          -1.1333591746     -0.7455348569     -2.2214133031 
  H50           2.6626412727     -3.9696666003     -0.1447257426 
  H51           4.1775330090     -4.6491417655      1.6693408552 
  H52           3.5205157646     -4.3061293284      4.0461969186 
  H53           1.3072030461     -3.2929646818      4.5641972936 
  H54          -0.2268818525     -2.6534130857      2.7266894437 
  H55          -2.0449237110     -4.0073308630      0.8856744563 
  H56          -3.0885534923     -6.1180562014      0.0756269233 
  H57          -2.0259400536     -7.3970124660     -1.7728170451 
  H58           0.0720697716     -6.5600384964     -2.8070551795 
  H59           1.1010175138     -4.4517672852     -1.9981932780 
  N104          0.0236156501      0.3670811289      4.5914411279 
  H105          0.9291014165      0.1387190876      5.0046380007 
  C107         -0.2220261139      1.7269900327      4.8419490708 
  C108         -0.7460727425      4.4721327473      5.3244189022 
  C109          0.6561775092      2.5185214806      5.6097078618 
  C110         -1.3783117785      2.3553297917      4.3250825644 
  C111         -1.6270599134      3.7023333119      4.5620154929 
  C112          0.3974777448      3.8663404827      5.8433206642 
  H113          1.5700905611      2.0676574449      5.9935544900 
  H114         -2.0609132690      1.7703236211      3.7121279957 
  H115         -2.5197623114      4.1590008989      4.1384641908 
  H116          1.1071043470      4.4510029118      6.4260183829 
  H117         -0.9419256385      5.5270062323      5.4999413772 
  Na119        -1.8482896821     -0.8735041672      5.3447816120 
  Br3          -2.4228261033     -0.9019977533      2.5778250908 
   
 
  bond lengths (angstroms):
 
 P1      -Pd2     :   2.369239      P1      -C7      :   1.919826
 P1      -C10     :   1.941325      P1      -C14     :   1.855791
 Pd2     -C76     :   1.984765      Pd2     -N104    :   2.123572
 C73     -C74     :   1.387215      C73     -C78     :   1.387250
 C73     -F79     :   1.351874      C74     -C75     :   1.397352
 C74     -H80     :   1.086547      C75     -C76     :   1.399916
 C75     -H14     :   1.085641      C76     -C77     :   1.401320
 C77     -C78     :   1.397941      C77     -H82     :   1.087013
 C78     -H83     :   1.086670      C6      -C7      :   1.538814
 C6      -H29     :   1.090107      C6      -H30     :   1.095174
 C6      -H31     :   1.098866      C7      -C8      :   1.531937
 C7      -C9      :   1.534340      C8      -H32     :   1.089865
 C8      -H33     :   1.098853      C8      -H34     :   1.090742
 C9      -H35     :   1.093228      C9      -H36     :   1.098656
 C9      -H37     :   1.092903      C10     -C11     :   1.543888
 C10     -C12     :   1.532024      C10     -C13     :   1.537112
 C11     -H38     :   1.093118      C11     -H39     :   1.095882
 C11     -H40     :   1.098775      C12     -H41     :   1.088748
 C12     -H42     :   1.092727      C12     -H43     :   1.099618
 C13     -H44     :   1.093059      C13     -H45     :   1.098522
 C13     -H46     :   1.093001      C14     -C15     :   1.358464
 C14     -C16     :   1.515541      C15     -C17     :   1.498919
 C15     -C23     :   1.496212      C16     -H47     :   1.096550
 C16     -H48     :   1.094569      C16     -H49     :   1.089431
 C17     -C18     :   1.401670      C17     -C22     :   1.399427
 C18     -C19     :   1.392075      C18     -H50     :   1.086581
 C19     -C20     :   1.394794      C19     -H51     :   1.087406
 C20     -C21     :   1.391156      C20     -H52     :   1.087642
 C21     -C22     :   1.395874      C21     -H53     :   1.088596
 C22     -H54     :   1.083929      C23     -C24     :   1.399182
 C23     -C28     :   1.397848      C24     -C25     :   1.392611
 C24     -H55     :   1.088526      C25     -C26     :   1.394619
 C25     -H56     :   1.087782      C26     -C27     :   1.394109
 C26     -H57     :   1.087525      C27     -C28     :   1.393736
 C27     -H58     :   1.087697      C28     -H59     :   1.088076
 N104    -H105    :   1.021169      N104    -C107    :   1.404438
 N104    -Na119   :   2.368671      C107    -C109    :   1.409687
 C107    -C110    :   1.413845      C108    -C111    :   1.396420
 C108    -C112    :   1.394256      C108    -H117    :   1.087164
 C109    -C112    :   1.392163      C109    -H113    :   1.088969
 C110    -C111    :   1.390119      C110    -H114    :   1.088067
 C111    -H115    :   1.088512      C112    -H116    :   1.088548
 Na119   -Br3     :   2.826120
 
  bond angles:
 
 C7      -P1      -Pd2     : 122.777801  C10     -P1      -Pd2     : 107.059642
 C10     -P1      -C7      : 105.267367  C14     -P1      -Pd2     : 109.575799
 C14     -P1      -C7      :  99.449559  C14     -P1      -C10     : 112.648314
 C76     -Pd2     -P1      :  94.474114  N104    -Pd2     -P1      : 173.195333
 N104    -Pd2     -C76     :  84.433351  C78     -C73     -C74     : 121.816889
 F79     -C73     -C74     : 119.087014  F79     -C73     -C78     : 119.094144
 C75     -C74     -C73     : 118.898202  H80     -C74     -C73     : 119.604115
 H80     -C74     -C75     : 121.496282  C76     -C75     -C74     : 120.755684
 H14     -C75     -C74     : 118.802169  H14     -C75     -C76     : 120.436498
 C75     -C76     -Pd2     : 121.711425  C77     -C76     -Pd2     : 119.165264
 C77     -C76     -C75     : 118.884750  C78     -C77     -C76     : 120.819176
 H82     -C77     -C76     : 120.166954  H82     -C77     -C78     : 119.013853
 C77     -C78     -C73     : 118.775853  H83     -C78     -C73     : 119.586336
 H83     -C78     -C77     : 121.637528  H29     -C6      -C7      : 113.884209
 H30     -C6      -C7      : 111.498413  H30     -C6      -H29     : 108.459288
 H31     -C6      -C7      : 108.218988  H31     -C6      -H29     : 107.261345
 H31     -C6      -H30     : 107.229357  C6      -C7      -P1      : 112.301075
 C8      -C7      -P1      : 107.977503  C8      -C7      -C6      : 106.474386
 C9      -C7      -P1      : 111.219056  C9      -C7      -C6      : 110.268354
 C9      -C7      -C8      : 108.384858  H32     -C8      -C7      : 112.683225
 H33     -C8      -C7      : 108.822690  H33     -C8      -H32     : 107.996320
 H34     -C8      -C7      : 110.765523  H34     -C8      -H32     : 108.875587
 H34     -C8      -H33     : 107.530071  H35     -C9      -C7      : 112.931788
 H36     -C9      -C7      : 108.529795  H36     -C9      -H35     : 107.003539
 H37     -C9      -C7      : 111.759499  H37     -C9      -H35     : 108.665893
 H37     -C9      -H36     : 107.713640  C11     -C10     -P1      : 105.536564
 C12     -C10     -P1      : 111.936039  C12     -C10     -C11     : 107.510024
 C13     -C10     -P1      : 117.109605  C13     -C10     -C11     : 107.064647
 C13     -C10     -C12     : 107.208003  H38     -C11     -C10     : 113.084978
 H39     -C11     -C10     : 111.484694  H39     -C11     -H38     : 107.926433
 H40     -C11     -C10     : 108.678392  H40     -C11     -H38     : 107.645539
 H40     -C11     -H39     : 107.825750  H41     -C12     -C10     : 112.702920
 H42     -C12     -C10     : 112.762771  H42     -C12     -H41     : 107.878004
 H43     -C12     -C10     : 108.164728  H43     -C12     -H41     : 107.843207
 H43     -C12     -H42     : 107.244778  H44     -C13     -C10     : 112.898635
 H45     -C13     -C10     : 107.862565  H45     -C13     -H44     : 106.896396
 H46     -C13     -C10     : 113.605142  H46     -C13     -H44     : 108.434415
 H46     -C13     -H45     : 106.752912  C15     -C14     -P1      : 122.266415
 C16     -C14     -P1      : 119.485117  C16     -C14     -C15     : 118.188484
 C17     -C15     -C14     : 131.019153  C23     -C15     -C14     : 118.594339
 C23     -C15     -C17     : 110.342421  H47     -C16     -C14     : 110.390797
 H48     -C16     -C14     : 111.107817  H48     -C16     -H47     : 106.989940
 H49     -C16     -C14     : 112.463412  H49     -C16     -H47     : 107.904394
 H49     -C16     -H48     : 107.764035  C18     -C17     -C15     : 120.046273
 C22     -C17     -C15     : 121.370072  C22     -C17     -C18     : 118.007138
 C19     -C18     -C17     : 121.213202  H50     -C18     -C17     : 119.656736
 H50     -C18     -C19     : 119.129009  C20     -C19     -C18     : 120.170762
 H51     -C19     -C18     : 119.654647  H51     -C19     -C20     : 120.173442
 C21     -C20     -C19     : 119.153361  H52     -C20     -C19     : 120.277065
 H52     -C20     -C21     : 120.564580  C22     -C21     -C20     : 120.611995
 H53     -C21     -C20     : 120.009146  H53     -C21     -C22     : 119.377784
 C21     -C22     -C17     : 120.740378  H54     -C22     -C17     : 118.874074
 H54     -C22     -C21     : 120.263431  C24     -C23     -C15     : 118.423818
 C28     -C23     -C15     : 122.146386  C28     -C23     -C24     : 119.415474
 C25     -C24     -C23     : 120.237224  H55     -C24     -C23     : 118.906533
 H55     -C24     -C25     : 120.855720  C26     -C25     -C24     : 120.157270
 H56     -C25     -C24     : 119.713085  H56     -C25     -C26     : 120.129526
 C27     -C26     -C25     : 119.804832  H57     -C26     -C25     : 120.114727
 H57     -C26     -C27     : 120.080432  C28     -C27     -C26     : 120.136710
 H58     -C27     -C26     : 120.077384  H58     -C27     -C28     : 119.785646
 C27     -C28     -C23     : 120.248480  H59     -C28     -C23     : 119.541876
 H59     -C28     -C27     : 120.205673  H105    -N104    -Pd2     : 105.545802
 C107    -N104    -Pd2     : 109.876066  C107    -N104    -H105    : 107.424821
 Na119   -N104    -Pd2     : 108.613193  Na119   -N104    -H105    : 117.060767
 Na119   -N104    -C107    : 108.191252  C109    -C107    -N104    : 122.132268
 C110    -C107    -N104    : 120.541537  C110    -C107    -C109    : 117.326127
 C112    -C108    -C111    : 118.758653  H117    -C108    -C111    : 120.622871
 H117    -C108    -C112    : 120.614305  C112    -C109    -C107    : 121.281044
 H113    -C109    -C107    : 118.837812  H113    -C109    -C112    : 119.844315
 C111    -C110    -C107    : 120.975324  H114    -C110    -C107    : 118.689783
 H114    -C110    -C111    : 120.313990  C110    -C111    -C108    : 120.952847
 H115    -C111    -C108    : 119.905329  H115    -C111    -C110    : 119.140468
 C109    -C112    -C108    : 120.704550  H116    -C112    -C108    : 120.035543
 H116    -C112    -C109    : 119.253920  Br3     -Na119   -N104    :  81.636921
 
  torsional angles:
 
 P1      -Pd2     -C76     -C75     :  90.972266
 P1      -Pd2     -C76     -C77     : -94.703226
 P1      -Pd2     -N104    -H105    :-117.928265
 P1      -Pd2     -N104    -C107    :  -2.391878
 P1      -Pd2     -N104    -Na119   : 115.775258
 P1      -C7      -C6      -H29     :  65.690136
 P1      -C7      -C6      -H30     : -57.443314
 P1      -C7      -C6      -H31     :-175.140091
 P1      -C7      -C8      -H32     : -54.493711
 P1      -C7      -C8      -H33     :-174.245775
 P1      -C7      -C8      -H34     :  67.747035
 P1      -C7      -C9      -H35     : -66.372463
 P1      -C7      -C9      -H36     : 175.158222
 P1      -C7      -C9      -H37     :  56.518579
 P1      -C10     -C11     -H38     :  58.613547
 P1      -C10     -C11     -H39     : -63.212101
 P1      -C10     -C11     -H40     : 178.080660
 P1      -C10     -C12     -H41     :  50.219240
 P1      -C10     -C12     -H42     : -72.221632
 P1      -C10     -C12     -H43     : 169.352145
 P1      -C10     -C13     -H44     : -62.698310
 P1      -C10     -C13     -H45     : 179.422565
 P1      -C10     -C13     -H46     :  61.302035
 P1      -C14     -C15     -C17     :   1.215422
 P1      -C14     -C15     -C23     : 178.541332
 P1      -C14     -C16     -H47     :-102.266321
 P1      -C14     -C16     -H48     : 139.201701
 P1      -C14     -C16     -H49     :  18.304419
 Pd2     -P1      -C7      -C6      : 169.875951
 Pd2     -P1      -C7      -C8      :  52.789512
 Pd2     -P1      -C7      -C9      : -66.006085
 Pd2     -P1      -C10     -C11     :  39.952428
 Pd2     -P1      -C10     -C12     : -76.702772
 Pd2     -P1      -C10     -C13     : 158.931946
 Pd2     -P1      -C14     -C15     : -50.581118
 Pd2     -P1      -C14     -C16     : 132.287734
 Pd2     -C76     -C75     -C74     : 176.835961
 Pd2     -C76     -C75     -H14     :  -2.289071
 Pd2     -C76     -C77     -C78     :-176.697842
 Pd2     -C76     -C77     -H82     :   3.349557
 Pd2     -N104    -C107    -C109    :-117.805987
 Pd2     -N104    -C107    -C110    :  62.291444
 Pd2     -N104    -Na119   -Br3     : -17.302009
 C73     -C74     -C75     -C76     :  -1.030570
 C73     -C74     -C75     -H14     : 178.108539
 C73     -C78     -C77     -C76     :   0.466468
 C73     -C78     -C77     -H82     :-179.580393
 C74     -C73     -C78     -C77     :   1.060347
 C74     -C73     -C78     -H83     :-179.130090
 C74     -C75     -C76     -C77     :   2.496005
 C75     -C74     -C73     -C78     :  -0.782405
 C75     -C74     -C73     -F79     : 179.730809
 C75     -C76     -Pd2     -N104    : -82.285347
 C75     -C76     -C77     -C78     :  -2.211513
 C75     -C76     -C77     -H82     : 177.835886
 C76     -Pd2     -P1      -C7      :  19.091794
 C76     -Pd2     -P1      -C10     :-102.589999
 C76     -Pd2     -P1      -C14     : 134.955324
 C76     -Pd2     -N104    -H105    : -36.861313
 C76     -Pd2     -N104    -C107    :  78.675075
 C76     -Pd2     -N104    -Na119   :-163.157790
 C76     -C75     -C74     -H80     : 179.401840
 C76     -C77     -C78     -H83     :-179.339018
 C77     -C76     -Pd2     -N104    :  92.039161
 C77     -C76     -C75     -H14     :-176.629026
 C77     -C78     -C73     -F79     :-179.452903
 C78     -C73     -C74     -H80     : 178.793532
 F79     -C73     -C74     -H80     :  -0.693253
 F79     -C73     -C78     -H83     :   0.356660
 H80     -C74     -C75     -H14     :  -1.459051
 H82     -C77     -C78     -H83     :   0.614122
 C6      -C7      -P1      -C10     : -67.613972
[...]
    C23      X     0.00007  -0.00018   0.00007   0.00004   0.00000  -0.00000
    C23      Y     0.00038  -0.00012   0.00018   0.00011  -0.00000   0.00000
    C23      Z     0.00024   0.00002   0.00012   0.00010   0.00000   0.00000
    C24      X    -0.00219   0.00235  -0.00127  -0.00068  -0.00001   0.00000
    C24      Y     0.00291  -0.00256   0.00144   0.00076   0.00001  -0.00000
    C24      Z     0.00352  -0.00333   0.00184   0.00098   0.00001  -0.00000
    C25      X    -0.01160   0.00343  -0.00303  -0.00156  -0.00001  -0.00000
    C25      Y    -0.00423   0.00142  -0.00116  -0.00060  -0.00000   0.00000
    C25      Z     0.00463  -0.00125   0.00116   0.00060   0.00000  -0.00000
    C26      X    -0.00637   0.00107  -0.00143  -0.00075  -0.00001  -0.00000
    C26      Y    -0.01497   0.00275  -0.00334  -0.00172  -0.00001  -0.00000
    C26      Z    -0.00638   0.00124  -0.00142  -0.00072  -0.00001  -0.00000
    C27      X     0.00754  -0.00098   0.00193   0.00113   0.00001  -0.00000
    C27      Y    -0.00676   0.00078  -0.00181  -0.00110  -0.00001   0.00000
    C27      Z    -0.00987   0.00121  -0.00260  -0.00155  -0.00001  -0.00000
    C28      X     0.00794  -0.00013   0.00312   0.00223   0.00001  -0.00000
    C28      Y     0.00377  -0.00010   0.00141   0.00099   0.00001  -0.00000
    C28      Z    -0.00280   0.00002  -0.00117  -0.00085  -0.00001  -0.00000
    H29      X    -0.00561   0.00443   0.00346  -0.00008   0.00062  -0.00000
    H29      Y     0.00615  -0.00469  -0.00350   0.00036  -0.00071  -0.00000
    H29      Z    -0.00509   0.00405   0.00322  -0.00009   0.00055   0.00000
    H30      X    -0.00148   0.00188   0.00204   0.00156  -0.00026  -0.00000
    H30      Y    -0.00263   0.00317   0.00352   0.00257  -0.00057   0.00000
    H30      Z    -0.00121   0.00132   0.00130   0.00088  -0.00014   0.00000
    H31      X    -0.00095   0.00030   0.00009  -0.00081   0.00010  -0.00000
    H31      Y     0.00030  -0.00040  -0.00038  -0.00032   0.00003   0.00000
    H31      Z    -0.00001   0.00041   0.00038   0.00082  -0.00004  -0.00001
    H32      X    -0.03969   0.04110   0.03606   0.02358  -0.00040  -0.00000
    H32      Y    -0.02620   0.02683   0.02349   0.01497  -0.00037   0.00001
    H32      Z    -0.41327   0.42898   0.37547   0.24714  -0.00455  -0.00012
    H33      X     0.02781  -0.02509  -0.01991  -0.01398   0.00020  -0.00002
    H33      Y     0.00889  -0.00881  -0.00755  -0.00495   0.00008  -0.00000
    H33      Z    -0.00596   0.00439   0.00307   0.00201   0.00001   0.00001
    H34      X    -0.09349   0.10399   0.09673   0.05967  -0.00096  -0.00002
    H34      Y    -0.26296   0.29257   0.27224   0.16776  -0.00281  -0.00004
    H34      Z    -0.05651   0.06414   0.06049   0.03708  -0.00055  -0.00001
    H35      X    -0.00169   0.00116   0.00129  -0.00063   0.00025   0.00000
    H35      Y     0.00241  -0.00153  -0.00163   0.00106  -0.00026  -0.00001
    H35      Z    -0.00151   0.00108   0.00109  -0.00037   0.00058  -0.00001
    H36      X     0.00065  -0.00105  -0.00094  -0.00122   0.00199  -0.00002
    H36      Y    -0.00039   0.00033   0.00030   0.00010  -0.00018  -0.00000
    H36      Z     0.00006   0.00014   0.00006   0.00049  -0.00103   0.00002
    H37      X    -0.00095   0.00093   0.00094   0.00029  -0.00200  -0.00001
    H37      Y    -0.00262   0.00257   0.00242   0.00103  -0.00146  -0.00001
    H37      Z    -0.00743   0.00703   0.00726   0.00177  -0.00952   0.00015
    H38      X    -0.00025   0.00179  -0.00099   0.00137  -0.02080  -0.00007
    H38      Y    -0.00008   0.00056  -0.00023   0.00038  -0.00561  -0.00002
    H38      Z    -0.00005  -0.00009   0.00009  -0.00006   0.00033   0.00001
    H39      X    -0.00023  -0.00003   0.00001   0.00015  -0.00198   0.00004
    H39      Y    -0.00000   0.00022  -0.00013   0.00016  -0.00191  -0.00003
    H39      Z     0.00047  -0.00054   0.00030  -0.00055   0.00446  -0.00001
    H40      X     0.00023   0.00048  -0.00002   0.00014  -0.00203  -0.00002
    H40      Y    -0.00044  -0.00075   0.00007  -0.00018   0.00286   0.00005
    H40      Z     0.00019   0.00035  -0.00008   0.00006  -0.00123  -0.00004
    H41      X    -0.00118  -0.00223   0.00085   0.00073   0.00020   0.00005
    H41      Y    -0.00228  -0.00451   0.00167   0.00155   0.00044   0.00007
    H41      Z     0.00629   0.01219  -0.00450  -0.00413  -0.00116  -0.00015
    H42      X     0.00087   0.00218  -0.00068  -0.00064  -0.00046  -0.00001
    H42      Y     0.00203   0.00467  -0.00145  -0.00135  -0.00087  -0.00002
    H42      Z     0.00171   0.00407  -0.00127  -0.00120  -0.00074  -0.00001
    H43      X     0.00047   0.00070  -0.00011  -0.00016   0.00003  -0.00002
    H43      Y    -0.00081  -0.00092   0.00023   0.00019  -0.00006   0.00002
    H43      Z     0.00000  -0.00014   0.00004   0.00006   0.00002   0.00000
    H44      X     0.00034   0.00062  -0.00047  -0.00048  -0.00096  -0.00002
    H44      Y     0.00010   0.00024  -0.00017  -0.00023  -0.00032  -0.00001
    H44      Z    -0.00005  -0.00022   0.00008   0.00007   0.00029   0.00001
    H45      X     0.00042  -0.00003  -0.00019  -0.00021  -0.00012   0.00000
    H45      Y    -0.00056  -0.00009   0.00024   0.00025   0.00017   0.00000
    H45      Z     0.00010   0.00013  -0.00002  -0.00004   0.00001  -0.00001
    H46      X    -0.00029   0.00040   0.00028   0.00028  -0.00015   0.00000
    H46      Y    -0.00079   0.00142   0.00082   0.00073  -0.00042  -0.00001
    H46      Z    -0.00079   0.00129   0.00072   0.00063  -0.00039   0.00000
    H47      X     0.00044  -0.00044  -0.00052  -0.00058  -0.00018  -0.00003
    H47      Y     0.00014   0.00007  -0.00008  -0.00007  -0.00001  -0.00001
    H47      Z     0.00006   0.00017   0.00013   0.00019   0.00005  -0.00001
    H48      X     0.00031   0.00056   0.00005   0.00006   0.00004  -0.00002
    H48      Y    -0.00071  -0.00127   0.00016   0.00009  -0.00013  -0.00002
    H48      Z    -0.00057  -0.00101   0.00012   0.00006  -0.00012  -0.00003
    H49      X    -0.00020  -0.00039  -0.00006  -0.00013  -0.00006   0.00001
    H49      Y    -0.00227  -0.00399  -0.00149  -0.00227  -0.00061   0.00002
    H49      Z     0.00155   0.00245   0.00096   0.00147   0.00039  -0.00001
    H50      X    -0.15439  -0.03466  -0.12020  -0.10247  -0.00058  -0.00001
    H50      Y     0.09183   0.01853   0.06831   0.05884   0.00036   0.00001
    H50      Z     0.37663   0.08327   0.29386   0.25116   0.00141   0.00001
    H51      X    -0.34714   0.02062  -0.23894  -0.23489  -0.00138   0.00003
    H51      Y     0.17823  -0.01064   0.12236   0.12074   0.00070  -0.00002
    H51      Z     0.03652  -0.00314   0.02505   0.02512   0.00015  -0.00001
    H52      X    -0.12990   0.04663  -0.09259  -0.10891  -0.00077   0.00006
    H52      Y     0.06477  -0.02300   0.04583   0.05462   0.00038  -0.00006
    H52      Z    -0.21115   0.07323  -0.14975  -0.17583  -0.00123   0.00011
    H53      X     0.01201  -0.07375   0.05129   0.05752   0.00064   0.00029
    H53      Y    -0.00556   0.03463  -0.02424  -0.02646  -0.00030  -0.00003
    H53      Z    -0.02065   0.17365  -0.11743  -0.12958  -0.00147  -0.00070
    H54      X    -0.36118  -0.68361   0.26853   0.19554   0.00545   0.00033
    H54      Y     0.15277   0.28897  -0.11349  -0.08265  -0.00235  -0.00019
    H54      Z     0.03387   0.06301  -0.02479  -0.01770  -0.00052  -0.00005
    H55      X     0.02654  -0.02742   0.01480   0.00788   0.00008   0.00001
    H55      Y    -0.02757   0.02749  -0.01498  -0.00801  -0.00008  -0.00001
    H55      Z    -0.03721   0.03718  -0.02023  -0.01080  -0.00011  -0.00001
    H56      X     0.12628  -0.03746   0.03284   0.01687   0.00008  -0.00001
    H56      Y     0.04990  -0.01501   0.01305   0.00670   0.00003  -0.00001
    H56      Z    -0.04778   0.01401  -0.01236  -0.00635  -0.00003   0.00000
    H57      X     0.06940  -0.01249   0.01541   0.00792   0.00005  -0.00000
    H57      Y     0.16448  -0.02989   0.03652   0.01874   0.00012   0.00000
    H57      Z     0.07048  -0.01288   0.01565   0.00802   0.00005  -0.00000
    H58      X    -0.07958   0.00979  -0.02076  -0.01234  -0.00010   0.00000
    H58      Y     0.07618  -0.00919   0.02002   0.01196   0.00009  -0.00000
    H58      Z     0.10760  -0.01310   0.02819   0.01680   0.00013  -0.00000
    H59      X    -0.08897   0.00086  -0.03562  -0.02560  -0.00016   0.00000
    H59      Y    -0.03757   0.00054  -0.01483  -0.01061  -0.00006   0.00000
    H59      Z     0.03298  -0.00044   0.01302   0.00928   0.00005   0.00000
    N104     X     0.00004   0.00009  -0.00006   0.00002   0.00001   0.05996
    N104     Y    -0.00005  -0.00010   0.00002   0.00004  -0.00000  -0.02042
    N104     Z    -0.00001   0.00001  -0.00001  -0.00001  -0.00003   0.02554
    H105     X    -0.00000  -0.00026   0.00033  -0.00033  -0.00044  -0.85383
    H105     Y     0.00023   0.00065  -0.00005  -0.00054   0.00009   0.25878
    H105     Z     0.00006  -0.00020   0.00040  -0.00055  -0.00012  -0.36234
    C107     X    -0.00003  -0.00003   0.00002  -0.00001   0.00002   0.00241
    C107     Y     0.00006   0.00008  -0.00002  -0.00001   0.00006   0.00136
    C107     Z    -0.00000  -0.00001   0.00001  -0.00001   0.00007   0.00123
    C108     X     0.00001   0.00008  -0.00003  -0.00005  -0.00001  -0.00006
    C108     Y    -0.00011  -0.00060   0.00020   0.00034  -0.00005   0.00016
    C108     Z    -0.00002  -0.00009   0.00003   0.00005  -0.00001  -0.00001
    C109     X    -0.00003  -0.00015   0.00008   0.00010  -0.00017  -0.00047
    C109     Y     0.00000   0.00008  -0.00005  -0.00006   0.00004   0.00072
    C109     Z    -0.00002  -0.00007   0.00004   0.00004  -0.00003  -0.00004
    C110     X     0.00026   0.00053  -0.00017  -0.00019   0.00001  -0.00065
    C110     Y     0.00020   0.00045  -0.00015  -0.00016  -0.00015   0.00011
    C110     Z     0.00021   0.00044  -0.00014  -0.00015  -0.00008  -0.00045
    C111     X     0.00010   0.00038  -0.00011  -0.00020   0.00001   0.00009
    C111     Y    -0.00005  -0.00021   0.00007   0.00010   0.00011  -0.00001
    C111     Z     0.00005   0.00019  -0.00005  -0.00010  -0.00002   0.00011
    C112     X    -0.00002  -0.00022   0.00008   0.00017   0.00014  -0.00002
    C112     Y    -0.00000  -0.00014   0.00005   0.00012   0.00003  -0.00018
    C112     Z    -0.00001  -0.00016   0.00006   0.00012   0.00015  -0.00000
    H113     X     0.00042   0.00177  -0.00101  -0.00106   0.00103  -0.00061
    H113     Y    -0.00021  -0.00092   0.00054   0.00057  -0.00035  -0.00236
    H113     Z     0.00019   0.00075  -0.00047  -0.00041   0.00027  -0.00150
    H114     X    -0.00299  -0.00623   0.00206   0.00217   0.00059   0.00042
    H114     Y    -0.00246  -0.00521   0.00173   0.00186   0.00057   0.00147
    H114     Z    -0.00248  -0.00522   0.00173   0.00185   0.00048   0.00038
    H115     X    -0.00095  -0.00393   0.00112   0.00206   0.00022   0.00012
    H115     Y     0.00052   0.00215  -0.00061  -0.00113  -0.00015  -0.00072
    H115     Z    -0.00047  -0.00194   0.00056   0.00103   0.00012  -0.00000
    H116     X     0.00011   0.00225  -0.00084  -0.00178  -0.00167   0.00021
    H116     Y     0.00007   0.00166  -0.00062  -0.00135  -0.00130   0.00020
    H116     Z     0.00009   0.00171  -0.00065  -0.00135  -0.00145   0.00021
    H117     X    -0.00014  -0.00087   0.00029   0.00050  -0.00006   0.00007
    H117     Y     0.00118   0.00665  -0.00219  -0.00374   0.00031  -0.00076
    H117     Z     0.00018   0.00096  -0.00032  -0.00053   0.00002  -0.00031
    Na119    X    -0.00002  -0.00004   0.00001   0.00001  -0.00000   0.00005
    Na119    Y     0.00000   0.00000   0.00000   0.00000   0.00000  -0.00004
    Na119    Z    -0.00002  -0.00006   0.00003   0.00003   0.00000   0.00006
    Br3      X     0.00008   0.00014  -0.00006  -0.00003   0.00001  -0.00000
    Br3      Y    -0.00003  -0.00005   0.00002   0.00001   0.00000  -0.00000
    Br3      Z    -0.00001  -0.00001   0.00000  -0.00000  -0.00000   0.00000
  
  Number of imaginary frequencies:   1
   
  Writing vibrational animation data to L_Ar_Br_N_Na_N_trans_PL747_4.vib
  Writing IR vibrational spectrum data to L_Ar_Br_N_Na_N_trans_PL747_4_vib.spm
  rotational symmetry number:  1

  rotational temperatures (K):      0.004638      0.002887      0.002602
   
  The Quasi-Harmonic approximation will be applied to compute
  vibrational constributions to thermodynamic properties.
  Frequencies will be adjusted to a minimum value of  100.00 cm^-1.

    1 vibrational frequencies below    0.0 cm-1 not included in zero-point
  energy or thermochemical analysis.  Set freqcut to change the frequency
  cutoff value.

  vibrational temperatures:
       mode:      2        3        4        5        6        7
  temp. (K):   143.88   143.88   143.88   143.88   143.88   143.88
   
       mode:      8        9       10       11       12       13
  temp. (K):   143.88   143.88   143.88   143.88   143.88   143.88
   
       mode:     14       15       16       17       18       19
  temp. (K):   143.88   143.88   143.88   144.82   153.96   165.19
   
       mode:     20       21       22       23       24       25
  temp. (K):   178.88   187.60   192.37   204.16   207.79   227.06
   
       mode:     26       27       28       29       30       31
  temp. (K):   236.70   246.57   256.96   266.40   279.81   292.89
   
       mode:     32       33       34       35       36       37
  temp. (K):   300.20   317.57   326.65   336.25   353.03   359.43
   
       mode:     38       39       40       41       42       43
  temp. (K):   366.22   369.96   377.11   399.43   405.28   415.44
   
       mode:     44       45       46       47       48       49
  temp. (K):   438.48   454.34   461.26   477.55   499.31   506.58
   
       mode:     50       51       52       53       54       55
  temp. (K):   536.84   559.98   569.62   578.21   586.67   591.02
   
       mode:     56       57       58       59       60       61
  temp. (K):   594.91   607.09   612.03   615.24   618.97   629.21
   
       mode:     62       63       64       65       66       67
  temp. (K):   674.17   703.48   705.93   711.31   739.01   765.83
   
       mode:     68       69       70       71       72       73
  temp. (K):   791.93   802.93   811.48   834.73   842.91   862.09
   
       mode:     74       75       76       77       78       79
  temp. (K):   897.52   901.08   904.93   909.40   913.19   956.88
   
       mode:     80       81       82       83       84       85
  temp. (K):  1023.50  1027.84  1035.80  1038.27  1055.73  1095.25
   
       mode:     86       87       88       89       90       91
  temp. (K):  1106.50  1128.60  1170.56  1195.67  1196.49  1198.44
   
       mode:     92       93       94       95       96       97
  temp. (K):  1201.89  1202.91  1212.40  1214.32  1244.96  1259.40
   
       mode:     98       99      100      101      102      103
  temp. (K):  1307.31  1308.81  1323.78  1365.57  1368.33  1370.01
   
       mode:    104      105      106      107      108      109
  temp. (K):  1372.82  1377.79  1384.89  1388.73  1401.07  1412.50
   
       mode:    110      111      112      113      114      115
  temp. (K):  1414.94  1418.24  1433.19  1440.65  1441.44  1450.60
   
       mode:    116      117      118      119      120      121
  temp. (K):  1451.68  1462.48  1463.39  1468.91  1480.88  1483.69
   
       mode:    122      123      124      125      126      127
  temp. (K):  1500.45  1507.92  1515.18  1520.62  1526.96  1529.08
   
       mode:    128      129      130      131      132      133
  temp. (K):  1532.53  1538.81  1558.03  1602.18  1603.13  1614.86
   
       mode:    134      135      136      137      138      139
  temp. (K):  1620.01  1658.10  1722.43  1724.05  1727.93  1731.92
   
       mode:    140      141      142      143      144      145
  temp. (K):  1737.03  1741.81  1748.32  1754.66  1754.98  1767.24
   
       mode:    146      147      148      149      150      151
  temp. (K):  1772.82  1773.36  1789.00  1790.73  1799.59  1836.93
   
       mode:    152      153      154      155      156      157
  temp. (K):  1855.09  1873.90  1902.29  1925.96  1930.12  1948.09
   
       mode:    158      159      160      161      162      163
  temp. (K):  1976.35  1984.43  1986.47  2011.24  2044.67  2048.79
   
       mode:    164      165      166      167      168      169
  temp. (K):  2050.94  2052.90  2059.00  2064.75  2096.40  2109.53
   
       mode:    170      171      172      173      174      175
  temp. (K):  2135.49  2145.37  2155.62  2164.23  2168.21  2171.78
   
       mode:    176      177      178      179      180      181
  temp. (K):  2178.21  2179.90  2182.25  2185.34  2192.59  2199.33
   
       mode:    182      183      184      185      186      187
  temp. (K):  2202.62  2210.76  2213.20  2213.33  2216.63  2217.93
   
       mode:    188      189      190      191      192      193
  temp. (K):  2219.91  2236.76  2239.20  2354.69  2360.00  2361.36
   
       mode:    194      195      196      197      198      199
  temp. (K):  2365.75  2371.22  2378.17  2392.86  2399.17  2408.30
   
       mode:    200      201      202      203      204      205
  temp. (K):  4373.51  4382.15  4383.32  4383.93  4390.05  4393.64
   
       mode:    206      207      208      209      210      211
  temp. (K):  4411.55  4481.25  4492.73  4497.10  4506.18  4507.95
   
       mode:    212      213      214      215      216      217
  temp. (K):  4518.35  4545.16  4545.70  4555.33  4557.57  4566.94
   
       mode:    218      219      220      221      222      223
  temp. (K):  4572.62  4572.89  4573.76  4578.65  4581.93  4583.99
   
       mode:    224      225      226      227      228      229
  temp. (K):  4589.02  4594.68  4595.02  4595.29  4596.66  4603.00
   
       mode:    230      231      232      233      234      235
  temp. (K):  4605.49  4607.22  4611.55  4612.74  4620.00  4620.63
   
       mode:    236      237      238      239      240
  temp. (K):  4622.86  4623.21  4625.62  4638.80  4992.90
   
   
  Thermodynamic properties calculated assuming an ideal gas

  In the table below, the units for temperature
  are kelvins, the units for U, H, and G are
  kcal/mol and the units for Cv and S are cal/(mol K)

  The zero point energy (ZPE):    426.102 kcal/mol
  is not included in U, H, or G in the table below
  
 
  =============================================================================
  Thermodynamic properties for P = 1.00E+00 atm, calculated at   1 temperatures


  T =   298.15 K, P = 1.00E+00 atm
   
                  U         Cv          S          H          G        ln(Q)
              =========  =========  =========  =========  =========  =========
  trans.          0.889      2.981     45.656      1.481    -12.131   20.47506
  rot.            0.889      2.981     38.164      0.889    -10.490   17.70496
  vib.           24.475    158.355    149.972     24.475    -20.239   34.15933
  elec.           0.000      0.000      0.000      0.000      0.000    0.00000
  ----------------------------------------------------------------------------
  total          26.253    164.317    233.793     26.845    -42.860   72.33936
   
   Total internal energy, Utot(SCFE + ZPE + U):   -2155.521229 hartrees
   Total enthalpy, Htot (Utot + nRT), with n=1:   -2155.520285 hartrees
    Total Gibbs free energy, Gtot (Htot - T*S):   -2155.631367 hartrees
   
  end of program freq
   
 Time(freq)  user:       0.946  user+sys:       0.946  wallclock:       0.606
  
  start of program post
  
  Writing input files for PBF
  end of program post
   
 Time(post)  user:       0.222  user+sys:       0.222  wallclock:       0.077

 Total cpu seconds     user:  112317.285   user+sys:  112317.285
  
 Total elapsed time:    13780 seconds

Job L_Ar_Br_N_Na_N_trans_PL747_4 completed on bp1-compute190 at Wed Dec 10 20:02:13 2025
