Job ox_add_Ar_trans_L1_PL747 started on bp1-compute055.data.bp.acrc.priv at Thu Apr  3 16:02:03 2025
jobid: bp1-compute055-0-67eea2e5

  +--------------------------------------------------------------------+
  |  Jaguar version 12.5, release 138                                  |
  |                                                                    |
  |  Copyright Schrodinger, Inc.                                       |
  |  All Rights Reserved.                                              |
  |                                                                    |
  |  The following have contributed to Jaguar (listed alphabetically): |
  |  Ty Balduf, Mike Beachy, Chandler Bennett, Art Bochevarov,         |
  |  Dale Braden, Yixiang Cao, Alan Chien, Chris Cortis,               |
  |  Rich Friesner, Jim Furness, Bill Goddard, Hod Greeley,            |
  |  Tom Hughes, Leif Jacobson, Jean-Marc Langlois, Daniel Levine,     |
  |  Rob Murphy, Dean Philipp, Tom Pollard, Murco Ringnalda,           |
  |  Daniel Mainz, Pablo Videla, Mark Watson, Haoyu Yu.                |
  |                                                                    |
  |  Use of this program should be acknowledged in publications as:    |
  |                                                                    |
  |  Jaguar, version 12.5, Schrodinger, Inc., New York, NY, 2024.      |
  |                                                                    |
  |  A. D. Bochevarov, E. Harder, T. F. Hughes, J. R. Greenwood,       |
  |  D. A. Braden, D. M. Philipp, D. Rinaldo, M. D. Halls,             |
  |  J. Zhang, R. A. Friesner, "Jaguar: A High-Performance Quantum     |
  |  Chemistry Software Program with Strengths in Life and Materials   |
  |  Sciences", Int. J. Quantum Chem., 2013, 113(18), 2110-2142.       |
  +--------------------------------------------------------------------+
  
  start of program pre
  
  Job name: ox_add_Ar_trans_L1_PL747
  Executables used: /software/local/apps/schrodinger2024-3/jaguar-v12.5/bin/Linux-x86_64
  Temporary files : /tmp/ar21627/ox_add_Ar_trans_L1_PL747#bp1-compute055-0-67eea2e5
  Basis file : using default basis file from /software/local/apps/schrodinger2024-3
  Maestro file (input):  ox_add_Ar_trans_L1_PL747.mae
  Maestro file (output): ox_add_Ar_trans_L1_PL747.01.mae
  
 Contents of input file: &gen and (if present) &atomic sections only
 ----------------Contents start----------------
&gen
dftname=b3pw91-d3
basis=6-31G*
numd=5
ip11=2
iaccg=3
isolv=2
igeopt=1
solvent=benzene
ifreq=1
&
&atomic
atom basis
Pd2 lacv3p*
Br3 lacv3p*
&
 -----------------Contents end-----------------
 
  PS calculation requested. Using PS version of 6-31g*
  basis set:               non_standard                    
  net molecular charge:    0
  multiplicity:            1
  
  Using up to   4 threads per process
  
  This run will use ECP on            2  atoms
  number of basis functions....          548
  
 Input geometry:
                                   angstroms
  atom               x                 y                 z
  P1            0.0000000000      0.0000000000      0.0000000000 
  Pd2           0.0000000000      0.0000000000      2.2761010486 
  Br3          -0.2635830236     -0.1873187048      4.8111435857 
  C73           3.1251291770      3.5723777110      2.2279252576 
  C74           1.8845350156      3.7741104936      1.6418108827 
  C75           0.9366433058      2.7507475631      1.7018174885 
  C76           1.2304331728      1.5383366937      2.3383578262 
  C77           2.4754382730      1.3837232236      2.9598281293 
  C78           3.4333208516      2.3994356177      2.9016279143 
  F79           4.0617565518      4.5477737416      2.1413929409 
  H80           1.6806799849      4.7084679522      1.1251304941 
  H82           2.7051232395      0.4666262360      3.4933165131 
  H83           4.4079439949      2.2903278814      3.3712966916 
  H14          -0.0364441825      2.8890896220      1.2541991077 
  C6            2.5516062693     -0.3162851035     -1.4836526479 
  C7            1.8417756257      0.2769820460     -0.2399989394 
  C8            2.6487066377     -0.3001173649      0.9570050755 
  C9            2.1446889363      1.7860420632     -0.2510619744 
  C10          -1.0442422168      1.0525620250     -1.2245682407 
  C11          -1.4860189141      2.4068635562     -0.6186336630 
  C12          -2.3367912708      0.3331721453     -1.7052096288 
  C13          -0.3250889897      1.4259492335     -2.5340722034 
  C14          -0.6347117209     -1.6922415293     -0.3828062666 
  C15          -1.6302748092     -2.3927843535      0.2399897583 
  C16           0.0498481859     -2.2307293172     -1.6154187915 
  C17          -2.5205641274     -1.8331540020      1.3175461603 
  C18          -3.2361967390     -2.6805096353      2.2022542455 
  C19          -4.0600273760     -2.2250561135      3.2408307573 
  C20          -4.2109305406     -0.8520848934      3.4784760050 
  C21          -3.5076587701      0.0284255940      2.6542490346 
  C22          -2.6925367435     -0.4708665801      1.6203982685 
  C23          -1.8623523873     -3.8259187935     -0.1349257984 
  C24          -3.1554951512     -4.4027058888     -0.0568525067 
  C25          -3.4421022397     -5.7330231762     -0.4105038771 
  C26          -2.4188354248     -6.5759441177     -0.8636145833 
  C27          -1.1216326943     -6.0523033683     -0.9583005987 
  C28          -0.8732314023     -4.7159716000     -0.6057184053 
  H29           2.1654997816      0.0462033304     -2.4502582942 
  H30           2.5399184047     -1.4321461371     -1.5064023166 
  H31           3.6322228103     -0.0508904153     -1.5044745336 
  H32           2.3883405080      0.1887872611      1.9149751925 
  H33           3.7400522352     -0.1478247367      0.8342380508 
  H34           2.4844970294     -1.3952156707      1.0491728852 
  H35           1.6014012315      2.3261930011     -1.0556236154 
  H36           3.2228806589      1.9981088886     -0.3973878812 
  H37           1.8790847629      2.2667588865      0.7177949597 
  H38          -0.6157427779      3.0122505336     -0.2973626647 
  H39          -2.1831377681      2.2877233763      0.2375526023 
  H40          -2.0479247989      3.0245050227     -1.3585909559 
  H41          -3.0368992754      0.0578162296     -0.8875143619 
  H42          -2.1139318149     -0.5972890217     -2.2671034618 
  H43          -2.9294144919      0.9726865205     -2.3898585036 
  H44           0.5506695379      2.0950297279     -2.3609297955 
  H45          -0.9761293915      2.0030120040     -3.2222182302 
  H46          -0.0026444036      0.5379374497     -3.1141278566 
  H47          -0.5594442697     -2.9507240190     -2.2036197206 
  H48           1.0543217752     -2.6543280660     -1.3763938799 
  H49           0.2089887201     -1.4238140282     -2.3645129156 
  H50          -3.1419181795     -3.7712210074      2.1619894233 
  H51          -4.5804963435     -2.9436655974      3.8935462111 
  H52          -4.8535231849     -0.4799595536      4.2930319729 
  H53          -3.5899332507      1.1152026592      2.8130272456 
  H54          -2.1961053731      0.2994317511      1.0380707185 
  H55          -4.0307812875     -3.7991870334      0.2351071833 
  H56          -4.4739698759     -6.1207038115     -0.3304170105 
  H57          -2.6247252347     -7.6205234697     -1.1315014316 
  H58          -0.3025493460     -6.7027232928     -1.3096642141 
  H59           0.1864454950     -4.4198743842     -0.6757991606 
   
  principal moments of inertia:
        amu*angstrom^2:              3435.46719              6368.45681              7777.12350
                g*cm^2:          5.70472677E-37          1.05750700E-36          1.29142158E-36
   
  rotational constants:
               cm^(-1):      0.00490694      0.00264705      0.00216759
                   GHz:      0.14710634      0.07935659      0.06498277
   
  Molecular weight:     618.07 amu
   
  Stoichiometry: PdC29PH35BrF
  Molecular Point Group: C1      
  Point Group used: C1
  
 
Number of optimization coordinates:   224
Number of independent coordinates:    224
Number of non-redundant coordinates:  198
Number of frozen coordinates:           0
Number of harmonic constraints:         0
 
Number of geometric degrees of freedom:   198
Maximum geometric degrees of freedom:     198
 " " " " " excluding dummy atoms:         198
 
 
  bond lengths (angstroms):
 
 P1      -Pd2     :   2.276101      P1      -C7      :   1.877886
 P1      -C10     :   1.922991      P1      -C14     :   1.847453
 Pd2     -Br3     :   2.555583      Pd2     -C76     :   1.970868
 C73     -C74     :   1.386831      C73     -C78     :   1.387318
 C73     -F79     :   1.355048      C74     -C75     :   1.396199
 C74     -H80     :   1.086986      C75     -C76     :   1.400513
 C75     -H14     :   1.080000      C76     -C77     :   1.400060
 C77     -C78     :   1.397354      C77     -H82     :   1.085556
 C78     -H83     :   1.087375      C6      -C7      :   1.550000
 C6      -H29     :   1.102181      C6      -H30     :   1.116154
 C6      -H31     :   1.112924      C7      -C8      :   1.554670
 C7      -C9      :   1.539201      C8      -H32     :   1.106583
 C8      -H33     :   1.108738      C8      -H34     :   1.111171
 C9      -H35     :   1.110965      C9      -H36     :   1.108549
 C9      -H37     :   1.113696      C10     -C11     :   1.548049
 C10     -C12     :   1.555385      C10     -C13     :   1.539935
 C11     -H38     :   1.107740      C11     -H39     :   1.110506
 C11     -H40     :   1.115686      C12     -H41     :   1.111124
 C12     -H42     :   1.109572      C12     -H43     :   1.108569
 C13     -H44     :   1.115616      C13     -H45     :   1.109234
 C13     -H46     :   1.108603      C14     -C15     :   1.367399
 C14     -C16     :   1.509280      C15     -C17     :   1.505632
 C15     -C23     :   1.499432      C16     -H47     :   1.111580
 C16     -H48     :   1.116036      C16     -H49     :   1.112466
 C17     -C18     :   1.418749      C17     -C22     :   1.406101
 C18     -C19     :   1.401705      C18     -H50     :   1.095519
 C19     -C20     :   1.401534      C19     -H51     :   1.101510
 C20     -C21     :   1.396152      C20     -H52     :   1.102227
 C21     -C22     :   1.408036      C21     -H53     :   1.101392
 C22     -H54     :   1.085776      C23     -C24     :   1.418096
 C23     -C28     :   1.411453      C24     -C25     :   1.406043
 C24     -H55     :   1.102543      C25     -C26     :   1.401035
 C25     -H56     :   1.105197      C26     -C27     :   1.402106
 C26     -H57     :   1.097862      C27     -C28     :   1.404208
 C27     -H58     :   1.103359      C28     -H59     :   1.102497
 
  bond angles:
 
 C7      -P1      -Pd2     :  97.342638  C10     -P1      -Pd2     : 129.553898
 C10     -P1      -C7      : 111.744572  C14     -P1      -Pd2     : 101.958762
 C14     -P1      -C7      : 116.460285  C14     -P1      -C10     : 100.536212
 Br3     -Pd2     -P1      : 172.730742  C76     -Pd2     -P1      :  91.810189
 C76     -Pd2     -Br3     :  95.179054  C78     -C73     -C74     : 121.799250
 F79     -C73     -C74     : 119.119355  F79     -C73     -C78     : 119.081372
 C75     -C74     -C73     : 118.851227  H80     -C74     -C73     : 119.583608
 H80     -C74     -C75     : 121.543804  C76     -C75     -C74     : 120.772927
 H14     -C75     -C74     : 120.000000  H14     -C75     -C76     : 119.227073
 C75     -C76     -Pd2     : 122.031368  C77     -C76     -Pd2     : 118.881056
 C77     -C76     -C75     : 118.939883  C78     -C77     -C76     : 120.718410
 H82     -C77     -C76     : 119.973007  H82     -C77     -C78     : 119.308555
 C77     -C78     -C73     : 118.849083  H83     -C78     -C73     : 119.584134
 H83     -C78     -C77     : 121.566745  H29     -C6      -C7      : 114.667671
 H30     -C6      -C7      : 113.216762  H30     -C6      -H29     : 107.893773
 H31     -C6      -C7      : 111.616907  H31     -C6      -H29     : 104.199965
 H31     -C6      -H30     : 104.370416  C6      -C7      -P1      : 119.685427
 C8      -C7      -P1      : 110.848869  C8      -C7      -C6      : 103.768090
 C9      -C7      -P1      : 109.788049  C9      -C7      -C6      : 106.222348
 C9      -C7      -C8      : 105.505012  H32     -C8      -C7      : 112.359211
 H33     -C8      -C7      : 112.002951  H33     -C8      -H32     : 105.472016
 H34     -C8      -C7      : 110.670603  H34     -C8      -H32     : 109.198763
 H34     -C8      -H33     : 106.858970  H35     -C9      -C7      : 112.683762
 H36     -C9      -C7      : 112.328328  H36     -C9      -H35     : 106.680106
 H37     -C9      -C7      : 111.715700  H37     -C9      -H35     : 107.669515
 H37     -C9      -H36     : 105.320351  C11     -C10     -P1      : 112.616616
 C12     -C10     -P1      : 113.259062  C12     -C10     -C11     : 106.764108
 C13     -C10     -P1      : 114.874709  C13     -C10     -C11     : 104.714106
 C13     -C10     -C12     : 103.736378  H38     -C11     -C10     : 111.557046
 H39     -C11     -C10     : 112.772054  H39     -C11     -H38     : 109.159948
 H40     -C11     -C10     : 111.619353  H40     -C11     -H38     : 106.587826
 H40     -C11     -H39     : 104.748381  H41     -C12     -C10     : 114.256512
 H42     -C12     -C10     : 112.174739  H42     -C12     -H41     : 106.942602
 H43     -C12     -C10     : 111.609504  H43     -C12     -H41     : 105.107199
 H43     -C12     -H42     : 106.163418  H44     -C13     -C10     : 112.336163
 H45     -C13     -C10     : 112.308433  H45     -C13     -H44     : 104.182669
 H46     -C13     -C10     : 112.739674  H46     -C13     -H44     : 109.468348
 H46     -C13     -H45     : 105.237954  C15     -C14     -P1      : 128.684936
 C16     -C14     -P1      : 109.889446  C16     -C14     -C15     : 121.292777
 C17     -C15     -C14     : 124.475500  C23     -C15     -C14     : 119.240168
 C23     -C15     -C17     : 116.275301  H47     -C16     -C14     : 114.496636
 H48     -C16     -C14     : 111.637587  H48     -C16     -H47     : 111.150763
 H49     -C16     -C14     : 110.856140  H49     -C16     -H47     : 101.064513
 H49     -C16     -H48     : 106.904158  C18     -C17     -C15     : 121.503772
 C22     -C17     -C15     : 125.914389  C22     -C17     -C18     : 112.497504
 C19     -C18     -C17     : 124.362798  H50     -C18     -C17     : 121.891101
 H50     -C18     -C19     : 113.660382  C20     -C19     -C18     : 120.478961
 H51     -C19     -C18     : 120.316905  H51     -C19     -C20     : 119.192149
 C21     -C20     -C19     : 117.611883  H52     -C20     -C19     : 121.252466
 H52     -C20     -C21     : 121.132845  C22     -C21     -C20     : 120.095366
 H53     -C21     -C20     : 119.971301  H53     -C21     -C22     : 119.933325
 C21     -C22     -C17     : 124.924857  H54     -C22     -C17     : 121.057891
 H54     -C22     -C21     : 114.010856  C24     -C23     -C15     : 121.072537
 C28     -C23     -C15     : 125.285237  C28     -C23     -C24     : 113.635329
 C25     -C24     -C23     : 123.838833  H55     -C24     -C23     : 121.055335
 H55     -C24     -C25     : 115.004393  C26     -C25     -C24     : 120.112978
 H56     -C25     -C24     : 120.263401  H56     -C25     -C26     : 119.623423
 C27     -C26     -C25     : 118.220572  H57     -C26     -C25     : 120.956461
 H57     -C26     -C27     : 120.821812  C28     -C27     -C26     : 120.140430
 H58     -C27     -C26     : 119.219895  H58     -C27     -C28     : 120.639506
 C27     -C28     -C23     : 124.048634  H59     -C28     -C23     : 121.695734
 H59     -C28     -C27     : 114.183109
 
  torsional angles:
 
 P1      -Pd2     -C76     -C75     :  56.208904
 P1      -Pd2     -C76     -C77     :-119.324774
 P1      -C7      -C6      -H29     :  60.423601
 P1      -C7      -C6      -H30     : -63.971781
 P1      -C7      -C6      -H31     : 178.610880
 P1      -C7      -C8      -H32     : -61.557565
 P1      -C7      -C8      -H33     : 179.931233
 P1      -C7      -C8      -H34     :  60.802319
 P1      -C7      -C9      -H35     : -59.094664
 P1      -C7      -C9      -H36     :-179.623589
 P1      -C7      -C9      -H37     :  62.275757
 P1      -C10     -C11     -H38     :  58.116114
 P1      -C10     -C11     -H39     : -65.152471
 P1      -C10     -C11     -H40     : 177.243530
 P1      -C10     -C12     -H41     :  59.561348
 P1      -C10     -C12     -H42     : -62.364252
 P1      -C10     -C12     -H43     : 178.637193
 P1      -C10     -C13     -H44     : -64.845351
 P1      -C10     -C13     -H45     : 178.096263
 P1      -C10     -C13     -H46     :  59.410745
 P1      -C14     -C15     -C17     :   6.457709
 P1      -C14     -C15     -C23     :-172.406568
 P1      -C14     -C16     -H47     :-151.247671
 P1      -C14     -C16     -H48     :  81.355884
 P1      -C14     -C16     -H49     : -37.714256
 Pd2     -P1      -C7      -C6      : 149.064689
 Pd2     -P1      -C7      -C8      :  28.384917
 Pd2     -P1      -C7      -C9      : -87.784384
 Pd2     -P1      -C10     -C11     :  26.616122
 Pd2     -P1      -C10     -C12     : -94.660115
 Pd2     -P1      -C10     -C13     : 146.381420
 Pd2     -P1      -C14     -C15     :  40.002308
 Pd2     -P1      -C14     -C16     :-144.206813
 Pd2     -C76     -C75     -C74     :-173.175344
 Pd2     -C76     -C75     -H14     :   6.824656
 Pd2     -C76     -C77     -C78     : 173.082800
 Pd2     -C76     -C77     -H82     :  -6.856619
 Br3     -Pd2     -P1      -C7      :-153.152539
 Br3     -Pd2     -P1      -C10     :  80.627340
 Br3     -Pd2     -P1      -C14     : -34.040359
 Br3     -Pd2     -C76     -C75     :-121.790841
 Br3     -Pd2     -C76     -C77     :  62.675482
 C73     -C74     -C75     -C76     :  -0.186500
 C73     -C74     -C75     -H14     : 179.813500
 C73     -C78     -C77     -C76     :   0.652883
 C73     -C78     -C77     -H82     :-179.407300
 C74     -C73     -C78     -C77     :   1.604524
 C74     -C73     -C78     -H83     :-178.325638
 C74     -C75     -C76     -C77     :   2.355796
 C75     -C74     -C73     -C78     :  -1.835403
 C75     -C74     -C73     -F79     : 178.220350
 C75     -C76     -C77     -C78     :  -2.590835
 C75     -C76     -C77     -H82     : 177.469747
 C76     -Pd2     -P1      -C7      :  42.793017
 C76     -Pd2     -P1      -C10     : -83.427104
 C76     -Pd2     -P1      -C14     : 161.905197
 C76     -C75     -C74     -H80     : 178.124774
 C76     -C77     -C78     -H83     :-179.418397
 C77     -C76     -C75     -H14     :-177.644204
 C77     -C78     -C73     -F79     :-178.451208
 C78     -C73     -C74     -H80     : 179.819533
 F79     -C73     -C74     -H80     :  -0.124714
 F79     -C73     -C78     -H83     :   1.618630
 H80     -C74     -C75     -H14     :  -1.875226
 H82     -C77     -C78     -H83     :   0.521420
 C6      -C7      -P1      -C10     : -72.977571
 C6      -C7      -P1      -C14     :  41.756994
 C6      -C7      -C8      -H32     : 168.730180
 C6      -C7      -C8      -H33     :  50.218977
 C6      -C7      -C8      -H34     : -68.909937
 C6      -C7      -C9      -H35     :  71.659901
 C6      -C7      -C9      -H36     : -48.869024
 C6      -C7      -C9      -H37     :-166.969678
 C7      -P1      -C10     -C11     : -93.906048
 C7      -P1      -C10     -C12     : 144.817715
 C7      -P1      -C10     -C13     :  25.859250
 C7      -P1      -C14     -C15     : 144.559309
 C7      -P1      -C14     -C16     : -39.649812
 C8      -C7      -P1      -C10     : 166.342657
 C8      -C7      -P1      -C14     : -78.922778
 C8      -C7      -C6      -H29     :-175.418780
 C8      -C7      -C6      -H30     :  60.185837
 C8      -C7      -C6      -H31     : -57.231501
 C8      -C7      -C9      -H35     :-178.588850
 C8      -C7      -C9      -H36     :  60.882225
 C8      -C7      -C9      -H37     : -57.218429
 C9      -C7      -P1      -C10     :  50.173356
 C9      -C7      -P1      -C14     : 164.907921
 C9      -C7      -C6      -H29     : -64.445286
 C9      -C7      -C6      -H30     : 171.159331
 C9      -C7      -C6      -H31     :  53.741993
 C9      -C7      -C8      -H32     :  57.232106
 C9      -C7      -C8      -H33     : -61.279096
 C9      -C7      -C8      -H34     : 179.591989
 C10     -P1      -C14     -C15     : -94.544224
 C10     -P1      -C14     -C16     :  81.246655
 C11     -C10     -P1      -C14     : 141.891313
 C11     -C10     -C12     -H41     : -64.954754
 C11     -C10     -C12     -H42     : 173.119646
 C11     -C10     -C12     -H43     :  54.121091
 C11     -C10     -C13     -H44     :  59.211664
 C11     -C10     -C13     -H45     : -57.846722
 C11     -C10     -C13     -H46     :-176.532241
 C12     -C10     -P1      -C14     :  20.615076
 C12     -C10     -C11     -H38     :-176.975318
 C12     -C10     -C11     -H39     :  59.756098
 C12     -C10     -C11     -H40     : -57.847901
 C12     -C10     -C13     -H44     : 171.000437
 C12     -C10     -C13     -H45     :  53.942051
 C12     -C10     -C13     -H46     : -64.743467
 C13     -C10     -P1      -C14     : -98.343389
 C13     -C10     -C11     -H38     : -67.371767
 C13     -C10     -C11     -H39     : 169.359648
 C13     -C10     -C11     -H40     :  51.755650
 C13     -C10     -C12     -H41     :-175.241344
 C13     -C10     -C12     -H42     :  62.833056
 C13     -C10     -C12     -H43     : -56.165499
 C14     -C15     -C17     -C18     :-160.235098
 C14     -C15     -C17     -C22     :  16.168980
 C14     -C15     -C23     -C24     :-149.696363
 C14     -C15     -C23     -C28     :  29.285990
 C15     -C14     -C16     -H47     :  24.907935
 C15     -C14     -C16     -H48     :-102.488509
 C15     -C14     -C16     -H49     : 138.441351
 C15     -C17     -C18     -C19     : 178.726145
 C15     -C17     -C18     -H50     :   2.308983
 C15     -C17     -C22     -C21     :-178.439997
 C15     -C17     -C22     -H54     :   2.536328
 C15     -C23     -C24     -C25     : 179.109877
 C15     -C23     -C24     -H55     :   2.957507
 C15     -C23     -C28     -C27     :-179.550474
 C15     -C23     -C28     -H59     :   3.728784
 C16     -C14     -C15     -C17     :-168.909534
 C16     -C14     -C15     -C23     :  12.226189
 C17     -C15     -C23     -C24     :  31.347763
 C17     -C15     -C23     -C28     :-149.669883
 C17     -C18     -C19     -C20     :  -0.866591
 C17     -C18     -C19     -H51     :-179.597121
 C17     -C22     -C21     -C20     :   0.617818
 C17     -C22     -C21     -H53     :-179.415086
 C18     -C17     -C15     -C23     :  18.659704
 C18     -C17     -C22     -C21     :  -1.758124
 C18     -C17     -C22     -H54     : 179.218201
 C18     -C19     -C20     -C21     :  -0.456317
 C18     -C19     -C20     -H52     :-179.853482
 C19     -C18     -C17     -C22     :   1.877878
 C19     -C20     -C21     -C22     :   0.577604
 C19     -C20     -C21     -H53     :-179.389480
 C20     -C19     -C18     -H50     : 175.812513
 C20     -C21     -C22     -H54     : 179.702229
 C21     -C20     -C19     -H51     : 178.288383
 C22     -C17     -C15     -C23     :-164.936218
 C22     -C17     -C18     -H50     :-174.539284
 C22     -C21     -C20     -H52     : 179.975530
 C23     -C24     -C25     -C26     :   0.421801
 C23     -C24     -C25     -H56     :-179.740833
 C23     -C28     -C27     -C26     :   0.549223
 C23     -C28     -C27     -H58     :-179.299700
 C24     -C23     -C28     -C27     :  -0.501907
 C24     -C23     -C28     -H59     :-177.222650
 C24     -C25     -C26     -C27     :  -0.381911
 C24     -C25     -C26     -H57     : 179.230315
 C25     -C24     -C23     -C28     :   0.016620
 C25     -C26     -C27     -C28     :  -0.075670
 C25     -C26     -C27     -H58     : 179.775393
 C26     -C25     -C24     -H55     : 176.785067
 C26     -C27     -C28     -H59     : 177.490866
 C27     -C26     -C25     -H56     : 179.779681
 C28     -C23     -C24     -H55     :-176.135750
 C28     -C27     -C26     -H57     :-179.688441
 H50     -C18     -C19     -H51     :  -2.918018
 H51     -C19     -C20     -H52     :  -1.108782
 H52     -C20     -C21     -H53     :   0.008447
 H53     -C21     -C22     -H54     :  -0.330674
 H55     -C24     -C25     -H56     :  -3.377567
 H56     -C25     -C26     -H57     :  -0.608094
 H57     -C26     -C27     -H58     :   0.162623
 H58     -C27     -C28     -H59     :  -2.358057
 
  nuclear repulsion energy.......          4088.790285214 hartrees
  
  Detected an organometallic with only one TM atom. 
  
  Oxidation state on metal       2 is     2
  Formal multiplet on metal      2 is     1
  Formal charge on ligand        3 is    -1
  Formal multiplet on ligand     3 is     1
  Formal charge on ligand        4 is    -1
  Formal multiplet on ligand     4 is     1
  
 
  Will use High-Quality Initial guess for organometallics
       including d-d repulsion (iguess=30)
 
 Non-default options chosen:
   SCF calculation type: DFT(b3pw91-d3)              
   DFT=Becke_3_Parameter/HF+Slater+Becke88+PW91+PW-GGAIIC (B3PW91-D3)
   Geometry will be optimized in redundant internal coordinates
   Solvation energy will be computed using PBF
     -solute cavity energy will not be included
     -surface area terms will not be included
   Vibrational frequencies and related properties will be computed
      from analytic second derivatives
   IR intensities will be computed
   Thermochemical properties will be computed
   Maximum number of geometry steps: 100
   Scaling standard convergence criteria by a factor of   5.00
   Solvent: benzene                                                         
   Internal dielectric constant:    1.000
   Continuum dielectric constant:   2.283
   Solvent probe molecule radius:   2.600
  
 Non-default print settings:
     11=  2
  
 Temporary integer options set:
     21= -1  73=  2
  
  atom       vdw   vdw2    cov     mass  grid  daf  charge   basis
  P1        2.147  2.074  1.060   30.974    Y    Y      Y    ps_6-31g*
  Pd2       1.450  1.450  1.280  105.903    Y    Y      Y    lacv3p*
  Br3       2.095  2.095  1.140   78.918    Y    Y      Y    lav3p*
  C73       1.949  1.900  0.770   12.000    Y    Y      Y    ps_6-31g*
  C74       1.949  1.900  0.770   12.000    Y    Y      Y    ps_6-31g*
  C75       1.949  1.900  0.770   12.000    Y    Y      Y    ps_6-31g*
  C76       1.949  1.900  0.770   12.000    Y    Y      Y    ps_6-31g*
  C77       1.949  1.900  0.770   12.000    Y    Y      Y    ps_6-31g*
  C78       1.949  1.900  0.770   12.000    Y    Y      Y    ps_6-31g*
  F79       1.736  1.682  0.720   18.998    Y    Y      Y    ps_6-31g*
  H80       1.597  1.150  0.320    1.008    Y    Y      Y    ps_6-31g*
  H82       1.597  1.150  0.320    1.008    Y    Y      Y    ps_6-31g*
  H83       1.597  1.150  0.320    1.008    Y    Y      Y    ps_6-31g*
  H14       1.597  1.150  0.320    1.008    Y    Y      Y    ps_6-31g*
  C6        1.949  1.900  0.770   12.000    Y    Y      Y    ps_6-31g*
  C7        1.949  1.900  0.770   12.000    Y    Y      Y    ps_6-31g*
  C8        1.949  1.900  0.770   12.000    Y    Y      Y    ps_6-31g*
  C9        1.949  1.900  0.770   12.000    Y    Y      Y    ps_6-31g*
  C10       1.949  1.900  0.770   12.000    Y    Y      Y    ps_6-31g*
  C11       1.949  1.900  0.770   12.000    Y    Y      Y    ps_6-31g*
  C12       1.949  1.900  0.770   12.000    Y    Y      Y    ps_6-31g*
  C13       1.949  1.900  0.770   12.000    Y    Y      Y    ps_6-31g*
  C14       1.949  1.900  0.770   12.000    Y    Y      Y    ps_6-31g*
  C15       1.949  1.900  0.770   12.000    Y    Y      Y    ps_6-31g*
  C16       1.949  1.900  0.770   12.000    Y    Y      Y    ps_6-31g*
  C17       1.949  1.900  0.770   12.000    Y    Y      Y    ps_6-31g*
  C18       1.949  1.900  0.770   12.000    Y    Y      Y    ps_6-31g*
  C19       1.949  1.900  0.770   12.000    Y    Y      Y    ps_6-31g*
  C20       1.949  1.900  0.770   12.000    Y    Y      Y    ps_6-31g*
  C21       1.949  1.900  0.770   12.000    Y    Y      Y    ps_6-31g*
  C22       1.949  1.900  0.770   12.000    Y    Y      Y    ps_6-31g*
  C23       1.949  1.900  0.770   12.000    Y    Y      Y    ps_6-31g*
  C24       1.949  1.900  0.770   12.000    Y    Y      Y    ps_6-31g*
  C25       1.949  1.900  0.770   12.000    Y    Y      Y    ps_6-31g*
  C26       1.949  1.900  0.770   12.000    Y    Y      Y    ps_6-31g*
  C27       1.949  1.900  0.770   12.000    Y    Y      Y    ps_6-31g*
  C28       1.949  1.900  0.770   12.000    Y    Y      Y    ps_6-31g*
  H29       1.597  1.150  0.320    1.008    Y    Y      Y    ps_6-31g*
  H30       1.597  1.150  0.320    1.008    Y    Y      Y    ps_6-31g*
  H31       1.597  1.150  0.320    1.008    Y    Y      Y    ps_6-31g*
  H32       1.597  1.150  0.320    1.008    Y    Y      Y    ps_6-31g*
  H33       1.597  1.150  0.320    1.008    Y    Y      Y    ps_6-31g*
  H34       1.597  1.150  0.320    1.008    Y    Y      Y    ps_6-31g*
  H35       1.597  1.150  0.320    1.008    Y    Y      Y    ps_6-31g*
  H36       1.597  1.150  0.320    1.008    Y    Y      Y    ps_6-31g*
  H37       1.597  1.150  0.320    1.008    Y    Y      Y    ps_6-31g*
  H38       1.597  1.150  0.320    1.008    Y    Y      Y    ps_6-31g*
  H39       1.597  1.150  0.320    1.008    Y    Y      Y    ps_6-31g*
  H40       1.597  1.150  0.320    1.008    Y    Y      Y    ps_6-31g*
  H41       1.597  1.150  0.320    1.008    Y    Y      Y    ps_6-31g*
  H42       1.597  1.150  0.320    1.008    Y    Y      Y    ps_6-31g*
  H43       1.597  1.150  0.320    1.008    Y    Y      Y    ps_6-31g*
  H44       1.597  1.150  0.320    1.008    Y    Y      Y    ps_6-31g*
  H45       1.597  1.150  0.320    1.008    Y    Y      Y    ps_6-31g*
  H46       1.597  1.150  0.320    1.008    Y    Y      Y    ps_6-31g*
  H47       1.597  1.150  0.320    1.008    Y    Y      Y    ps_6-31g*
  H48       1.597  1.150  0.320    1.008    Y    Y      Y    ps_6-31g*
  H49       1.597  1.150  0.320    1.008    Y    Y      Y    ps_6-31g*
  H50       1.597  1.150  0.320    1.008    Y    Y      Y    ps_6-31g*
  H51       1.597  1.150  0.320    1.008    Y    Y      Y    ps_6-31g*
  H52       1.597  1.150  0.320    1.008    Y    Y      Y    ps_6-31g*
  H53       1.597  1.150  0.320    1.008    Y    Y      Y    ps_6-31g*
  H54       1.597  1.150  0.320    1.008    Y    Y      Y    ps_6-31g*
  H55       1.597  1.150  0.320    1.008    Y    Y      Y    ps_6-31g*
  H56       1.597  1.150  0.320    1.008    Y    Y      Y    ps_6-31g*
  H57       1.597  1.150  0.320    1.008    Y    Y      Y    ps_6-31g*
  H58       1.597  1.150  0.320    1.008    Y    Y      Y    ps_6-31g*
  H59       1.597  1.150  0.320    1.008    Y    Y      Y    ps_6-31g*
 
  atom      formal  2spin      esp    mulk    frag
  P1           0       0        Y    0.000       0
  Pd2          2       0        Y    0.000       0
  Br3         -1       0        Y    0.000       0
  C73         -1       0        Y    0.000       0
  
  end of program pre
   
 Time(pre)  user:       1.109  user+sys:       1.109  wallclock:       1.158
  
  start of program onee
  
  smallest eigenvalue of S:    4.252E-04
  number of canonical orbitals.....          545
  end of program onee
   
 Time(onee)  user:       6.563  user+sys:       6.563  wallclock:       4.808
  
  start of program hfig
  
  initial wavefunction generated automatically from atomic wavefunctions
  Only one state below 0.010000
  Skip d-d repulsion considerations 
 
  Irreducible     Total no   No of occupied orbitals 
  representation  orbitals   Shell_1  Shell_2    ...
  No Symm          545        129
  ------------------------
  Orbital occupation/shell    1.000
 
  end of program hfig
   
 Time(hfig)  user:       1.025  user+sys:       1.025  wallclock:       1.110
  
  start of program probe
  
  end of program probe
   
 Time(probe)  user:       0.531  user+sys:       0.531  wallclock:       0.442
  
  start of program grid
  
   grid     grid set  grid #  grid sym
  ------    --------  ------  --------
  coarse        0        0        1
  medium        2        1        1
  fine          0        0        1
  ultrafine     4        2        1
  charge       -1        3        1
  gradient      4        2        1
  density       0        0        1
  DFT-fine    -11        4        1
  DFT-med.    -10        5        1
  DFT-grad    -12        6        1
  DFT-der2     -8        7        1
  DFT-cphf     -9        8        1
  LMP2-enrg     4        2        1
  LMP2-grad     2        1        1
  DFT-cphf2   -15        9        1
  PBF-dens      0        0        1
  plotting      0        0        1
  Rel-grad    -17        0        1
  
  number of gridpoints: 
     atom           P1         Pd2         Br3         C73         C74         C75         C76
  grid # 1         606         352         512          79          92          93          96
  grid # 2         423         316         506         330         305         292         372
  grid # 3           6         241         437          33          31          29          20
  grid # 4        8714        8714        8714        8714        8714        8714        8714
  grid # 5        1192        1192        1192        1192        1192        1192        1192
  grid # 6        9132        9132        9132        5922        5922        5922        5922
  grid # 7       23034       32968       11582       13950       13950       13950       13950
  grid # 8         722        1150         694         748         748         748         748
  grid # 9         366        2198         358         394         394         394         394
   
  number of gridpoints: 
     atom          C77         C78         F79         H80         H82         H83         H14
  grid # 1          91          93         584         114         111         114         103
  grid # 2         305         322         566         463         441         464         420
  grid # 3          21          31         351         371         224         402         123
  grid # 4        8714        8714        8714        8714        8714        8714        8714
  grid # 5        1192        1192        1192        1192        1192        1192        1192
  grid # 6        5922        5922        5922        5922        5922        5922        5922
  grid # 7       13950       13950       23190       15206       15206       15206       15206
  grid # 8         748         748         770         786         786         786         786
  grid # 9         394         394         420         420         420         420         420
   
  number of gridpoints: 
     atom           C6          C7          C8          C9         C10         C11         C12
  grid # 1          82          88          80          82          88          80          82
  grid # 2         245         367         244         240         371         247         246
  grid # 3           6           6           6           6           6           6           6
  grid # 4        8714        8714        8714        8714        8714        8714        8714
  grid # 5        1192        1192        1192        1192        1192        1192        1192
  grid # 6        5922        5922        5922        5922        5922        5922        5922
  grid # 7       13950       13950       13950       13950       13950       13950       13950
  grid # 8         748         748         748         748         748         748         748
  grid # 9         394         394         394         394         394         394         394
   
  number of gridpoints: 
     atom          C13         C14         C15         C16         C17         C18         C19
  grid # 1          82          87          99          79          97          93          96
  grid # 2         245         390         362         241         364         325         326
  grid # 3           6           9          22           6          16          17          31
  grid # 4        8714        8714        8714        8714        8714        8714        8714
  grid # 5        1192        1192        1192        1192        1192        1192        1192
  grid # 6        5922        5922        5922        5922        5922        5922        5922
  grid # 7       13950       13950       13950       13950       13950       13950       13950
  grid # 8         748         748         748         748         748         748         748
  grid # 9         394         394         394         394         394         394         394
   
  number of gridpoints: 
     atom          C20         C21         C22         C23         C24         C25         C26
  grid # 1          96          96          93          97          94          96          97
  grid # 2         324         325         323         361         320         327         325
  grid # 3          31          26          14          20          25          44          52
  grid # 4        8714        8714        8714        8714        8714        8714        8714
  grid # 5        1192        1192        1192        1192        1192        1192        1192
  grid # 6        5922        5922        5922        5922        5922        5922        5922
  grid # 7       13950       13950       13950       13950       13950       13950       13950
  grid # 8         748         748         748         748         748         748         748
  grid # 9         394         394         394         394         394         394         394
   
  number of gridpoints: 
     atom          C27         C28         H29         H30         H31         H32         H33
  grid # 1          96          94         105         102         107          88         107
  grid # 2         327         324         433         428         440         391         442
  grid # 3          45          25         177         169         254          20         231
  grid # 4        8714        8714        8714        8714        8714        8714        8714
  grid # 5        1192        1192        1192        1192        1192        1192        1192
  grid # 6        5922        5922        5922        5922        5922        5922        5922
  grid # 7       13950       13950       15206       15206       15206       15206       15206
  grid # 8         748         748         786         786         786         786         786
  grid # 9         394         394         420         420         420         420         420
   
  number of gridpoints: 
     atom          H34         H35         H36         H37         H38         H39         H40
  grid # 1         106          98         106          88         100         103         107
  grid # 2         448         413         441         384         415         431         443
  grid # 3         234          99         217          13         109         166         269
  grid # 4        8714        8714        8714        8714        8714        8714        8714
  grid # 5        1192        1192        1192        1192        1192        1192        1192
  grid # 6        5922        5922        5922        5922        5922        5922        5922
  grid # 7       15206       15206       15206       15206       15206       15206       15206
  grid # 8         786         786         786         786         786         786         786
  grid # 9         420         420         420         420         420         420         420
   
  number of gridpoints: 
     atom          H41         H42         H43         H44         H45         H46         H47
  grid # 1         103         104         107         101         107         101         106
  grid # 2         433         432         444         420         443         427         437
  grid # 3         166         174         270         144         262         154         226
  grid # 4        8714        8714        8714        8714        8714        8714        8714
  grid # 5        1192        1192        1192        1192        1192        1192        1192
  grid # 6        5922        5922        5922        5922        5922        5922        5922
  grid # 7       15206       15206       15206       15206       15206       15206       15206
  grid # 8         786         786         786         786         786         786         786
  grid # 9         420         420         420         420         420         420         420
   
  number of gridpoints: 
     atom          H48         H49         H50         H51         H52         H53         H54
  grid # 1         102         100         108         118         117         116          93
  grid # 2         420         416         440         465         469         462         415
  grid # 3         135          92         228         404         413         327          21
  grid # 4        8714        8714        8714        8714        8714        8714        8714
  grid # 5        1192        1192        1192        1192        1192        1192        1192
  grid # 6        5922        5922        5922        5922        5922        5922        5922
  grid # 7       15206       15206       15206       15206       15206       15206       15206
  grid # 8         786         786         786         786         786         786         786
  grid # 9         420         420         420         420         420         420         420
   
  number of gridpoints: 
     atom          H55         H56         H57         H58         H59       total
  grid # 1         109         118         118         118         108        8385
  grid # 2         446         465         467         466         439       26209
  grid # 3         250         416         431         416         207        9445
  grid # 4        8714        8714        8714        8714        8714      592552
  grid # 5        1192        1192        1192        1192        1192       81056
  grid # 6        5922        5922        5922        5922        5922      412326
  grid # 7       15206       15206       15206       15206       15206     1027534
  grid # 8         786         786         786         786         786       52538
  grid # 9         420         420         420         420         420       29468
   
  end of program grid
   
 Time(grid)  user:     232.062  user+sys:     232.062  wallclock:     118.657
  
  start of program rwr
  
  end of program rwr
   
 Time(rwr)  user:      16.974  user+sys:      16.974  wallclock:      21.291
  
  start of program scf
  
 number of electrons..........        258
 number of alpha electrons....        129
 number of beta electrons.....        129
 number of orbitals, total....        545
 number of doubly-occ'd orbs..        129
 number of open shell orbs....          0
 number of occupied orbitals..        129
 number of virtual orbitals...        416
 number of hamiltonians.......          1
 number of shells.............          1
 SCF type: DFT=Becke_3_Parameter/HF+Slater+Becke88+PW91+PW-GGAIIC (B3PW91-D3)
 Energy computed using pseudospectral method.
 Convergence Criterion:
    Energy (econv):       1.00E-05
    RMS density (dconv):  5.00E-06
  
       i  u  d  i  g                   
       t  p  i  c  r                                 RMS    maximum
       e  d  i  u  i                       energy  density   DIIS  
       r  t  s  t  d       total energy    change  change    error 
  
etot    1  N  N  5  M   -1702.68192783888           2.3E-03  3.1E-01
etot    2  Y  Y  6  M   -1705.39245993089  2.7E+00  3.7E-03  1.9E-01
etot    3  Y  Y  6  M   -1706.30255671929  9.1E-01  1.4E-03  6.8E-02
etot    4  N  Y  2  U   -1706.55671106178  2.5E-01  1.0E-03  3.5E-02
etot    5  Y  Y  6  M   -1706.64323715642  8.7E-02  6.3E-04  2.1E-02
etot    6  N  Y  2  U   -1706.65398031212  1.1E-02  7.2E-04  1.2E-02
etot    7  Y  Y  6  M   -1706.65460257816  6.2E-04  1.4E-04  3.8E-03
etot    8  Y  Y  6  M   -1706.65915428434  4.6E-03  4.1E-05  1.1E-03
etot    9  N  Y  2  U   -1706.65996167695  8.1E-04  2.1E-05  1.7E-04
etot   10  N  Y  2  U   -1706.65996975381  8.1E-06  8.6E-06  7.4E-05
etot   11  N  Y  2  U   -1706.65997217160  2.4E-06  4.4E-06  4.1E-05
etot   12  N  N  2  U   -1706.65997303180  8.6E-07  0.0E+00  0.0E+00
 
  Computing the dispersion energy correction and its gradients...
  
  
 Energy components, in hartrees:
   (A)  Nuclear repulsion............    4088.79028521391
   (E)  Total one-electron terms.....  -10520.65806884979
   (F)    Electron-nuclear...........  -12129.04417467329
   (H)    Kinetic....................    1608.38610582350
   (I)  Total two-electron terms.....    4725.20781060408
   (J)    Coulomb....................    4944.34313566988
   (K)    Exchange+Correlation.......    -219.13532506580
   (L)  Electronic energy............   -5795.45025824571  (E+I)
   (N0) D3 correction................      -0.12544875474
   (N)  Total energy.................   -1706.78542178653  (A+L+N0)
   (O)  Gas phase energy.............   -1706.78542178653
  
 SCFE: SCF energy: DFT(b3pw91-d3)     -1706.78542178653 hartrees   iterations:  12
  
 
 HOMO energy:    -0.20510
 LUMO energy:    -0.08131
 
  Orbital energies (hartrees): 
   -77.10178   -24.68440   -10.25348   -10.23029   -10.22464   -10.21295
   -10.21167   -10.20790   -10.20764   -10.19291   -10.19286   -10.19125
   -10.19085   -10.18992   -10.18946   -10.18934   -10.18699   -10.18596
   -10.18508   -10.18434   -10.18433   -10.18369   -10.18325   -10.18318
   -10.18153   -10.18037   -10.17750   -10.17393   -10.16951   -10.14980
   -10.13648    -6.60254    -4.76050    -4.75971    -4.75781    -3.35054
    -2.08607    -2.08017    -2.04895    -1.21499    -0.88704    -0.88480
    -0.86466    -0.85003    -0.82946    -0.81989    -0.77880    -0.77752
    -0.76351    -0.75750    -0.75523    -0.74999    -0.70974    -0.70665
    -0.70492    -0.68984    -0.68567    -0.67732    -0.65795    -0.63161
    -0.62881    -0.61828    -0.61120    -0.60738    -0.60510    -0.57707
    -0.56443    -0.55240    -0.54103    -0.52536    -0.50765    -0.49722
    -0.49257    -0.48800    -0.47868    -0.47650    -0.47524    -0.47020
    -0.46280    -0.45855    -0.45671    -0.45338    -0.45114    -0.44754
    -0.44348    -0.43862    -0.43382    -0.43215    -0.43048    -0.42093
    -0.41786    -0.40682    -0.40309    -0.40132    -0.39748    -0.39420
    -0.39106    -0.38672    -0.38385    -0.37843    -0.37539    -0.37301
    -0.36761    -0.36253    -0.36095    -0.35469    -0.35162    -0.35040
    -0.34526    -0.34340    -0.34079    -0.33427    -0.32325    -0.32026
    -0.31271    -0.30473    -0.29014    -0.28243    -0.28006    -0.26640
    -0.26394    -0.25835    -0.25035    -0.23523    -0.23273    -0.22268
    -0.21140    -0.21080    -0.20510    -0.08131    -0.06674    -0.02661
    -0.01989    -0.01788    -0.01165    -0.00538     0.00429     0.03086
     0.03692
 
  end of program scf
   
 Time(scf)  user:     383.438  user+sys:     383.438  wallclock:     205.389
  
  start of program der1a
  
  end of program der1a
   
 Time(der1a)  user:      21.438  user+sys:      21.438  wallclock:      11.316
  
  start of program rwr
  
  end of program rwr
   
 Time(rwr)  user:      17.744  user+sys:      17.744  wallclock:      22.865
  
  start of program der1b
  
   
  forces (hartrees/bohr) : total     
   
 atom  label           x              y              z
 ---- --------   -------------  -------------  -------------
    1 P1         -4.518759E-03  -2.658281E-03   7.272354E-03
    2 Pd2        -2.608016E-02   1.162410E-02   2.198892E-02
    3 Br3         3.863198E-03  -8.310499E-04  -9.795321E-03
    4 C73        -2.789028E-03   1.039378E-02  -3.053625E-03
    5 C74        -2.201295E-04   2.851458E-02   2.731492E-02
    6 C75        -2.688810E-02   1.338211E-02   6.269112E-02
    7 C76        -2.536071E-02   2.691001E-02   3.555763E-02
    8 C77         2.726971E-04   2.847359E-02   2.568308E-02
    9 C78        -1.835226E-04  -3.983207E-03   2.632755E-03
   10 F79        -5.480243E-03  -6.100060E-03   5.670424E-04
   11 H80        -3.292047E-04  -1.365772E-03  -2.126809E-04
   12 H82        -3.050594E-05   4.123145E-03   6.853352E-03
   13 H83        -1.335125E-03  -5.889047E-04  -4.184334E-04
   14 H14         3.501580E-03   1.097928E-03   2.340740E-03
   15 C6          4.628703E-03  -1.455165E-02  -1.514305E-02
   16 C7          4.776250E-02  -5.340803E-03  -2.207509E-02
   17 C8         -2.934565E-03  -3.069306E-02  -4.961417E-03
   18 C9          6.220423E-03   4.405633E-03  -2.419350E-02
   19 C10        -1.981803E-02   2.191330E-02  -2.060140E-02
   20 C11        -4.386494E-03   7.514620E-03   8.197395E-03
   21 C12        -9.413643E-03  -1.649716E-02   6.223001E-03
   22 C13         2.095222E-02   3.106655E-03  -1.170437E-02
   23 C14         1.101541E-02  -2.694951E-03  -1.492298E-02
   24 C15        -1.690232E-03   1.042153E-03   1.137029E-02
   25 C16         4.081876E-03   2.107498E-03  -2.214338E-02
   26 C17        -3.343096E-03  -9.123450E-03   1.808139E-02
   27 C18        -1.351508E-03  -1.443952E-02   1.438128E-02
   28 C19         1.519427E-03   5.345743E-03  -8.682005E-04
   29 C20        -4.791897E-05   1.141965E-03  -1.730990E-03
   30 C21        -1.350948E-03  -3.979516E-03   9.394003E-04
   31 C22        -8.830739E-04   1.930373E-02  -2.465551E-03
   32 C23        -1.551158E-02  -1.387369E-02  -5.840932E-03
   33 C24        -1.839311E-02   1.501457E-04  -8.785456E-03
   34 C25         3.342331E-03   4.963738E-04   5.893152E-04
   35 C26         1.342536E-03   3.092498E-03   1.399575E-03
   36 C27        -6.655655E-03  -1.210424E-04   1.031414E-03
   37 C28         2.247412E-02  -7.196799E-03   3.093948E-03
   38 H29        -3.298621E-03  -1.580839E-03   4.998056E-03
   39 H30        -1.001409E-03   1.416617E-02   6.102714E-04
   40 H31        -1.084956E-02   1.815910E-03   6.695422E-03
   41 H32         1.127851E-02  -3.621708E-02  -4.023969E-02
   42 H33        -7.845346E-03   2.052421E-03  -6.000331E-03
   43 H34         1.385154E-03   6.233326E-03  -2.164239E-04
   44 H35         8.022316E-03  -3.489922E-03   9.857722E-03
   45 H36        -5.634542E-03  -9.413685E-03  -3.097936E-03
   46 H37         2.744083E-02  -3.322939E-02  -6.999007E-02
   47 H38        -1.101629E-02  -5.135910E-03  -6.606192E-03
   48 H39         9.018409E-03  -1.142609E-04  -3.321760E-03
   49 H40         7.230748E-03  -1.007688E-02   3.553296E-03
   50 H41         9.268534E-03   1.758195E-03  -6.144549E-03
   51 H42        -9.756431E-04   7.650107E-03   5.318916E-03
   52 H43         9.462428E-03   7.226148E-04   4.933097E-03
   53 H44        -9.802838E-03  -1.311880E-02  -4.631955E-03
   54 H45        -2.120186E-03  -5.399386E-03   9.371991E-03
   55 H46         5.011074E-04   7.060833E-03   5.921473E-03
   56 H47         6.581773E-03   1.197163E-03   1.283771E-02
   57 H48        -1.375858E-02   2.066988E-03  -6.995928E-03
   58 H49         3.873422E-03  -2.975688E-03   1.145999E-02
   59 H50         4.161373E-03   8.648796E-03  -3.058784E-03
   60 H51         6.261509E-03   4.136525E-03  -7.380391E-03
   61 H52         6.477447E-03  -3.519628E-03  -7.756561E-03
   62 H53         3.528741E-03  -1.012002E-02  -2.863111E-03
   63 H54        -4.767707E-03  -3.448073E-03  -2.879062E-03
   64 H55         1.166980E-02  -2.896413E-03  -3.883802E-03
   65 H56         1.053361E-02   6.561133E-03  -5.008556E-04
   66 H57         1.215585E-03   7.072932E-03   1.459673E-03
   67 H58        -6.075615E-03   9.004381E-03   4.243222E-03
   68 H59        -1.348479E-02   2.882038E-04   4.546931E-03
 -------------   -------------  -------------  -------------
     total       -7.381770E-04  -1.996349E-04  -4.670825E-04
   
  end of program der1b
   
 Time(der1b)  user:     127.544  user+sys:     127.544  wallclock:      67.184
  
  start of program geopt
  
 ----------------------------------------------------------------------------
  Geometry optimization step  1
  Total energy:     -1706.78542178653 hartrees
 ----------------------------------------------------------------------------
  
  
  Level shifts adjusted to satisfy step-size constraints
   Step size:    0.3003904
   Cos(theta):   0.5433681
   Final level shift:  -5.7610591E-01
  
  gradient maximum:        7.4595E-01 .  (  2.2500E-03 )
  gradient rms:            8.6081E-02 .  (  1.5000E-03 )
  displacement maximum:    9.4680E-02 .  (  9.0000E-03 )
  displacement rms:        1.4047E-02 .  (  6.0000E-03 )
  
  predicted energy change:  -1.0841E-01
  step size:     0.21023
  trust radius:  0.30000
  
  molecular structure not yet converged...
  
  center of mass moved by:
     x:    -1.1709E-02     y:     1.0005E-02     z:     6.4485E-02
  
  new geometry: 
                                   angstroms
  atom               x                 y                 z
  P1            0.0166053457      0.0081664470     -0.0363616762 
  Pd2           0.0021746198      0.0398593069      2.2621704852 
  Br3          -0.3549047212     -0.2509752793      4.7702877483 
  C73           3.1703183385      3.5673100630      2.6051479870 
  C74           1.9744724376      3.8217328645      1.9596971582 
  C75           1.0153537389      2.8103839659      1.8986183742 
  C76           1.2395364831      1.5622085453      2.4771576084 
  C77           2.4443801646      1.3521275592      3.1578028213 
  C78           3.4191556136      2.3493574546      3.2207468483 
  F79           4.1199877974      4.5291129194      2.6372739646 
  H80           1.8121737227      4.7876763173      1.4893034609 
  H82           2.6303942648      0.4075175087      3.6591453481 
  H83           4.3597811090      2.1925672471      3.7421762534 
  H14           0.0754628078      2.9926257322      1.4017558637 
  C6            2.4140200754     -0.3243894993     -1.7430722797 
  C7            1.8340109201      0.2907788221     -0.4452826339 
  C8            2.7586104086     -0.2723430424      0.6641997501 
  C9            2.0632238464      1.8116576545     -0.5118655548 
  C10          -1.0462222835      0.9929970072     -1.3052452433 
  C11          -1.5211480865      2.3563589052     -0.7544025846 
  C12          -2.3130236839      0.2086945850     -1.7400536516 
  C13          -0.3217779303      1.3061389627     -2.6293407217 
  C14          -0.5947346749     -1.6940242730     -0.4068219346 
  C15          -1.5891649834     -2.3863658601      0.2308859655 
  C16           0.0902908266     -2.2328166956     -1.6408397184 
  C17          -2.4834863714     -1.8078451061      1.2933092453 
  C18          -3.1957685612     -2.6437019130      2.1883481680 
  C19          -4.0254683137     -2.1673837481      3.2053296363 
  C20          -4.1852522358     -0.7927003711      3.4068844915 
  C21          -3.4782042419      0.0753597056      2.5775227675 
  C22          -2.6562260821     -0.4364307355      1.5610194339 
  C23          -1.8423386051     -3.8188055660     -0.1309995114 
  C24          -3.1486498644     -4.3630803529     -0.1011310726 
  C25          -3.4407479278     -5.6880026802     -0.4481464277 
  C26          -2.4156813595     -6.5529245109     -0.8426654678 
  C27          -1.1085397288     -6.0569049284     -0.8848729152 
  C28          -0.8461880661     -4.7262471949     -0.5423565614 
  H29           1.9252667075      0.0211403060     -2.6667289517 
  H30           2.4048417762     -1.4346029642     -1.7430042633 
  H31           3.4806171229     -0.0488136710     -1.8679670167 
  H32           2.6016076199      0.2393459679      1.6311579228 
  H33           3.8249677438     -0.1263531417      0.4098827552 
  H34           2.5995246393     -1.3617420106      0.7936285081 
  H35           1.4637350412      2.3029979178     -1.3003062819 
  H36           3.1223028297      2.0561446576     -0.7147989097 
  H37           1.7794763140      2.3113417089      0.4504975301 
  H38          -0.6714636143      2.9977667321     -0.4684576888 
  H39          -2.1991506355      2.2534487416      0.1147363019 
  H40          -2.1025278577      2.9152962611     -1.5183416314 
  H41          -2.9930605325     -0.0484368098     -0.9057304607 
  H42          -2.0612641705     -0.7361100249     -2.2563607491 
  H43          -2.9202095929      0.8022366571     -2.4478116789 
  H44           0.5434854529      1.9857936715     -2.4920183405 
  H45          -0.9843832572      1.8375476675     -3.3379993334 
  H46           0.0142332774      0.3961817093     -3.1586910403 
  H47          -0.5172897185     -2.9580856558     -2.2154597853 
  H48           1.0926238923     -2.6511781577     -1.4122802343 
  H49           0.2467732537     -1.4242887151     -2.3829766462 
  H50          -3.0871087517     -3.7301799078      2.1618266185 
  H51          -4.5424037354     -2.8732068741      3.8678073276 
  H52          -4.8334440828     -0.4062980673      4.2042631938 
  H53          -3.5650934288      1.1607295072      2.7113536248 
  H54          -2.1643215992      0.3167366546      0.9552677586 
  H55          -4.0137755772     -3.7321909454      0.1406615699 
  H56          -4.4785168188     -6.0512692033     -0.4093851135 
  H57          -2.6280733165     -7.5943880290     -1.1053310337 
  H58          -0.2873890548     -6.7212083242     -1.1876880801 
  H59           0.2128894527     -4.4405261852     -0.5613814807 
   
 
  bond lengths (angstroms):
 
 P1      -Pd2     :   2.298796      P1      -C7      :   1.884157
 P1      -C10     :   1.926022      P1      -C14     :   1.846194
 Pd2     -Br3     :   2.550048      Pd2     -C76     :   1.973533
 C73     -C74     :   1.382529      C73     -C78     :   1.387188
 C73     -F79     :   1.352024      C74     -C75     :   1.395158
 C74     -H80     :   1.086581      C75     -C76     :   1.393882
 C75     -H14     :   1.078647      C76     -C77     :   1.399664
 C77     -C78     :   1.395929      C77     -H82     :   1.085465
 C78     -H83     :   1.086852      C6      -C7      :   1.548903
 C6      -H29     :   1.100642      C6      -H30     :   1.110251
 C6      -H31     :   1.108679      C7      -C8      :   1.550142
 C7      -C9      :   1.539495      C8      -H32     :   1.105208
 C8      -H33     :   1.105942      C8      -H34     :   1.108535
 C9      -H35     :   1.105640      C9      -H36     :   1.105714
 C9      -H37     :   1.120866      C10     -C11     :   1.545231
 C10     -C12     :   1.552087      C10     -C13     :   1.541462
 C11     -H38     :   1.102330      C11     -H39     :   1.107104
 C11     -H40     :   1.110863      C12     -H41     :   1.106644
 C12     -H42     :   1.105718      C12     -H43     :   1.105391
 C13     -H44     :   1.108814      C13     -H45     :   1.106182
 C13     -H46     :   1.105051      C14     -C15     :   1.369270
 C14     -C16     :   1.510747      C15     -C17     :   1.504407
 C15     -C23     :   1.498980      C16     -H47     :   1.106959
 C16     -H48     :   1.109927      C16     -H49     :   1.108590
 C17     -C18     :   1.416721      C17     -C22     :   1.407936
 C18     -C19     :   1.396256      C18     -H50     :   1.092220
 C19     -C20     :   1.398538      C19     -H51     :   1.097399
 C20     -C21     :   1.393300      C20     -H52     :   1.097849
 C21     -C22     :   1.403872      C21     -H53     :   1.097036
 C22     -H54     :   1.084512      C23     -C24     :   1.415477
 C23     -C28     :   1.408893      C24     -C25     :   1.400414
 C24     -H55     :   1.097692      C25     -C26     :   1.398033
 C25     -H56     :   1.100195      C26     -C27     :   1.398727
 C26     -H57     :   1.094874      C27     -C28     :   1.398855
 C27     -H58     :   1.098765      C28     -H59     :   1.097107
 
  bond angles:
 
 C7      -P1      -Pd2     : 102.767392  C10     -P1      -Pd2     : 130.407638
 C10     -P1      -C7      : 108.215783  C14     -P1      -Pd2     : 102.196863
 C14     -P1      -C7      : 114.465713  C14     -P1      -C10     :  99.004868
 Br3     -Pd2     -P1      : 169.342682  C76     -Pd2     -P1      :  96.639482
 C76     -Pd2     -Br3     :  93.935163  C78     -C73     -C74     : 121.595456
 F79     -C73     -C74     : 119.192151  F79     -C73     -C78     : 119.212391
 C75     -C74     -C73     : 118.794670  H80     -C74     -C73     : 119.663384
 H80     -C74     -C75     : 121.518989  C76     -C75     -C74     : 121.358120
 H14     -C75     -C74     : 119.783199  H14     -C75     -C76     : 118.857051
 C75     -C76     -Pd2     : 123.003800  C77     -C76     -Pd2     : 118.483322
 C77     -C76     -C75     : 118.339117  C78     -C77     -C76     : 121.051261
 H82     -C77     -C76     : 120.181135  H82     -C77     -C78     : 118.763184
 C77     -C78     -C73     : 118.813332  H83     -C78     -C73     : 119.657554
 H83     -C78     -C77     : 121.528589  H29     -C6      -C7      : 114.341571
 H30     -C6      -C7      : 113.203828  H30     -C6      -H29     : 108.077583
 H31     -C6      -C7      : 110.849792  H31     -C6      -H29     : 104.752092
 H31     -C6      -H30     : 104.863299  C6      -C7      -P1      : 118.912353
 C8      -C7      -P1      : 111.438696  C8      -C7      -C6      : 103.418458
 C9      -C7      -P1      : 107.528516  C9      -C7      -C6      : 107.479815
 C9      -C7      -C8      : 107.519318  H32     -C8      -C7      : 111.918080
 H33     -C8      -C7      : 111.258282  H33     -C8      -H32     : 106.084049
 H34     -C8      -C7      : 110.791488  H34     -C8      -H32     : 109.417522
 H34     -C8      -H33     : 107.154436  H35     -C9      -C7      : 112.900600
 H36     -C9      -C7      : 111.653035  H36     -C9      -H35     : 106.870064
 H37     -C9      -C7      : 111.443663  H37     -C9      -H35     : 106.074929
 H37     -C9      -H36     : 107.546468  C11     -C10     -P1      : 112.699502
 C12     -C10     -P1      : 112.121526  C12     -C10     -C11     : 107.148893
 C13     -C10     -P1      : 114.232565  C13     -C10     -C11     : 105.748793
 C13     -C10     -C12     : 104.217374  H38     -C11     -C10     : 111.650581
 H39     -C11     -C10     : 112.709953  H39     -C11     -H38     : 108.813807
 H40     -C11     -C10     : 111.078079  H40     -C11     -H38     : 106.799837
 H40     -C11     -H39     : 105.434826  H41     -C12     -C10     : 114.064112
 H42     -C12     -C10     : 112.132904  H42     -C12     -H41     : 107.062545
 H43     -C12     -C10     : 110.877288  H43     -C12     -H41     : 105.660588
 H43     -C12     -H42     : 106.553195  H44     -C13     -C10     : 112.636312
 H45     -C13     -C10     : 111.492139  H45     -C13     -H44     : 104.614131
 H46     -C13     -C10     : 112.774246  H46     -C13     -H44     : 109.073844
 H46     -C13     -H45     : 105.714357  C15     -C14     -P1      : 127.822851
 C16     -C14     -P1      : 110.034091  C16     -C14     -C15     : 121.964822
 C17     -C15     -C14     : 124.485142  C23     -C15     -C14     : 119.564822
 C23     -C15     -C17     : 115.948923  H47     -C16     -C14     : 114.129559
 H48     -C16     -C14     : 112.067821  H48     -C16     -H47     : 110.830367
 H49     -C16     -C14     : 110.531008  H49     -C16     -H47     : 101.994635
 H49     -C16     -H48     : 106.575980  C18     -C17     -C15     : 121.208654
 C22     -C17     -C15     : 125.576645  C22     -C17     -C18     : 113.133710
 C19     -C18     -C17     : 123.893233  H50     -C18     -C17     : 121.435176
 H50     -C18     -C19     : 114.591731  C20     -C19     -C18     : 120.542832
 H51     -C19     -C18     : 120.013254  H51     -C19     -C20     : 119.431832
 C21     -C20     -C19     : 117.945603  H52     -C20     -C19     : 121.204219
 H52     -C20     -C21     : 120.841867  C22     -C21     -C20     : 120.066127
 H53     -C21     -C20     : 120.237776  H53     -C21     -C22     : 119.695179
 C21     -C22     -C17     : 124.375436  H54     -C22     -C17     : 120.971255
 H54     -C22     -C21     : 114.634163  C24     -C23     -C15     : 121.213258
 C28     -C23     -C15     : 124.510709  C28     -C23     -C24     : 114.268680
 C25     -C24     -C23     : 123.439303  H55     -C24     -C23     : 120.730368
 H55     -C24     -C25     : 115.718729  C26     -C25     -C24     : 120.153053
 H56     -C25     -C24     : 120.026411  H56     -C25     -C26     : 119.820475
 C27     -C26     -C25     : 118.315883  H57     -C26     -C25     : 120.927606
 H57     -C26     -C27     : 120.755082  C28     -C27     -C26     : 120.345442
 H58     -C27     -C26     : 119.493229  H58     -C27     -C28     : 120.161237
 C27     -C28     -C23     : 123.474576  H59     -C28     -C23     : 121.322878
 H59     -C28     -C27     : 115.121237
 
  torsional angles:
 
 P1      -Pd2     -C76     -C75     :  56.097970
 P1      -Pd2     -C76     -C77     :-119.026579
 P1      -C7      -C6      -H29     :  60.032181
 P1      -C7      -C6      -H30     : -64.334427
 P1      -C7      -C6      -H31     : 178.154992
 P1      -C7      -C8      -H32     : -62.861002
 P1      -C7      -C8      -H33     : 178.651008
 P1      -C7      -C8      -H34     :  59.556802
 P1      -C7      -C9      -H35     : -61.526993
 P1      -C7      -C9      -H36     : 178.031762
 P1      -C7      -C9      -H37     :  57.738708
 P1      -C10     -C11     -H38     :  59.040964
 P1      -C10     -C11     -H39     : -63.796805
 P1      -C10     -C11     -H40     : 178.136121
 P1      -C10     -C12     -H41     :  59.449815
 P1      -C10     -C12     -H42     : -62.456932
 P1      -C10     -C12     -H43     : 178.575737
 P1      -C10     -C13     -H44     : -64.920065
 P1      -C10     -C13     -H45     : 177.822417
 P1      -C10     -C13     -H46     :  59.071463
 P1      -C14     -C15     -C17     :   6.728833
 P1      -C14     -C15     -C23     :-173.671084
 P1      -C14     -C16     -H47     :-151.007591
 P1      -C14     -C16     -H48     :  81.975707
 P1      -C14     -C16     -H49     : -36.745144
 Pd2     -P1      -C7      -C6      : 149.922501
 Pd2     -P1      -C7      -C8      :  29.810715
 Pd2     -P1      -C7      -C9      : -87.781560
 Pd2     -P1      -C10     -C11     :  27.924481
 Pd2     -P1      -C10     -C12     : -93.076072
 Pd2     -P1      -C10     -C13     : 148.649249
 Pd2     -P1      -C14     -C15     :  39.841394
 Pd2     -P1      -C14     -C16     :-144.989750
 Pd2     -C76     -C75     -C74     :-173.488488
 Pd2     -C76     -C75     -H14     :   6.977078
 Pd2     -C76     -C77     -C78     : 173.261628
 Pd2     -C76     -C77     -H82     :  -7.512646
 Br3     -Pd2     -P1      -C7      :-145.396034
 Br3     -Pd2     -P1      -C10     :  86.736653
 Br3     -Pd2     -P1      -C14     : -26.486146
 Br3     -Pd2     -C76     -C75     :-122.574894
 Br3     -Pd2     -C76     -C77     :  62.300557
 C73     -C74     -C75     -C76     :   0.270933
 C73     -C74     -C75     -H14     : 179.801122
 C73     -C78     -C77     -C76     :   0.625154
 C73     -C78     -C77     -H82     :-178.611327
 C74     -C73     -C78     -C77     :   1.377174
 C74     -C73     -C78     -H83     :-178.363101
 C74     -C75     -C76     -C77     :   1.642711
 C75     -C74     -C73     -C78     :  -1.819175
 C75     -C74     -C73     -F79     : 178.195658
 C75     -C76     -C77     -C78     :  -2.093426
 C75     -C76     -C77     -H82     : 177.132300
 C76     -Pd2     -P1      -C7      :  41.781409
 C76     -Pd2     -P1      -C10     : -86.085904
 C76     -Pd2     -P1      -C14     : 160.691298
 C76     -C75     -C74     -H80     : 178.521687
 C76     -C77     -C78     -H83     :-179.639635
 C77     -C76     -C75     -H14     :-177.891724
 C77     -C78     -C73     -F79     :-178.637662
 C78     -C73     -C74     -H80     : 179.896884
 F79     -C73     -C74     -H80     :  -0.088284
 F79     -C73     -C78     -H83     :   1.622063
 H80     -C74     -C75     -H14     :  -1.948124
 H82     -C77     -C78     -H83     :   1.123884
 C6      -C7      -P1      -C10     : -69.336722
 C6      -C7      -P1      -C14     :  39.978636
 C6      -C7      -C8      -H32     : 168.260660
 C6      -C7      -C8      -H33     :  49.772670
 C6      -C7      -C8      -H34     : -69.321536
 C6      -C7      -C9      -H35     :  67.598619
 C6      -C7      -C9      -H36     : -52.842627
 C6      -C7      -C9      -H37     :-173.135680
 C7      -P1      -C10     -C11     : -97.927281
 C7      -P1      -C10     -C12     : 141.072166
 C7      -P1      -C10     -C13     :  22.797487
 C7      -P1      -C14     -C15     : 150.130078
 C7      -P1      -C14     -C16     : -34.701065
 C8      -C7      -P1      -C10     : 170.551492
 C8      -C7      -P1      -C14     : -80.133149
 C8      -C7      -C6      -H29     :-175.840469
 C8      -C7      -C6      -H30     :  59.792923
 C8      -C7      -C6      -H31     : -57.717658
 C8      -C7      -C9      -H35     : 178.363753
 C8      -C7      -C9      -H36     :  57.922508
 C8      -C7      -C9      -H37     : -62.370546
 C9      -C7      -P1      -C10     :  52.959217
 C9      -C7      -P1      -C14     : 162.274576
 C9      -C7      -C6      -H29     : -62.288047
 C9      -C7      -C6      -H30     : 173.345345
 C9      -C7      -C6      -H31     :  55.834764
 C9      -C7      -C8      -H32     :  54.736830
 C9      -C7      -C8      -H33     : -63.751160
 C9      -C7      -C8      -H34     : 177.154634
 C10     -P1      -C14     -C15     : -95.046412
 C10     -P1      -C14     -C16     :  80.122444
 C11     -C10     -P1      -C14     : 142.495894
 C11     -C10     -C12     -H41     : -64.701323
 C11     -C10     -C12     -H42     : 173.391931
 C11     -C10     -C12     -H43     :  54.424599
 C11     -C10     -C13     -H44     :  59.595026
 C11     -C10     -C13     -H45     : -57.662492
 C11     -C10     -C13     -H46     :-176.413447
 C12     -C10     -P1      -C14     :  21.495341
 C12     -C10     -C11     -H38     :-177.161610
 C12     -C10     -C11     -H39     :  60.000622
 C12     -C10     -C11     -H40     : -58.066452
 C12     -C10     -C13     -H44     : 172.393165
 C12     -C10     -C13     -H45     :  55.135647
 C12     -C10     -C13     -H46     : -63.615308
 C13     -C10     -P1      -C14     : -96.779337
 C13     -C10     -C11     -H38     : -66.424950
 C13     -C10     -C11     -H39     : 170.737282
 C13     -C10     -C11     -H40     :  52.670207
 C13     -C10     -C12     -H41     :-176.491240
 C13     -C10     -C12     -H42     :  61.602013
 C13     -C10     -C12     -H43     : -57.365318
 C14     -C15     -C17     -C18     :-160.440841
 C14     -C15     -C17     -C22     :  16.056476
 C14     -C15     -C23     -C24     :-146.287440
 C14     -C15     -C23     -C28     :  32.668567
 C15     -C14     -C16     -H47     :  24.494899
 C15     -C14     -C16     -H48     :-102.521804
 C15     -C14     -C16     -H49     : 138.757345
 C15     -C17     -C18     -C19     : 179.086420
 C15     -C17     -C18     -H50     :   2.514058
 C15     -C17     -C22     -C21     :-178.673773
 C15     -C17     -C22     -H54     :   3.004950
 C15     -C23     -C24     -C25     : 179.048994
 C15     -C23     -C24     -H55     :   3.056656
 C15     -C23     -C28     -C27     :-179.503449
 C15     -C23     -C28     -H59     :   3.937299
 C16     -C14     -C15     -C17     :-167.919716
 C16     -C14     -C15     -C23     :  11.680367
 C17     -C15     -C23     -C24     :  33.345961
 C17     -C15     -C23     -C28     :-147.698032
 C17     -C18     -C19     -C20     :  -0.848475
 C17     -C18     -C19     -H51     :-179.576912
 C17     -C22     -C21     -C20     :   0.332228
 C17     -C22     -C21     -H53     :-179.320103
 C18     -C17     -C15     -C23     :  19.946006
 C18     -C17     -C22     -C21     :  -1.931248
 C18     -C17     -C22     -H54     : 179.747475
 C18     -C19     -C20     -C21     :  -0.931641
 C18     -C19     -C20     -H52     :-179.891400
 C19     -C18     -C17     -C22     :   2.183970
 C19     -C20     -C21     -C22     :   1.176065
 C19     -C20     -C21     -H53     :-179.173508
 C20     -C19     -C18     -H50     : 175.935458
 C20     -C21     -C22     -H54     : 178.748755
 C21     -C20     -C19     -H51     : 177.804143
 C22     -C17     -C15     -C23     :-163.556677
 C22     -C17     -C18     -H50     :-174.388391
 C22     -C21     -C20     -H52     :-179.860226
 C23     -C24     -C25     -C26     :   0.392507
 C23     -C24     -C25     -H56     :-179.697916
 C23     -C28     -C27     -C26     :   0.590549
 C23     -C28     -C27     -H58     :-179.298512
 C24     -C23     -C28     -C27     :  -0.482864
 C24     -C23     -C28     -H59     :-177.042117
 C24     -C25     -C26     -C27     :  -0.293079
 C24     -C25     -C26     -H57     : 179.275201
 C25     -C24     -C23     -C28     :  -0.007351
 C25     -C26     -C27     -C28     :  -0.174451
 C25     -C26     -C27     -H58     : 179.715349
 C26     -C25     -C24     -H55     : 176.569079
 C26     -C27     -C28     -H59     : 177.344435
 C27     -C26     -C25     -H56     : 179.797157
 C28     -C23     -C24     -H55     :-175.999689
 C28     -C27     -C26     -H57     :-179.743506
 H50     -C18     -C19     -H51     :  -2.792980
 H51     -C19     -C20     -H52     :  -1.155616
 H52     -C20     -C21     -H53     :  -0.209799
 H53     -C21     -C22     -H54     :  -0.903576
 H55     -C24     -C25     -H56     :  -3.521343
 H56     -C25     -C26     -H57     :  -0.634563
 H57     -C26     -C27     -H58     :   0.146294
 H58     -C27     -C28     -H59     :  -2.544626
 
  nuclear repulsion energy.......          4063.239160978 hartrees
 -------------------------------------------------
   end of geometry optimization iteration  1
 -------------------------------------------------
   
  end of program geopt
   
 Time(geopt)  user:       0.742  user+sys:       0.742  wallclock:       0.800
  
  start of program onee
  
  smallest eigenvalue of S:    4.216E-04
  number of canonical orbitals.....          546
  end of program onee
   
 Time(onee)  user:       6.744  user+sys:       6.744  wallclock:       4.217
  
  start of program probe
  
  end of program probe
   
 Time(probe)  user:       0.545  user+sys:       0.545  wallclock:       0.452
  
  start of program grid
  
  end of program grid
   
 Time(grid)  user:     228.826  user+sys:     228.826  wallclock:     116.821
  
  start of program rwr
  
  end of program rwr
   
 Time(rwr)  user:      16.740  user+sys:      16.740  wallclock:      21.532
  
  start of program scf
  
 Energy computed using pseudospectral method.
 Convergence Criterion:
    Energy (econv):       1.00E-05
    RMS density (dconv):  5.00E-06
  
       i  u  d  i  g                   
       t  p  i  c  r                                 RMS    maximum
       e  d  i  u  i                       energy  density   DIIS  
       r  t  s  t  d       total energy    change  change    error 
  
etot    1  N  N  2  U   -1706.70268926199           1.1E-03  1.4E-02
etot    2  Y  Y  6  M   -1706.75423233935  5.2E-02  1.9E-04  3.1E-03
etot    3  N  Y  2  U   -1706.75475685589  5.2E-04  9.9E-05  3.4E-03
etot    4  Y  Y  6  M   -1706.75725142811  2.5E-03  3.3E-05  1.5E-03
etot    5  N  Y  2  U   -1706.75767884217  4.3E-04  1.3E-05  2.7E-04
etot    6  N  Y  2  U   -1706.75769745508  1.9E-05  6.7E-06  1.9E-04
etot    7  N  Y  2  U   -1706.75770409324  6.6E-06  2.5E-06  5.2E-05
etot    8  N  N  2  U   -1706.75770506640  9.7E-07  0.0E+00  0.0E+00
 
  Computing the dispersion energy correction and its gradients...
  
  
 Energy components, in hartrees:
   (A)  Nuclear repulsion............    4063.23916097822
   (E)  Total one-electron terms.....  -10470.01559067878
   (F)    Electron-nuclear...........  -12078.33118221179
   (H)    Kinetic....................    1608.31559153301
   (I)  Total two-electron terms.....    4700.01872463416
   (J)    Coulomb....................    4919.14688336848
   (K)    Exchange+Correlation.......    -219.12815873432
   (L)  Electronic energy............   -5769.99686604462  (E+I)
   (N0) D3 correction................      -0.12509445561
   (N)  Total energy.................   -1706.88279952201  (A+L+N0)
   (O)  Gas phase energy.............   -1706.88279952201
  
 SCFE: SCF energy: DFT(b3pw91-d3)     -1706.88279952201 hartrees   iterations:   8
  
 
 HOMO energy:    -0.20904
 LUMO energy:    -0.08138
 
  Orbital energies (hartrees): 
   -77.09886   -24.68166   -10.24887   -10.22725   -10.22201   -10.21249
   -10.21142   -10.20629   -10.20523   -10.19069   -10.19040   -10.18930
   -10.18924   -10.18845   -10.18791   -10.18758   -10.18506   -10.18352
   -10.18347   -10.18242   -10.18193   -10.18189   -10.18140   -10.17787
   -10.17629   -10.17432   -10.17404   -10.17358   -10.16949   -10.15488
   -10.15393    -6.59947    -4.75740    -4.75674    -4.75464    -3.34904
    -2.08462    -2.07830    -2.04740    -1.21346    -0.88670    -0.86736
    -0.86546    -0.85135    -0.82819    -0.82147    -0.77739    -0.76347
    -0.76159    -0.75784    -0.75106    -0.74647    -0.71150    -0.70681
    -0.70653    -0.69356    -0.68581    -0.67639    -0.66011    -0.62933
    -0.62418    -0.61841    -0.61011    -0.60578    -0.60186    -0.57360
    -0.56315    -0.54673    -0.53928    -0.52595    -0.50726    -0.49231
    -0.48662    -0.48514    -0.47732    -0.47613    -0.46997    -0.46935
    -0.46185    -0.45810    -0.45316    -0.45145    -0.45030    -0.44384
    -0.44183    -0.43476    -0.43457    -0.43090    -0.42745    -0.42178
    -0.41990    -0.40754    -0.40516    -0.39834    -0.39646    -0.39329
    -0.39219    -0.38538    -0.38415    -0.37817    -0.37512    -0.37332
    -0.36908    -0.36303    -0.36077    -0.35344    -0.35031    -0.34923
    -0.34508    -0.34068    -0.33920    -0.33259    -0.32574    -0.31896
    -0.31149    -0.30603    -0.30258    -0.28177    -0.28073    -0.26638
    -0.26454    -0.25876    -0.25295    -0.24553    -0.23157    -0.22577
    -0.21721    -0.21262    -0.20904    -0.08138    -0.06613    -0.02593
    -0.01829    -0.01376    -0.00963    -0.00266     0.00896     0.03711
     0.04030
 
  end of program scf
   
 Time(scf)  user:     324.565  user+sys:     324.565  wallclock:     173.180
  
  start of program der1a
  
  end of program der1a
   
 Time(der1a)  user:      21.261  user+sys:      21.261  wallclock:      11.312
  
  start of program rwr
  
  end of program rwr
   
 Time(rwr)  user:      17.361  user+sys:      17.361  wallclock:      23.681
  
  start of program der1b
  
   
  forces (hartrees/bohr) : total     
   
 atom  label           x              y              z
 ---- --------   -------------  -------------  -------------
    1 P1          1.424565E-03  -6.136196E-04   3.665826E-03
    2 Pd2        -2.165175E-02   8.815749E-03   1.680323E-02
    3 Br3         3.925877E-03   2.024793E-04  -9.564409E-03
    4 C73         3.181211E-03   3.986808E-03  -7.753471E-04
    5 C74        -1.100439E-03   8.899705E-03   8.385603E-03
    6 C75        -1.252748E-02   3.427700E-03   2.334101E-02
    7 C76        -2.161522E-03   7.574755E-03   1.334658E-02
    8 C77         3.059284E-04   5.923551E-03   1.261476E-02
    9 C78        -9.873462E-04  -1.692010E-03   1.131327E-03
   10 F79        -3.299592E-03  -3.142383E-03   2.296416E-04
   11 H80        -3.876456E-04  -6.475086E-04   3.121809E-04
   12 H82        -2.900616E-04  -8.481897E-05   8.233529E-04
   13 H83        -9.366768E-04  -3.704064E-04  -3.966956E-04
   14 H14        -2.950612E-03   3.185865E-03  -1.502750E-03
   15 C6          5.292409E-03  -7.943346E-03  -1.424992E-02
   16 C7          3.352851E-02  -5.790077E-03  -2.036004E-02
   17 C8         -4.632353E-03  -1.055612E-02   7.353111E-03
   18 C9         -7.037052E-03   1.525683E-02   2.294311E-03
   19 C10        -1.773503E-02   1.610186E-02  -1.810359E-02
   20 C11        -2.199993E-03   4.923983E-03   8.543433E-03
   21 C12        -7.481836E-03  -1.210743E-02   4.444615E-03
   22 C13         1.216629E-02   3.201395E-03  -1.114314E-02
[...]
    H82      Y    -0.00194   0.00069  -0.47724   0.00190   0.00366   0.00629
    H82      Z     0.00059  -0.00023   0.14221  -0.00050  -0.00108  -0.00214
    H83      X     0.00667   0.00162   0.59992  -0.00271  -0.00169  -0.01217
    H83      Y    -0.00352  -0.00086  -0.31166   0.00137   0.00087   0.00659
    H83      Z     0.00496   0.00120   0.44426  -0.00199  -0.00124  -0.00908
    H14      X    -0.00071   0.00025   0.01398  -0.00037  -0.00213   0.71498
    H14      Y     0.00045  -0.00015  -0.00705   0.00022   0.00117  -0.39584
    H14      Z    -0.00047   0.00014   0.00885  -0.00020  -0.00132   0.45768
    C6       X     0.00004  -0.00001  -0.00007   0.00001   0.00002  -0.00002
    C6       Y    -0.00004  -0.00016   0.00016   0.00001   0.00000   0.00003
    C6       Z     0.00004   0.00009  -0.00013  -0.00001   0.00001  -0.00004
    C7       X     0.00001  -0.00001  -0.00001   0.00001  -0.00000  -0.00001
    C7       Y    -0.00001   0.00002   0.00002  -0.00000  -0.00002  -0.00000
    C7       Z     0.00000   0.00001  -0.00003   0.00000  -0.00002   0.00003
    C8       X    -0.00017  -0.00009   0.00060  -0.00002   0.00001  -0.00000
    C8       Y     0.00015  -0.00000  -0.00194   0.00002   0.00003   0.00004
    C8       Z     0.00034   0.00008  -0.00269   0.00005   0.00003   0.00006
    C9       X     0.00001  -0.00002   0.00072   0.00001   0.00000  -0.00042
    C9       Y     0.00000   0.00001  -0.00076   0.00001   0.00000   0.00050
    C9       Z     0.00004   0.00009  -0.00236  -0.00001  -0.00001   0.00093
    C10      X    -0.00001   0.00001   0.00002   0.00001  -0.00001  -0.00009
    C10      Y    -0.00001   0.00001   0.00001   0.00000  -0.00002   0.00006
    C10      Z     0.00002   0.00003  -0.00001  -0.00008   0.00007  -0.00005
    C11      X    -0.00001  -0.00000   0.00004   0.00009  -0.00008   0.00023
    C11      Y     0.00000  -0.00002  -0.00001   0.00002  -0.00001  -0.00031
    C11      Z     0.00003   0.00001   0.00007  -0.00009   0.00008   0.00118
    C12      X    -0.00027  -0.00009  -0.00000   0.00067  -0.00065   0.00001
    C12      Y     0.00028   0.00008  -0.00000  -0.00057   0.00066   0.00005
    C12      Z     0.00069   0.00028   0.00002  -0.00172   0.00160  -0.00001
    C13      X     0.00001   0.00001   0.00001   0.00002  -0.00001   0.00001
    C13      Y     0.00000  -0.00000   0.00004   0.00003  -0.00001   0.00005
    C13      Z    -0.00001   0.00002   0.00002   0.00003  -0.00003   0.00002
    C14      X    -0.00006   0.00002   0.00002  -0.00001  -0.00001  -0.00000
    C14      Y    -0.00003   0.00018   0.00001   0.00007  -0.00004  -0.00001
    C14      Z     0.00013   0.00011  -0.00002  -0.00009   0.00015   0.00001
    C15      X     0.00001   0.00010  -0.00001   0.00008  -0.00007   0.00001
    C15      Y    -0.00019  -0.00015   0.00000  -0.00018   0.00002  -0.00001
    C15      Z     0.00012  -0.00003   0.00002   0.00011  -0.00011  -0.00001
    C16      X    -0.00001  -0.00011  -0.00003   0.00001   0.00004   0.00000
    C16      Y    -0.00019  -0.00021   0.00000   0.00008  -0.00010   0.00004
    C16      Z     0.00004   0.00019   0.00001  -0.00008   0.00004  -0.00003
    C17      X     0.00011   0.00001  -0.00004  -0.00129   0.00178   0.00005
    C17      Y     0.00068   0.00029  -0.00003   0.00121  -0.00102   0.00002
    C17      Z    -0.00211  -0.00079   0.00003  -0.00041  -0.00068  -0.00002
    C18      X     0.04608   0.01684  -0.00042   0.01600   0.00648   0.00005
    C18      Y    -0.03399  -0.01244   0.00031  -0.01128  -0.00469  -0.00004
    C18      Z     0.00104   0.00044  -0.00006  -0.00106   0.00004   0.00004
    C19      X     0.00633   0.00222   0.00000   0.00860   0.00438   0.00003
    C19      Y    -0.01633  -0.00576   0.00003  -0.01542  -0.00726  -0.00004
    C19      Z     0.03429   0.01212  -0.00010   0.02782   0.01240   0.00003
    C20      X     0.00904   0.00331  -0.00036  -0.03418  -0.02006  -0.00006
    C20      Y    -0.00002  -0.00003   0.00004   0.00569   0.00215   0.00002
    C20      Z    -0.01574  -0.00573   0.00052   0.04427   0.02912   0.00005
    C21      X     0.02490   0.00858  -0.00034  -0.00809  -0.03953  -0.00015
    C21      Y    -0.01793  -0.00620   0.00025   0.00716   0.02760   0.00009
    C21      Z     0.00301   0.00105  -0.00006  -0.00434  -0.00277   0.00002
    C22      X    -0.00620  -0.00227   0.00006   0.01407  -0.01496  -0.00002
    C22      Y     0.00737   0.00271  -0.00009  -0.01910   0.02231   0.00010
    C22      Z    -0.01499  -0.00555   0.00007   0.04282  -0.05250  -0.00013
    C23      X     0.00023  -0.00082   0.00001  -0.00004   0.00000  -0.00000
    C23      Y     0.00054  -0.00138  -0.00000  -0.00002   0.00002  -0.00000
    C23      Z     0.00006  -0.00004  -0.00001  -0.00002   0.00004   0.00000
    C24      X    -0.00910   0.02608  -0.00004   0.00066  -0.00036   0.00001
    C24      Y     0.00837  -0.02381   0.00003  -0.00050   0.00030  -0.00001
    C24      Z     0.00241  -0.00693   0.00001  -0.00017   0.00010  -0.00000
    C25      X    -0.01454   0.04082   0.00005  -0.00004  -0.00014  -0.00001
    C25      Y    -0.00509   0.01435   0.00002   0.00003  -0.00008  -0.00000
    C25      Z     0.00088  -0.00250  -0.00001   0.00001   0.00000   0.00000
    C26      X    -0.00284   0.00778   0.00002  -0.00005   0.00000  -0.00000
    C26      Y    -0.01606   0.04451   0.00010  -0.00018  -0.00004  -0.00001
    C26      Z    -0.00195   0.00539   0.00001  -0.00002  -0.00001  -0.00000
    C27      X     0.00950  -0.02594  -0.00010   0.00011   0.00004   0.00001
    C27      Y    -0.00731   0.01988   0.00008  -0.00009  -0.00002  -0.00001
    C27      Z    -0.00192   0.00518   0.00002  -0.00002  -0.00002  -0.00000
    C28      X     0.00656  -0.01694  -0.00010   0.00016  -0.00003   0.00001
    C28      Y     0.00288  -0.00743  -0.00004   0.00008  -0.00001   0.00000
    C28      Z    -0.00017   0.00043   0.00000  -0.00000  -0.00000   0.00000
    H29      X    -0.00020  -0.00050   0.00087   0.00003  -0.00001   0.00018
    H29      Y     0.00033   0.00071  -0.00129  -0.00002   0.00004  -0.00026
    H29      Z    -0.00058  -0.00119   0.00242   0.00003  -0.00007   0.00046
    H30      X     0.00008   0.00040  -0.00031  -0.00000   0.00001  -0.00006
    H30      Y     0.00015   0.00127  -0.00086  -0.00010  -0.00004  -0.00022
    H30      Z     0.00003   0.00012  -0.00007  -0.00000  -0.00000  -0.00002
    H31      X    -0.00035   0.00021   0.00047  -0.00018  -0.00015   0.00004
    H31      Y    -0.00002  -0.00003   0.00005   0.00000  -0.00002   0.00000
    H31      Z     0.00002   0.00001  -0.00007   0.00002  -0.00002   0.00001
    H32      X     0.00074   0.00017  -0.00704   0.00012   0.00008   0.00019
    H32      Y    -0.00211  -0.00046   0.01433  -0.00038  -0.00015  -0.00045
    H32      Z    -0.00419  -0.00099   0.03273  -0.00068  -0.00037  -0.00089
    H33      X     0.00110   0.00064  -0.00524   0.00005  -0.00004   0.00004
    H33      Y    -0.00010  -0.00008   0.00055   0.00001   0.00001  -0.00001
    H33      Z    -0.00010  -0.00006   0.00007  -0.00001  -0.00001   0.00004
    H34      X     0.00004   0.00021   0.00492   0.00003  -0.00010  -0.00008
    H34      Y     0.00040   0.00050   0.00848   0.00007  -0.00022  -0.00011
    H34      Z     0.00028   0.00005   0.00068   0.00008  -0.00002   0.00004
    H35      X    -0.00003  -0.00011   0.00166   0.00002   0.00002  -0.00031
    H35      Y     0.00019   0.00035  -0.00481  -0.00006  -0.00001   0.00065
    H35      Z    -0.00023  -0.00043   0.00590   0.00008   0.00003  -0.00046
    H36      X    -0.00026   0.00027  -0.00254  -0.00015  -0.00009   0.00191
    H36      Y     0.00000  -0.00000   0.00043   0.00000  -0.00001  -0.00036
    H36      Z     0.00000   0.00003  -0.00066  -0.00000  -0.00001   0.00024
    H37      X     0.00010   0.00025  -0.00788   0.00001  -0.00002   0.00366
    H37      Y    -0.00015  -0.00046   0.01352  -0.00001   0.00003  -0.00638
    H37      Z    -0.00023  -0.00078   0.02379  -0.00001   0.00006  -0.01143
    H38      X    -0.00007   0.00003  -0.00077  -0.00048   0.00033  -0.01076
    H38      Y    -0.00003  -0.00002  -0.00019  -0.00010   0.00005  -0.00333
    H38      Z    -0.00004   0.00000  -0.00008  -0.00007   0.00000  -0.00127
    H39      X     0.00017   0.00005   0.00043  -0.00060   0.00050   0.00926
    H39      Y    -0.00004  -0.00003  -0.00008   0.00015  -0.00011  -0.00288
    H39      Z    -0.00029  -0.00007  -0.00053   0.00107  -0.00095  -0.01618
    H40      X    -0.00000  -0.00014  -0.00016   0.00014  -0.00003  -0.00280
    H40      Y    -0.00000   0.00030   0.00030  -0.00024   0.00004   0.00419
    H40      Z    -0.00003  -0.00022  -0.00034   0.00020  -0.00003  -0.00458
    H41      X     0.00471   0.00182   0.00010  -0.01179   0.01152   0.00003
    H41      Y     0.00057   0.00018  -0.00001  -0.00146   0.00202   0.00010
    H41      Z    -0.00795  -0.00304  -0.00011   0.01995  -0.01943   0.00006
    H42      X    -0.00042  -0.00010  -0.00001   0.00084  -0.00087  -0.00018
    H42      Y    -0.00323  -0.00116  -0.00006   0.00694  -0.00735  -0.00073
    H42      Z    -0.00138  -0.00044  -0.00002   0.00283  -0.00320  -0.00036
    H43      X    -0.00038  -0.00034  -0.00000   0.00118  -0.00086   0.00018
    H43      Y     0.00053   0.00054   0.00006  -0.00181   0.00106  -0.00023
    H43      Z    -0.00031  -0.00040  -0.00004   0.00120  -0.00051   0.00022
    H44      X    -0.00018  -0.00002  -0.00023  -0.00025  -0.00007  -0.00014
    H44      Y    -0.00006  -0.00002  -0.00004  -0.00008  -0.00001   0.00001
    H44      Z     0.00001   0.00002  -0.00002  -0.00008   0.00007   0.00001
    H45      X     0.00004  -0.00012   0.00002   0.00003   0.00007   0.00006
    H45      Y    -0.00004   0.00022   0.00000  -0.00008  -0.00004  -0.00010
    H45      Z     0.00003  -0.00018  -0.00000   0.00009   0.00001   0.00014
    H46      X     0.00002   0.00001  -0.00002  -0.00003   0.00004  -0.00000
    H46      Y     0.00004  -0.00026  -0.00037  -0.00019   0.00011  -0.00072
    H46      Z     0.00001  -0.00009  -0.00022  -0.00012   0.00003  -0.00049
    H47      X     0.00070   0.00027   0.00010   0.00009  -0.00010  -0.00002
    H47      Y     0.00035   0.00000   0.00004  -0.00000  -0.00005   0.00001
    H47      Z     0.00025   0.00024   0.00000  -0.00003   0.00010   0.00000
    H48      X    -0.00121   0.00044   0.00023   0.00003  -0.00062   0.00010
    H48      Y     0.00101  -0.00036  -0.00025  -0.00004   0.00059  -0.00008
    H48      Z     0.00025  -0.00019  -0.00005   0.00009   0.00003   0.00001
    H49      X     0.00022   0.00089   0.00002  -0.00029   0.00019  -0.00012
    H49      Y     0.00099   0.00258   0.00013  -0.00094   0.00054  -0.00040
    H49      Z    -0.00072  -0.00232  -0.00012   0.00089  -0.00033   0.00039
    H50      X    -0.51362  -0.18787   0.00470  -0.17175  -0.06716  -0.00052
    H50      Y     0.38584   0.14109  -0.00353   0.12817   0.05039   0.00041
    H50      Z    -0.02723  -0.01008   0.00030  -0.00733  -0.00329  -0.00004
    H51      X    -0.09540  -0.03360   0.00022  -0.08432  -0.03830  -0.00012
    H51      Y     0.19240   0.06786  -0.00053   0.16328   0.07320   0.00024
    H51      Z    -0.36639  -0.12923   0.00104  -0.30542  -0.13595  -0.00046
    H52      X    -0.12014  -0.04393   0.00424   0.37533   0.22765   0.00053
    H52      Y     0.01695   0.00624  -0.00064  -0.05940  -0.03470  -0.00008
    H52      Z     0.16531   0.06041  -0.00569  -0.49926  -0.30688  -0.00073
    H53      X    -0.28511  -0.09838   0.00380   0.09686   0.42949   0.00152
    H53      Y     0.20184   0.06966  -0.00271  -0.07068  -0.30194  -0.00104
    H53      Z    -0.02254  -0.00779   0.00032   0.01204   0.03136   0.00010
    H54      X     0.06001   0.02211  -0.00032  -0.15901   0.18362   0.00042
    H54      Y    -0.08155  -0.03021   0.00047   0.22046  -0.25778  -0.00062
    H54      Z     0.18377   0.06799  -0.00093  -0.50103   0.58956   0.00133
    H55      X     0.10484  -0.29961   0.00044  -0.00715   0.00384  -0.00014
    H55      Y    -0.08804   0.25169  -0.00033   0.00539  -0.00298   0.00008
    H55      Z    -0.02688   0.07673  -0.00009   0.00183  -0.00116   0.00001
    H56      X     0.15784  -0.44329  -0.00058   0.00032   0.00175   0.00014
    H56      Y     0.05717  -0.16069  -0.00020   0.00006   0.00069   0.00005
    H56      Z    -0.00953   0.02679   0.00004  -0.00000  -0.00009  -0.00001
    H57      X     0.03227  -0.08931  -0.00022   0.00038   0.00009   0.00003
    H57      Y     0.17546  -0.48591  -0.00115   0.00217   0.00039   0.00017
    H57      Z     0.02104  -0.05824  -0.00014   0.00026   0.00006   0.00002
    H58      X    -0.10078   0.27448   0.00105  -0.00123  -0.00032  -0.00011
    H58      Y     0.08251  -0.22462  -0.00088   0.00102   0.00028   0.00009
    H58      Z     0.02077  -0.05648  -0.00022   0.00026   0.00008   0.00002
    H59      X    -0.07308   0.18779   0.00111  -0.00189   0.00060  -0.00006
    H59      Y    -0.02745   0.07072   0.00041  -0.00071   0.00019  -0.00003
    H59      Z     0.00266  -0.00660  -0.00005   0.00006   0.00000   0.00000
  
  Number of imaginary frequencies:   0
   
  Writing vibrational animation data to ox_add_Ar_trans_L1_PL747.vib
  Writing IR vibrational spectrum data to ox_add_Ar_trans_L1_PL747_vib.spm
  rotational symmetry number:  1

  rotational temperatures (K):      0.006897      0.004068      0.003247
   
  The Quasi-Harmonic approximation will be applied to compute
  vibrational constributions to thermodynamic properties.
  Frequencies will be adjusted to a minimum value of  100.00 cm^-1.

  vibrational temperatures:
       mode:      1        2        3        4        5        6
  temp. (K):   143.88   143.88   143.88   143.88   143.88   143.88
   
       mode:      7        8        9       10       11       12
  temp. (K):   143.88   143.88   143.88   143.88   149.42   161.00
   
       mode:     13       14       15       16       17       18
  temp. (K):   164.25   177.57   189.17   202.53   205.64   216.95
   
       mode:     19       20       21       22       23       24
  temp. (K):   245.95   251.72   266.69   286.21   293.35   309.65
   
       mode:     25       26       27       28       29       30
  temp. (K):   334.38   343.58   348.87   354.93   362.93   366.89
   
       mode:     31       32       33       34       35       36
  temp. (K):   369.56   391.39   412.91   420.90   424.29   434.12
   
       mode:     37       38       39       40       41       42
  temp. (K):   465.10   482.18   498.40   512.26   537.00   571.85
   
       mode:     43       44       45       46       47       48
  temp. (K):   574.64   584.68   588.93   592.20   599.06   605.35
   
       mode:     49       50       51       52       53       54
  temp. (K):   617.66   622.93   663.50   677.34   708.81   741.60
   
       mode:     55       56       57       58       59       60
  temp. (K):   755.60   793.70   832.20   846.52   883.59   895.60
   
       mode:     61       62       63       64       65       66
  temp. (K):   901.95   911.71   912.56   952.91  1005.44  1013.59
   
       mode:     67       68       69       70       71       72
  temp. (K):  1034.66  1044.05  1100.86  1112.56  1165.28  1187.35
   
       mode:     73       74       75       76       77       78
  temp. (K):  1191.33  1195.77  1203.06  1212.53  1242.45  1256.68
   
       mode:     79       80       81       82       83       84
  temp. (K):  1334.91  1353.05  1365.79  1372.41  1373.91  1381.21
   
       mode:     85       86       87       88       89       90
  temp. (K):  1384.60  1387.49  1391.61  1407.37  1425.33  1429.18
   
       mode:     91       92       93       94       95       96
  temp. (K):  1442.81  1460.17  1465.06  1465.49  1468.72  1476.01
   
       mode:     97       98       99      100      101      102
  temp. (K):  1482.86  1495.42  1503.21  1516.01  1517.67  1524.55
   
       mode:    103      104      105      106      107      108
  temp. (K):  1530.49  1534.17  1551.17  1605.24  1614.48  1625.30
   
       mode:    109      110      111      112      113      114
  temp. (K):  1666.07  1721.69  1733.77  1737.66  1739.53  1745.52
   
       mode:    115      116      117      118      119      120
  temp. (K):  1752.32  1758.01  1762.13  1777.64  1785.16  1787.58
   
       mode:    121      122      123      124      125      126
  temp. (K):  1803.16  1843.66  1885.26  1897.56  1925.81  1932.94
   
       mode:    127      128      129      130      131      132
  temp. (K):  1941.32  1981.62  1992.15  2045.87  2048.49  2052.76
   
       mode:    133      134      135      136      137      138
  temp. (K):  2054.75  2056.54  2070.28  2095.27  2108.58  2132.25
   
       mode:    139      140      141      142      143      144
  temp. (K):  2145.27  2156.60  2160.06  2162.84  2170.32  2172.50
   
       mode:    145      146      147      148      149      150
  temp. (K):  2176.25  2181.11  2191.97  2195.13  2198.57  2202.54
   
       mode:    151      152      153      154      155      156
  temp. (K):  2206.85  2213.84  2216.88  2219.42  2232.52  2235.13
   
       mode:    157      158      159      160      161      162
  temp. (K):  2337.65  2364.11  2368.12  2378.15  2386.95  2393.99
   
       mode:    163      164      165      166      167      168
  temp. (K):  2402.76  4384.14  4385.00  4386.69  4391.64  4393.16
   
       mode:    169      170      171      172      173      174
  temp. (K):  4399.44  4418.10  4483.31  4489.74  4494.45  4496.98
   
       mode:    175      176      177      178      179      180
  temp. (K):  4502.01  4506.57  4526.74  4527.72  4549.12  4552.25
   
       mode:    181      182      183      184      185      186
  temp. (K):  4580.69  4590.79  4591.33  4595.19  4598.04  4600.46
   
       mode:    187      188      189      190      191      192
  temp. (K):  4604.59  4604.67  4606.52  4614.17  4614.76  4619.63
   
       mode:    193      194      195      196      197      198
  temp. (K):  4624.82  4624.93  4631.47  4637.15  4648.97  4680.32
   
   
  Thermodynamic properties calculated assuming an ideal gas

  In the table below, the units for temperature
  are kelvins, the units for U, H, and G are
  kcal/mol and the units for Cv and S are cal/(mol K)

  The zero point energy (ZPE):    357.861 kcal/mol
  is not included in U, H, or G in the table below
  
 
  =============================================================================
  Thermodynamic properties for P = 1.00E+00 atm, calculated at   1 temperatures


  T =   298.15 K, P = 1.00E+00 atm
   
                  U         Cv          S          H          G        ln(Q)
              =========  =========  =========  =========  =========  =========
  trans.          0.889      2.981     45.147      1.481    -11.979   20.21902
  rot.            0.889      2.981     37.209      0.889    -10.205   17.22444
  vib.           19.798    129.290    119.799     19.798    -15.920   26.86911
  elec.           0.000      0.000      0.000      0.000      0.000    0.00000
  ----------------------------------------------------------------------------
  total          21.576    135.251    202.155     22.168    -38.104   64.31258
   
   Total internal energy, Utot(SCFE + ZPE + U):   -1706.392128 hartrees
   Total enthalpy, Htot (Utot + nRT), with n=1:   -1706.391184 hartrees
    Total Gibbs free energy, Gtot (Htot - T*S):   -1706.487235 hartrees
   
  end of program freq
   
 Time(freq)  user:       0.361  user+sys:       0.361  wallclock:       0.387
  
  start of program post
  
  Writing input files for PBF
  end of program post
   
 Time(post)  user:       0.191  user+sys:       0.191  wallclock:       0.108

 Total cpu seconds     user:   63203.803   user+sys:   63203.803
  
 Total elapsed time:    36387 seconds

Job ox_add_Ar_trans_L1_PL747 completed on bp1-compute055.data.bp.acrc.priv at Fri Apr  4 02:08:30 2025
