Job ox_add_L_trans_L1_PL747 started on bp1-compute050.data.bp.acrc.priv at Tue Apr  1 12:04:10 2025
jobid: bp1-compute050-0-67ebc812

  +--------------------------------------------------------------------+
  |  Jaguar version 12.5, release 138                                  |
  |                                                                    |
  |  Copyright Schrodinger, Inc.                                       |
  |  All Rights Reserved.                                              |
  |                                                                    |
  |  The following have contributed to Jaguar (listed alphabetically): |
  |  Ty Balduf, Mike Beachy, Chandler Bennett, Art Bochevarov,         |
  |  Dale Braden, Yixiang Cao, Alan Chien, Chris Cortis,               |
  |  Rich Friesner, Jim Furness, Bill Goddard, Hod Greeley,            |
  |  Tom Hughes, Leif Jacobson, Jean-Marc Langlois, Daniel Levine,     |
  |  Rob Murphy, Dean Philipp, Tom Pollard, Murco Ringnalda,           |
  |  Daniel Mainz, Pablo Videla, Mark Watson, Haoyu Yu.                |
  |                                                                    |
  |  Use of this program should be acknowledged in publications as:    |
  |                                                                    |
  |  Jaguar, version 12.5, Schrodinger, Inc., New York, NY, 2024.      |
  |                                                                    |
  |  A. D. Bochevarov, E. Harder, T. F. Hughes, J. R. Greenwood,       |
  |  D. A. Braden, D. M. Philipp, D. Rinaldo, M. D. Halls,             |
  |  J. Zhang, R. A. Friesner, "Jaguar: A High-Performance Quantum     |
  |  Chemistry Software Program with Strengths in Life and Materials   |
  |  Sciences", Int. J. Quantum Chem., 2013, 113(18), 2110-2142.       |
  +--------------------------------------------------------------------+
  
  start of program pre
  
  Job name: ox_add_L_trans_L1_PL747
  Executables used: /software/local/apps/schrodinger2024-3/jaguar-v12.5/bin/Linux-x86_64
  Temporary files : /tmp/ar21627/ox_add_L_trans_L1_PL747#bp1-compute050-0-67ebc812
  Basis file : using default basis file from /software/local/apps/schrodinger2024-3
  Maestro file (input):  ox_add_L_trans_L1_PL747.mae
  Maestro file (output): ox_add_L_trans_L1_PL747.01.mae
  
 Contents of input file: &gen and (if present) &atomic sections only
 ----------------Contents start----------------
&gen
dftname=b3pw91-d3
basis=6-31G*
numd=5
ip11=2
iaccg=3
isolv=2
igeopt=1
solvent=benzene
ifreq=1
&
&atomic
atom basis
Pd2 lacv3p*
Br3 lacv3p*
&
 -----------------Contents end-----------------
 
  PS calculation requested. Using PS version of 6-31g*
  basis set:               non_standard                    
  net molecular charge:    0
  multiplicity:            1
  
  Using up to   4 threads per process
  
  This run will use ECP on            2  atoms
  number of basis functions....          548
  
 Input geometry:
                                   angstroms
  atom               x                 y                 z
  P1            0.0000000000      0.0000000000      0.0000000000 
  Pd2           0.0000000000      0.0000000000      2.2562152928 
  Br3           2.3182936285     -1.0909061749      2.3261133603 
  C73          -4.2530423241      2.0902334560      2.0947457622 
  C74          -4.0446660312      0.9323516079      1.3627272110 
  C75          -2.7972830069      0.3079971901      1.4299117703 
  C76          -1.7823307727      0.8361325291      2.2319228250 
  C77          -2.0219553240      2.0076691500      2.9559801344 
  C78          -3.2626205036      2.6404899100      2.8930253267 
  F79          -5.4561637533      2.7052274218      2.0223188312 
  H80          -4.8473836145      0.5335946184      0.7495465053 
  H81          -2.6143333768     -0.5828678753      0.8393585632 
  H82          -1.2328010905      2.4470943063      3.5566793585 
  H83          -3.4638752855      3.5532710544      3.4448638389 
  C6            2.3746717556      0.7430672165     -1.6188703361 
  C7            1.8417756257      0.2769820460     -0.2399989394 
  C8            2.6389890585     -1.0273521210      0.0431319903 
  C9            2.3527113384      1.3027534674      0.7875606396 
  C10          -1.0442422168      1.0525620250     -1.2245682407 
  C11          -1.4860189141      2.4068635562     -0.6186336630 
  C12          -2.3367912708      0.3331721453     -1.7052096288 
  C13          -0.3250889897      1.4259492335     -2.5340722034 
  C14          -0.6347117209     -1.6922415293     -0.3828062666 
  C15          -1.1885701694     -2.6096925774      0.4664907329 
  C16          -0.5605160079     -1.9444321385     -1.8690161754 
  C17          -1.5175655147     -2.3437013254      1.9114612228 
  C18          -0.6584104912     -2.7680812924      2.9576946046 
  C19          -0.8925232415     -2.5305734446      4.3191486958 
  C20          -2.0259725394     -1.8168183973      4.7316331461 
  C21          -2.8932774627     -1.3512910896      3.7415288608 
  C22          -2.6222843834     -1.6140052056      2.3850230392 
  C23          -1.4786153517     -3.9920626443     -0.0367217377 
  C24          -2.5537602645     -4.7520981477      0.4899721490 
  C25          -2.8886760116     -6.0446057533      0.0492766399 
  C26          -2.1379588008     -6.6591514046     -0.9614940125 
  C27          -1.0635854304     -5.9481872256     -1.5148038689 
  C28          -0.7633944701     -4.6550703177     -1.0570549751 
  H29           1.9785655827      1.7129715587     -1.9611977039 
  H30           2.2044453144     -0.0029606908     -2.4314374535 
  H31           3.4779438366      0.8885834963     -1.6041826702 
  H32           2.5158830780     -1.3780982066      1.0854117517 
  H33           3.7299918956     -0.8854753264     -0.0942862931 
  H34           2.3288642162     -1.8356249073     -0.6534436947 
  H35           1.8374069223      2.2836284213      0.7063837733 
  H36           3.4375358523      1.5032844255      0.6788219207 
  H37           2.2240198514      0.9387296566      1.8321864895 
  H38          -0.6157427779      3.0122505336     -0.2973626647 
  H39          -2.1831377681      2.2877233763      0.2375526023 
  H40          -2.0479247989      3.0245050227     -1.3585909559 
  H41          -3.0368992754      0.0578162296     -0.8875143619 
  H42          -2.1139318149     -0.5972890217     -2.2671034618 
  H43          -2.9294144919      0.9726865205     -2.3898585036 
  H44           0.5506695379      2.0950297279     -2.3609297955 
  H45          -0.9761293915      2.0030120040     -3.2222182302 
  H46          -0.0026444036      0.5379374497     -3.1141278566 
  H47          -1.3264289729     -2.6513459398     -2.2553582614 
  H48           0.4654561890     -2.2508356558     -2.1837127528 
  H49          -0.8125332427     -1.0235792359     -2.4400654248 
  H50           0.2935568323     -3.2715401030      2.7565766273 
  H51          -0.1758914747     -2.8853141490      5.0767257172 
  H52          -2.2213074357     -1.6207036634      5.7985386196 
  H53          -3.7905468803     -0.7772240247      4.0215620682 
  H54          -3.3627082097     -1.2113336932      1.7005252594 
  H55          -3.2325968830     -4.3277019012      1.2480420410 
  H56          -3.7428703628     -6.5825797008      0.4991622278 
  H57          -2.3794586944     -7.6727309821     -1.3073758444 
  H58          -0.4589541665     -6.4179402324     -2.3092553447 
  H59           0.1256455488     -4.2042684108     -1.5281021974 
   
  principal moments of inertia:
        amu*angstrom^2:              4395.22253              5058.81941              5845.12985
                g*cm^2:          7.29843781E-37          8.40036621E-37          9.70606526E-37
   
  rotational constants:
               cm^(-1):      0.00383544      0.00333232      0.00288405
                   GHz:      0.11498371      0.09990058      0.08646155
   
  Molecular weight:     618.07 amu
   
  Stoichiometry: PdC29PH35BrF
  Molecular Point Group: C1      
  Point Group used: C1
  
 
Number of optimization coordinates:   233
Number of independent coordinates:    233
Number of non-redundant coordinates:  198
Number of frozen coordinates:           0
Number of harmonic constraints:         0
 
Number of geometric degrees of freedom:   198
Maximum geometric degrees of freedom:     198
 " " " " " excluding dummy atoms:         198
 
 
  bond lengths (angstroms):
 
 P1      -Pd2     :   2.256215      P1      -C7      :   1.877886
 P1      -C10     :   1.922991      P1      -C14     :   1.847453
 Pd2     -Br3     :   2.563093      Pd2     -C76     :   1.968860
 Br3     -H32     :   1.288744      C73     -C74     :   1.385627
 C73     -C78     :   1.385990      C73     -F79     :   1.353131
 C74     -C75     :   1.396530      C74     -H80     :   1.085980
 C75     -C76     :   1.397239      C75     -H81     :   1.084373
 C76     -C77     :   1.397919      C77     -C78     :   1.394158
 C77     -H82     :   1.084757      C78     -H83     :   1.085449
 C6      -C7      :   1.550000      C6      -H29     :   1.102181
 C6      -H30     :   1.116154      C6      -H31     :   1.112924
 C7      -C8      :   1.554670      C7      -C9      :   1.539201
 C8      -H32     :   1.106583      C8      -H33     :   1.108738
 C8      -H34     :   1.111171      C9      -H35     :   1.110965
 C9      -H36     :   1.108549      C9      -H37     :   1.113696
 C10     -C11     :   1.548049      C10     -C12     :   1.555385
 C10     -C13     :   1.539935      C11     -H38     :   1.107740
 C11     -H39     :   1.110506      C11     -H40     :   1.115686
 C12     -H41     :   1.111124      C12     -H42     :   1.109572
 C12     -H43     :   1.108569      C13     -H44     :   1.115616
 C13     -H45     :   1.109234      C13     -H46     :   1.108603
 C14     -C15     :   1.367399      C14     -C16     :   1.509280
 C15     -C17     :   1.505632      C15     -C23     :   1.499432
 C16     -H47     :   1.111580      C16     -H48     :   1.116036
 C16     -H49     :   1.112466      C17     -C18     :   1.418749
 C17     -C22     :   1.406101      C18     -C19     :   1.401705
 C18     -H50     :   1.095519      C19     -C20     :   1.401534
 C19     -H51     :   1.101510      C20     -C21     :   1.396152
 C20     -H52     :   1.102227      C21     -C22     :   1.408036
 C21     -H53     :   1.101392      C22     -H54     :   1.085776
 C23     -C24     :   1.418096      C23     -C28     :   1.411453
 C24     -C25     :   1.406043      C24     -H55     :   1.102543
 C25     -C26     :   1.401035      C25     -H56     :   1.105197
 C26     -C27     :   1.402106      C26     -H57     :   1.097862
 C27     -C28     :   1.404208      C27     -H58     :   1.103359
 C28     -H59     :   1.102497
 
  bond angles:
 
 C7      -P1      -Pd2     :  97.342638  C10     -P1      -Pd2     : 129.553898
 C10     -P1      -C7      : 111.744572  C14     -P1      -Pd2     : 101.958762
 C14     -P1      -C7      : 116.460285  C14     -P1      -C10     : 100.536212
 Br3     -Pd2     -P1      :  91.562706  C76     -Pd2     -P1      :  89.293047
 C76     -Pd2     -Br3     : 179.141579  H32     -Br3     -Pd2     : 101.962396
 C78     -C73     -C74     : 121.909126  F79     -C73     -C74     : 119.027529
 F79     -C73     -C78     : 119.062389  C75     -C74     -C73     : 118.848879
 H80     -C74     -C73     : 119.601754  H80     -C74     -C75     : 121.548898
 C76     -C75     -C74     : 120.493887  H81     -C75     -C74     : 119.458344
 H81     -C75     -C76     : 120.038367  C75     -C76     -Pd2     : 120.274260
 C77     -C76     -Pd2     : 120.310758  C77     -C76     -C75     : 119.311759
 C78     -C77     -C76     : 120.634266  H82     -C77     -C76     : 120.106568
 H82     -C77     -C78     : 119.244040  C77     -C78     -C73     : 118.797858
 H83     -C78     -C73     : 119.615841  H83     -C78     -C77     : 121.583776
 H29     -C6      -C7      : 114.667671  H30     -C6      -C7      : 113.216762
 H30     -C6      -H29     : 107.893773  H31     -C6      -C7      : 111.616907
 H31     -C6      -H29     : 104.199965  H31     -C6      -H30     : 104.370416
 C6      -C7      -P1      : 119.685427  C8      -C7      -P1      : 110.848869
 C8      -C7      -C6      : 103.768090  C9      -C7      -P1      : 109.788049
 C9      -C7      -C6      : 106.222348  C9      -C7      -C8      : 105.505012
 H32     -C8      -C7      : 112.359211  H33     -C8      -C7      : 112.002951
 H33     -C8      -H32     : 105.472016  H34     -C8      -C7      : 110.670603
 H34     -C8      -H32     : 109.198763  H34     -C8      -H33     : 106.858970
 H35     -C9      -C7      : 112.683762  H36     -C9      -C7      : 112.328328
 H36     -C9      -H35     : 106.680106  H37     -C9      -C7      : 111.715700
 H37     -C9      -H35     : 107.669515  H37     -C9      -H36     : 105.320351
 C11     -C10     -P1      : 112.616616  C12     -C10     -P1      : 113.259062
 C12     -C10     -C11     : 106.764108  C13     -C10     -P1      : 114.874709
 C13     -C10     -C11     : 104.714106  C13     -C10     -C12     : 103.736378
 H38     -C11     -C10     : 111.557046  H39     -C11     -C10     : 112.772054
 H39     -C11     -H38     : 109.159948  H40     -C11     -C10     : 111.619353
 H40     -C11     -H38     : 106.587826  H40     -C11     -H39     : 104.748381
 H41     -C12     -C10     : 114.256512  H42     -C12     -C10     : 112.174739
 H42     -C12     -H41     : 106.942602  H43     -C12     -C10     : 111.609504
 H43     -C12     -H41     : 105.107199  H43     -C12     -H42     : 106.163418
 H44     -C13     -C10     : 112.336163  H45     -C13     -C10     : 112.308433
 H45     -C13     -H44     : 104.182669  H46     -C13     -C10     : 112.739674
 H46     -C13     -H44     : 109.468348  H46     -C13     -H45     : 105.237954
 C15     -C14     -P1      : 128.684936  C16     -C14     -P1      : 109.889446
 C16     -C14     -C15     : 121.292777  C17     -C15     -C14     : 124.475500
 C23     -C15     -C14     : 119.240168  C23     -C15     -C17     : 116.275301
 H47     -C16     -C14     : 114.496636  H48     -C16     -C14     : 111.637587
 H48     -C16     -H47     : 111.150763  H49     -C16     -C14     : 110.856140
 H49     -C16     -H47     : 101.064513  H49     -C16     -H48     : 106.904158
 C18     -C17     -C15     : 121.503772  C22     -C17     -C15     : 125.914389
 C22     -C17     -C18     : 112.497504  C19     -C18     -C17     : 124.362798
 H50     -C18     -C17     : 121.891101  H50     -C18     -C19     : 113.660382
 C20     -C19     -C18     : 120.478961  H51     -C19     -C18     : 120.316905
 H51     -C19     -C20     : 119.192149  C21     -C20     -C19     : 117.611883
 H52     -C20     -C19     : 121.252466  H52     -C20     -C21     : 121.132845
 C22     -C21     -C20     : 120.095366  H53     -C21     -C20     : 119.971301
 H53     -C21     -C22     : 119.933325  C21     -C22     -C17     : 124.924857
 H54     -C22     -C17     : 121.057891  H54     -C22     -C21     : 114.010856
 C24     -C23     -C15     : 121.072537  C28     -C23     -C15     : 125.285237
 C28     -C23     -C24     : 113.635329  C25     -C24     -C23     : 123.838833
 H55     -C24     -C23     : 121.055335  H55     -C24     -C25     : 115.004393
 C26     -C25     -C24     : 120.112978  H56     -C25     -C24     : 120.263401
 H56     -C25     -C26     : 119.623423  C27     -C26     -C25     : 118.220572
 H57     -C26     -C25     : 120.956461  H57     -C26     -C27     : 120.821812
 C28     -C27     -C26     : 120.140430  H58     -C27     -C26     : 119.219895
 H58     -C27     -C28     : 120.639506  C27     -C28     -C23     : 124.048634
 H59     -C28     -C23     : 121.695734  H59     -C28     -C27     : 114.183109
 C8      -H32     -Br3     : 148.561530
 
  torsional angles:
 
 P1      -Pd2     -Br3     -H32     :  -8.012212
 P1      -Pd2     -C76     -C75     :  48.891527
 P1      -Pd2     -C76     -C77     :-127.389362
 P1      -C7      -C6      -H29     :  60.423601
 P1      -C7      -C6      -H30     : -63.971781
 P1      -C7      -C6      -H31     : 178.610880
 P1      -C7      -C8      -H32     : -61.557565
 P1      -C7      -C8      -H33     : 179.931233
 P1      -C7      -C8      -H34     :  60.802319
 P1      -C7      -C9      -H35     : -59.094664
 P1      -C7      -C9      -H36     :-179.623589
 P1      -C7      -C9      -H37     :  62.275757
 P1      -C10     -C11     -H38     :  58.116114
 P1      -C10     -C11     -H39     : -65.152471
 P1      -C10     -C11     -H40     : 177.243530
 P1      -C10     -C12     -H41     :  59.561348
 P1      -C10     -C12     -H42     : -62.364252
 P1      -C10     -C12     -H43     : 178.637193
 P1      -C10     -C13     -H44     : -64.845351
 P1      -C10     -C13     -H45     : 178.096263
 P1      -C10     -C13     -H46     :  59.410745
 P1      -C14     -C15     -C17     :   6.457709
 P1      -C14     -C15     -C23     :-172.406568
 P1      -C14     -C16     -H47     :-151.247671
 P1      -C14     -C16     -H48     :  81.355884
 P1      -C14     -C16     -H49     : -37.714256
 Pd2     -P1      -C7      -C6      :-163.535311
 Pd2     -P1      -C7      -C8      :  75.784917
 Pd2     -P1      -C7      -C9      : -40.384384
 Pd2     -P1      -C10     -C11     :  26.616122
 Pd2     -P1      -C10     -C12     : -94.660115
 Pd2     -P1      -C10     -C13     : 146.381420
 Pd2     -P1      -C14     -C15     :  10.602308
 Pd2     -P1      -C14     -C16     :-173.606813
 Pd2     -Br3     -H32     -C8      :  62.347763
 Pd2     -C76     -C75     -C74     :-177.095593
 Pd2     -C76     -C75     -H81     :   1.782994
 Pd2     -C76     -C77     -C78     : 176.927632
 Pd2     -C76     -C77     -H82     :  -1.646969
 Br3     -Pd2     -P1      -C7      : -33.752539
 Br3     -Pd2     -P1      -C10     :-159.972660
 Br3     -Pd2     -P1      -C14     :  85.359641
 Br3     -Pd2     -C76     -C75     :-126.590519
 Br3     -Pd2     -C76     -C77     :  57.128592
 Br3     -H32     -C8      -C7      : -30.686456
 Br3     -H32     -C8      -H33     :  91.603385
 Br3     -H32     -C8      -H34     :-153.875489
 C73     -C74     -C75     -C76     :   0.605200
 C73     -C74     -C75     -H81     :-178.279856
 C73     -C78     -C77     -C76     :  -0.275010
 C73     -C78     -C77     -H82     : 178.311769
 C74     -C73     -C78     -C77     :   0.102037
 C74     -C73     -C78     -H83     : 179.533252
 C74     -C75     -C76     -C77     :  -0.777681
 C75     -C74     -C73     -C78     :  -0.266097
 C75     -C74     -C73     -F79     : 179.374734
 C75     -C76     -C77     -C78     :   0.611093
 C75     -C76     -C77     -H82     :-177.963508
 C76     -Pd2     -P1      -C7      : 146.315103
 C76     -Pd2     -P1      -C10     :  20.094982
 C76     -Pd2     -P1      -C14     : -94.572717
 C76     -Pd2     -Br3     -H32     : 167.468495
 C76     -C75     -C74     -H80     :-179.644890
 C76     -C77     -C78     -H83     :-179.694551
 C77     -C76     -C75     -H81     : 178.100905
 C77     -C78     -C73     -F79     :-179.538673
 C78     -C73     -C74     -H80     : 179.979021
 F79     -C73     -C74     -H80     :  -0.380148
 F79     -C73     -C78     -H83     :  -0.107458
 H80     -C74     -C75     -H81     :   1.470054
 H82     -C77     -C78     -H83     :  -1.107772
 C6      -C7      -P1      -C10     : -25.577571
 C6      -C7      -P1      -C14     :  89.156994
 C6      -C7      -C8      -H32     : 168.730180
 C6      -C7      -C8      -H33     :  50.218977
 C6      -C7      -C8      -H34     : -68.909937
 C6      -C7      -C9      -H35     :  71.659901
 C6      -C7      -C9      -H36     : -48.869024
 C6      -C7      -C9      -H37     :-166.969678
 C7      -P1      -C10     -C11     : -93.906048
 C7      -P1      -C10     -C12     : 144.817715
 C7      -P1      -C10     -C13     :  25.859250
 C7      -P1      -C14     -C15     : 115.159309
 C7      -P1      -C14     -C16     : -69.049812
 C8      -C7      -P1      -C10     :-146.257343
 C8      -C7      -P1      -C14     : -31.522778
 C8      -C7      -C6      -H29     :-175.418780
 C8      -C7      -C6      -H30     :  60.185837
 C8      -C7      -C6      -H31     : -57.231501
 C8      -C7      -C9      -H35     :-178.588850
 C8      -C7      -C9      -H36     :  60.882225
 C8      -C7      -C9      -H37     : -57.218429
 C9      -C7      -P1      -C10     :  97.573356
 C9      -C7      -P1      -C14     :-147.692079
 C9      -C7      -C6      -H29     : -64.445286
 C9      -C7      -C6      -H30     : 171.159331
 C9      -C7      -C6      -H31     :  53.741993
 C9      -C7      -C8      -H32     :  57.232106
 C9      -C7      -C8      -H33     : -61.279096
 C9      -C7      -C8      -H34     : 179.591989
 C10     -P1      -C14     -C15     :-123.944224
 C10     -P1      -C14     -C16     :  51.846655
 C11     -C10     -P1      -C14     : 141.891313
 C11     -C10     -C12     -H41     : -64.954754
 C11     -C10     -C12     -H42     : 173.119646
 C11     -C10     -C12     -H43     :  54.121091
 C11     -C10     -C13     -H44     :  59.211664
 C11     -C10     -C13     -H45     : -57.846722
 C11     -C10     -C13     -H46     :-176.532241
 C12     -C10     -P1      -C14     :  20.615076
 C12     -C10     -C11     -H38     :-176.975318
 C12     -C10     -C11     -H39     :  59.756098
 C12     -C10     -C11     -H40     : -57.847901
 C12     -C10     -C13     -H44     : 171.000437
 C12     -C10     -C13     -H45     :  53.942051
 C12     -C10     -C13     -H46     : -64.743467
 C13     -C10     -P1      -C14     : -98.343389
 C13     -C10     -C11     -H38     : -67.371767
 C13     -C10     -C11     -H39     : 169.359648
 C13     -C10     -C11     -H40     :  51.755650
 C13     -C10     -C12     -H41     :-175.241344
 C13     -C10     -C12     -H42     :  62.833056
 C13     -C10     -C12     -H43     : -56.165499
 C14     -C15     -C17     -C18     : -99.635098
 C14     -C15     -C17     -C22     :  76.768980
 C14     -C15     -C23     -C24     :-149.696363
 C14     -C15     -C23     -C28     :  29.285990
 C15     -C14     -C16     -H47     :  24.907935
 C15     -C14     -C16     -H48     :-102.488509
 C15     -C14     -C16     -H49     : 138.441351
 C15     -C17     -C18     -C19     : 178.726145
 C15     -C17     -C18     -H50     :   2.308983
 C15     -C17     -C22     -C21     :-178.439997
 C15     -C17     -C22     -H54     :   2.536328
 C15     -C23     -C24     -C25     : 179.109877
 C15     -C23     -C24     -H55     :   2.957507
 C15     -C23     -C28     -C27     :-179.550474
 C15     -C23     -C28     -H59     :   3.728784
 C16     -C14     -C15     -C17     :-168.909534
 C16     -C14     -C15     -C23     :  12.226189
 C17     -C15     -C23     -C24     :  31.347763
 C17     -C15     -C23     -C28     :-149.669883
 C17     -C18     -C19     -C20     :  -0.866591
 C17     -C18     -C19     -H51     :-179.597121
 C17     -C22     -C21     -C20     :   0.617818
 C17     -C22     -C21     -H53     :-179.415086
 C18     -C17     -C15     -C23     :  79.259704
 C18     -C17     -C22     -C21     :  -1.758124
 C18     -C17     -C22     -H54     : 179.218201
 C18     -C19     -C20     -C21     :  -0.456317
 C18     -C19     -C20     -H52     :-179.853482
 C19     -C18     -C17     -C22     :   1.877878
 C19     -C20     -C21     -C22     :   0.577604
 C19     -C20     -C21     -H53     :-179.389480
 C20     -C19     -C18     -H50     : 175.812513
 C20     -C21     -C22     -H54     : 179.702229
 C21     -C20     -C19     -H51     : 178.288383
 C22     -C17     -C15     -C23     :-104.336218
 C22     -C17     -C18     -H50     :-174.539284
 C22     -C21     -C20     -H52     : 179.975530
 C23     -C24     -C25     -C26     :   0.421801
 C23     -C24     -C25     -H56     :-179.740833
 C23     -C28     -C27     -C26     :   0.549223
 C23     -C28     -C27     -H58     :-179.299700
 C24     -C23     -C28     -C27     :  -0.501907
 C24     -C23     -C28     -H59     :-177.222650
 C24     -C25     -C26     -C27     :  -0.381911
 C24     -C25     -C26     -H57     : 179.230315
 C25     -C24     -C23     -C28     :   0.016620
 C25     -C26     -C27     -C28     :  -0.075670
 C25     -C26     -C27     -H58     : 179.775393
 C26     -C25     -C24     -H55     : 176.785067
 C26     -C27     -C28     -H59     : 177.490866
 C27     -C26     -C25     -H56     : 179.779681
 C28     -C23     -C24     -H55     :-176.135750
 C28     -C27     -C26     -H57     :-179.688441
 H50     -C18     -C19     -H51     :  -2.918018
 H51     -C19     -C20     -H52     :  -1.108782
 H52     -C20     -C21     -H53     :   0.008447
 H53     -C21     -C22     -H54     :  -0.330674
 H55     -C24     -C25     -H56     :  -3.377567
 H56     -C25     -C26     -H57     :  -0.608094
 H57     -C26     -C27     -H58     :   0.162623
 H58     -C27     -C28     -H59     :  -2.358057
 
  nuclear repulsion energy.......          4209.424348864 hartrees
  
  Detected an organometallic with only one TM atom. 
  
  Formal charge on ligand        1 is    -1
  Formal multiplet on ligand     1 is     1
  Oxidation state on metal       2 is     2
  Formal multiplet on metal      2 is     1
  Formal charge on ligand        3 is    -1
  Formal multiplet on ligand     3 is     1
  
 
  Will use High-Quality Initial guess for organometallics
       including d-d repulsion (iguess=30)
 
 Non-default options chosen:
   SCF calculation type: DFT(b3pw91-d3)              
   DFT=Becke_3_Parameter/HF+Slater+Becke88+PW91+PW-GGAIIC (B3PW91-D3)
   Geometry will be optimized in redundant internal coordinates
   Solvation energy will be computed using PBF
     -solute cavity energy will not be included
     -surface area terms will not be included
   Vibrational frequencies and related properties will be computed
      from analytic second derivatives
   IR intensities will be computed
   Thermochemical properties will be computed
   Maximum number of geometry steps: 100
   Scaling standard convergence criteria by a factor of   5.00
   Solvent: benzene                                                         
   Internal dielectric constant:    1.000
   Continuum dielectric constant:   2.283
   Solvent probe molecule radius:   2.600
  
 Non-default print settings:
     11=  2
  
 Temporary integer options set:
     21= -1  73=  2
  
  atom       vdw   vdw2    cov     mass  grid  daf  charge   basis
  P1        2.147  2.074  1.060   30.974    Y    Y      Y    ps_6-31g*
  Pd2       1.450  1.450  1.280  105.903    Y    Y      Y    lacv3p*
  Br3       2.095  2.095  1.140   78.918    Y    Y      Y    lav3p*
  C73       1.949  1.900  0.770   12.000    Y    Y      Y    ps_6-31g*
  C74       1.949  1.900  0.770   12.000    Y    Y      Y    ps_6-31g*
  C75       1.949  1.900  0.770   12.000    Y    Y      Y    ps_6-31g*
  C76       1.949  1.900  0.770   12.000    Y    Y      Y    ps_6-31g*
  C77       1.949  1.900  0.770   12.000    Y    Y      Y    ps_6-31g*
  C78       1.949  1.900  0.770   12.000    Y    Y      Y    ps_6-31g*
  F79       1.736  1.682  0.720   18.998    Y    Y      Y    ps_6-31g*
  H80       1.597  1.150  0.320    1.008    Y    Y      Y    ps_6-31g*
  H81       1.597  1.150  0.320    1.008    Y    Y      Y    ps_6-31g*
  H82       1.597  1.150  0.320    1.008    Y    Y      Y    ps_6-31g*
  H83       1.597  1.150  0.320    1.008    Y    Y      Y    ps_6-31g*
  C6        1.949  1.900  0.770   12.000    Y    Y      Y    ps_6-31g*
  C7        1.949  1.900  0.770   12.000    Y    Y      Y    ps_6-31g*
  C8        1.949  1.900  0.770   12.000    Y    Y      Y    ps_6-31g*
  C9        1.949  1.900  0.770   12.000    Y    Y      Y    ps_6-31g*
  C10       1.949  1.900  0.770   12.000    Y    Y      Y    ps_6-31g*
  C11       1.949  1.900  0.770   12.000    Y    Y      Y    ps_6-31g*
  C12       1.949  1.900  0.770   12.000    Y    Y      Y    ps_6-31g*
  C13       1.949  1.900  0.770   12.000    Y    Y      Y    ps_6-31g*
  C14       1.949  1.900  0.770   12.000    Y    Y      Y    ps_6-31g*
  C15       1.949  1.900  0.770   12.000    Y    Y      Y    ps_6-31g*
  C16       1.949  1.900  0.770   12.000    Y    Y      Y    ps_6-31g*
  C17       1.949  1.900  0.770   12.000    Y    Y      Y    ps_6-31g*
  C18       1.949  1.900  0.770   12.000    Y    Y      Y    ps_6-31g*
  C19       1.949  1.900  0.770   12.000    Y    Y      Y    ps_6-31g*
  C20       1.949  1.900  0.770   12.000    Y    Y      Y    ps_6-31g*
  C21       1.949  1.900  0.770   12.000    Y    Y      Y    ps_6-31g*
  C22       1.949  1.900  0.770   12.000    Y    Y      Y    ps_6-31g*
  C23       1.949  1.900  0.770   12.000    Y    Y      Y    ps_6-31g*
  C24       1.949  1.900  0.770   12.000    Y    Y      Y    ps_6-31g*
  C25       1.949  1.900  0.770   12.000    Y    Y      Y    ps_6-31g*
  C26       1.949  1.900  0.770   12.000    Y    Y      Y    ps_6-31g*
  C27       1.949  1.900  0.770   12.000    Y    Y      Y    ps_6-31g*
  C28       1.949  1.900  0.770   12.000    Y    Y      Y    ps_6-31g*
  H29       1.597  1.150  0.320    1.008    Y    Y      Y    ps_6-31g*
  H30       1.597  1.150  0.320    1.008    Y    Y      Y    ps_6-31g*
  H31       1.597  1.150  0.320    1.008    Y    Y      Y    ps_6-31g*
  H32       1.597  1.150  0.320    1.008    Y    Y      Y    ps_6-31g*
  H33       1.597  1.150  0.320    1.008    Y    Y      Y    ps_6-31g*
  H34       1.597  1.150  0.320    1.008    Y    Y      Y    ps_6-31g*
  H35       1.597  1.150  0.320    1.008    Y    Y      Y    ps_6-31g*
  H36       1.597  1.150  0.320    1.008    Y    Y      Y    ps_6-31g*
  H37       1.597  1.150  0.320    1.008    Y    Y      Y    ps_6-31g*
  H38       1.597  1.150  0.320    1.008    Y    Y      Y    ps_6-31g*
  H39       1.597  1.150  0.320    1.008    Y    Y      Y    ps_6-31g*
  H40       1.597  1.150  0.320    1.008    Y    Y      Y    ps_6-31g*
  H41       1.597  1.150  0.320    1.008    Y    Y      Y    ps_6-31g*
  H42       1.597  1.150  0.320    1.008    Y    Y      Y    ps_6-31g*
  H43       1.597  1.150  0.320    1.008    Y    Y      Y    ps_6-31g*
  H44       1.597  1.150  0.320    1.008    Y    Y      Y    ps_6-31g*
  H45       1.597  1.150  0.320    1.008    Y    Y      Y    ps_6-31g*
  H46       1.597  1.150  0.320    1.008    Y    Y      Y    ps_6-31g*
  H47       1.597  1.150  0.320    1.008    Y    Y      Y    ps_6-31g*
  H48       1.597  1.150  0.320    1.008    Y    Y      Y    ps_6-31g*
  H49       1.597  1.150  0.320    1.008    Y    Y      Y    ps_6-31g*
  H50       1.597  1.150  0.320    1.008    Y    Y      Y    ps_6-31g*
  H51       1.597  1.150  0.320    1.008    Y    Y      Y    ps_6-31g*
  H52       1.597  1.150  0.320    1.008    Y    Y      Y    ps_6-31g*
  H53       1.597  1.150  0.320    1.008    Y    Y      Y    ps_6-31g*
  H54       1.597  1.150  0.320    1.008    Y    Y      Y    ps_6-31g*
  H55       1.597  1.150  0.320    1.008    Y    Y      Y    ps_6-31g*
  H56       1.597  1.150  0.320    1.008    Y    Y      Y    ps_6-31g*
  H57       1.597  1.150  0.320    1.008    Y    Y      Y    ps_6-31g*
  H58       1.597  1.150  0.320    1.008    Y    Y      Y    ps_6-31g*
  H59       1.597  1.150  0.320    1.008    Y    Y      Y    ps_6-31g*
 
  atom      formal  2spin      esp    mulk    frag
  P1          -1       0        Y    0.000       0
  Pd2          2       0        Y    0.000       0
  C73         -1       0        Y    0.000       0
  
  end of program pre
   
 Time(pre)  user:       1.140  user+sys:       1.140  wallclock:       1.423
  
  start of program onee
  
  smallest eigenvalue of S:    4.316E-04
  number of canonical orbitals.....          545
  end of program onee
   
 Time(onee)  user:       7.182  user+sys:       7.182  wallclock:       5.433
  
  start of program hfig
  
  initial wavefunction generated automatically from atomic wavefunctions
  Only one state below 0.010000
  Skip d-d repulsion considerations 
 
  Irreducible     Total no   No of occupied orbitals 
  representation  orbitals   Shell_1  Shell_2    ...
  No Symm          545        129
  ------------------------
  Orbital occupation/shell    1.000
 
  end of program hfig
   
 Time(hfig)  user:       1.034  user+sys:       1.034  wallclock:       1.195
  
  start of program probe
  
  end of program probe
   
 Time(probe)  user:       0.590  user+sys:       0.590  wallclock:       0.559
  
  start of program grid
  
   grid     grid set  grid #  grid sym
  ------    --------  ------  --------
  coarse        0        0        1
  medium        2        1        1
  fine          0        0        1
  ultrafine     4        2        1
  charge       -1        3        1
  gradient      4        2        1
  density       0        0        1
  DFT-fine    -11        4        1
  DFT-med.    -10        5        1
  DFT-grad    -12        6        1
  DFT-der2     -8        7        1
  DFT-cphf     -9        8        1
  LMP2-enrg     4        2        1
  LMP2-grad     2        1        1
  DFT-cphf2   -15        9        1
  PBF-dens      0        0        1
  plotting      0        0        1
  Rel-grad    -17        0        1
  
  number of gridpoints: 
     atom           P1         Pd2         Br3         C73         C74         C75         C76
  grid # 1         607         350         453          78          92          92          99
  grid # 2         429         313         369         330         318         303         389
  grid # 3           6         242         194          17           7           6           7
  grid # 4        8714        8714        8714        8714        8714        8714        8714
  grid # 5        1192        1192        1192        1192        1192        1192        1192
  grid # 6        9132        9132        9132        5922        5922        5922        5922
  grid # 7       23034       32968       11582       13950       13950       13950       13950
  grid # 8         722        1150         694         748         748         748         748
  grid # 9         366        2198         358         394         394         394         394
   
  number of gridpoints: 
     atom          C77         C78         F79         H80         H81         H82         H83
  grid # 1          94          92         584         110          89         117         115
  grid # 2         321         318         565         454         381         467         463
  grid # 3          12          19         359         310          20         340         413
  grid # 4        8714        8714        8714        8714        8714        8714        8714
  grid # 5        1192        1192        1192        1192        1192        1192        1192
  grid # 6        5922        5922        5922        5922        5922        5922        5922
  grid # 7       13950       13950       23190       15206       15206       15206       15206
  grid # 8         748         748         770         786         786         786         786
  grid # 9         394         394         420         420         420         420         420
   
  number of gridpoints: 
     atom           C6          C7          C8          C9         C10         C11         C12
  grid # 1          82          88          80          82          88          80          82
  grid # 2         245         367         244         240         369         247         246
  grid # 3           6           6           6           6           6           6           6
  grid # 4        8714        8714        8714        8714        8714        8714        8714
  grid # 5        1192        1192        1192        1192        1192        1192        1192
  grid # 6        5922        5922        5922        5922        5922        5922        5922
  grid # 7       13950       13950       13950       13950       13950       13950       13950
  grid # 8         748         748         748         748         748         748         748
  grid # 9         394         394         394         394         394         394         394
   
  number of gridpoints: 
     atom          C13         C14         C15         C16         C17         C18         C19
  grid # 1          82          87          99          79          97          92          95
  grid # 2         245         388         360         241         358         324         324
  grid # 3           6           8          14           6           8          17          27
  grid # 4        8714        8714        8714        8714        8714        8714        8714
  grid # 5        1192        1192        1192        1192        1192        1192        1192
  grid # 6        5922        5922        5922        5922        5922        5922        5922
  grid # 7       13950       13950       13950       13950       13950       13950       13950
  grid # 8         748         748         748         748         748         748         748
  grid # 9         394         394         394         394         394         394         394
   
  number of gridpoints: 
     atom          C20         C21         C22         C23         C24         C25         C26
  grid # 1          95          94          91          97          94          97          97
  grid # 2         322         324         314         362         326         328         326
  grid # 3          29          22          11          25          41          53          52
  grid # 4        8714        8714        8714        8714        8714        8714        8714
  grid # 5        1192        1192        1192        1192        1192        1192        1192
  grid # 6        5922        5922        5922        5922        5922        5922        5922
  grid # 7       13950       13950       13950       13950       13950       13950       13950
  grid # 8         748         748         748         748         748         748         748
  grid # 9         394         394         394         394         394         394         394
   
  number of gridpoints: 
     atom          C27         C28         H29         H30         H31         H32         H33
  grid # 1          96          94         101         105         107          84         107
  grid # 2         327         324         415         438         440         411         445
  grid # 3          45          25         149         199         254          95         255
  grid # 4        8714        8714        8714        8714        8714        8714        8714
  grid # 5        1192        1192        1192        1192        1192        1192        1192
  grid # 6        5922        5922        5922        5922        5922        5922        5922
  grid # 7       13950       13950       15206       15206       15206       15206       15206
  grid # 8         748         748         786         786         786         786         786
  grid # 9         394         394         420         420         420         420         420
   
  number of gridpoints: 
     atom          H34         H35         H36         H37         H38         H39         H40
  grid # 1         104         103         107          90         105         104         107
  grid # 2         436         445         445         431         444         422         443
  grid # 3         180         220         262         131         215          79         262
  grid # 4        8714        8714        8714        8714        8714        8714        8714
  grid # 5        1192        1192        1192        1192        1192        1192        1192
  grid # 6        5922        5922        5922        5922        5922        5922        5922
  grid # 7       15206       15206       15206       15206       15206       15206       15206
  grid # 8         786         786         786         786         786         786         786
  grid # 9         420         420         420         420         420         420         420
   
  number of gridpoints: 
     atom          H41         H42         H43         H44         H45         H46         H47
  grid # 1          99          99         107          99         107         101         105
  grid # 2         418         404         444         412         443         425         434
  grid # 3          99         129         262         138         262         156         211
  grid # 4        8714        8714        8714        8714        8714        8714        8714
  grid # 5        1192        1192        1192        1192        1192        1192        1192
  grid # 6        5922        5922        5922        5922        5922        5922        5922
  grid # 7       15206       15206       15206       15206       15206       15206       15206
  grid # 8         786         786         786         786         786         786         786
  grid # 9         420         420         420         420         420         420         420
   
  number of gridpoints: 
     atom          H48         H49         H50         H51         H52         H53         H54
  grid # 1         103          91         114         117         118         115          97
  grid # 2         427         382         452         464         469         461         398
  grid # 3         157          56         246         380         423         319         110
  grid # 4        8714        8714        8714        8714        8714        8714        8714
  grid # 5        1192        1192        1192        1192        1192        1192        1192
  grid # 6        5922        5922        5922        5922        5922        5922        5922
  grid # 7       15206       15206       15206       15206       15206       15206       15206
  grid # 8         786         786         786         786         786         786         786
  grid # 9         420         420         420         420         420         420         420
   
  number of gridpoints: 
     atom          H55         H56         H57         H58         H59       total
  grid # 1         114         118         118         118         107        8311
  grid # 2         454         466         467         466         438       26110
  grid # 3         286         423         431         416         193        9381
  grid # 4        8714        8714        8714        8714        8714      592552
  grid # 5        1192        1192        1192        1192        1192       81056
  grid # 6        5922        5922        5922        5922        5922      412326
  grid # 7       15206       15206       15206       15206       15206     1027534
  grid # 8         786         786         786         786         786       52538
  grid # 9         420         420         420         420         420       29468
   
  end of program grid
   
 Time(grid)  user:     240.812  user+sys:     240.812  wallclock:     124.492
  
  start of program rwr
  
  end of program rwr
   
 Time(rwr)  user:      16.750  user+sys:      16.750  wallclock:      21.304
  
  start of program scf
  
 number of electrons..........        258
 number of alpha electrons....        129
 number of beta electrons.....        129
 number of orbitals, total....        545
 number of doubly-occ'd orbs..        129
 number of open shell orbs....          0
 number of occupied orbitals..        129
 number of virtual orbitals...        416
 number of hamiltonians.......          1
 number of shells.............          1
 SCF type: DFT=Becke_3_Parameter/HF+Slater+Becke88+PW91+PW-GGAIIC (B3PW91-D3)
 Energy computed using pseudospectral method.
 Convergence Criterion:
    Energy (econv):       1.00E-05
    RMS density (dconv):  5.00E-06
  
       i  u  d  i  g                   
       t  p  i  c  r                                 RMS    maximum
       e  d  i  u  i                       energy  density   DIIS  
       r  t  s  t  d       total energy    change  change    error 
  
etot    1  N  N  5  M   -1702.45341294797           2.1E-03  2.6E-01
etot    2  Y  Y  6  M   -1705.09010209581  2.6E+00  3.8E-03  1.5E-01
etot    3  Y  Y  6  M   -1705.91709608057  8.3E-01  2.0E-03  7.5E-02
etot    4  N  Y  2  U   -1706.16560315105  2.5E-01  1.1E-03  5.0E-02
etot    5  Y  Y  6  M   -1706.39388629065  2.3E-01  6.6E-04  3.2E-02
etot    6  N  Y  2  U   -1706.41124756677  1.7E-02  6.3E-04  1.6E-02
etot    7  Y  Y  6  M   -1706.40998306676 -1.3E-03  1.6E-04  3.9E-03
etot    8  Y  Y  6  M   -1706.41509629363  5.1E-03  6.0E-05  1.6E-03
etot    9  N  Y  2  U   -1706.41617609407  1.1E-03  1.6E-05  1.9E-04
etot   10  N  Y  2  U   -1706.41618912207  1.3E-05  8.2E-06  1.0E-04
etot   11  N  Y  2  U   -1706.41619333766  4.2E-06  4.4E-06  5.3E-05
etot   12  N  N  2  U   -1706.41619492494  1.6E-06  0.0E+00  0.0E+00
 
  Computing the dispersion energy correction and its gradients...
  
  
 Energy components, in hartrees:
   (A)  Nuclear repulsion............    4209.42434886368
   (E)  Total one-electron terms.....  -10762.30664878126
   (F)    Electron-nuclear...........  -12371.38901220845
   (H)    Kinetic....................    1609.08236342718
   (I)  Total two-electron terms.....    4846.46610499264
   (J)    Coulomb....................    5065.77558680198
   (K)    Exchange+Correlation.......    -219.30948180933
   (L)  Electronic energy............   -5915.84054378862  (E+I)
   (N0) D3 correction................      -0.13044783521
   (N)  Total energy.................   -1706.54664276015  (A+L+N0)
   (O)  Gas phase energy.............   -1706.54664276015
  
 SCFE: SCF energy: DFT(b3pw91-d3)     -1706.54664276015 hartrees   iterations:  12
  
 
 HOMO energy:    -0.13936
 LUMO energy:    -0.07657
 
  Orbital energies (hartrees): 
   -77.11017   -24.68243   -10.24978   -10.22443   -10.22160   -10.21398
   -10.21175   -10.20429   -10.19640   -10.18946   -10.18792   -10.18788
   -10.18684   -10.18595   -10.18027   -10.17834   -10.17787   -10.17577
   -10.17541   -10.17412   -10.17381   -10.17371   -10.17242   -10.17193
   -10.17190   -10.17033   -10.17009   -10.16912   -10.16428   -10.15193
   -10.11729    -6.60900    -4.76667    -4.76601    -4.76514    -3.34105
    -2.07711    -2.07029    -2.04142    -1.21395    -0.88537    -0.87027
    -0.85610    -0.85490    -0.83913    -0.82277    -0.78631    -0.78157
    -0.77145    -0.75593    -0.75103    -0.74727    -0.73166    -0.70931
    -0.70224    -0.68999    -0.68436    -0.67809    -0.65447    -0.64450
    -0.61794    -0.61467    -0.60817    -0.60185    -0.59432    -0.56813
    -0.56213    -0.55054    -0.52811    -0.52459    -0.50375    -0.49136
    -0.48765    -0.48587    -0.47582    -0.47170    -0.46919    -0.46699
    -0.46054    -0.45797    -0.45326    -0.45189    -0.44796    -0.44661
    -0.43877    -0.43713    -0.43141    -0.42680    -0.42325    -0.41681
    -0.41033    -0.40648    -0.40288    -0.39867    -0.39326    -0.38847
    -0.38518    -0.38000    -0.37576    -0.37260    -0.36957    -0.36454
    -0.36103    -0.35566    -0.35034    -0.34935    -0.34670    -0.34576
    -0.34116    -0.33668    -0.33125    -0.32547    -0.32191    -0.31739
    -0.31224    -0.29717    -0.29274    -0.28710    -0.27625    -0.26355
    -0.26272    -0.26041    -0.25526    -0.24438    -0.24287    -0.23420
    -0.21622    -0.19784    -0.13936    -0.07657    -0.06534    -0.03375
    -0.01409    -0.01183     0.00766     0.01257     0.01935     0.02232
     0.03188
 
  end of program scf
   
 Time(scf)  user:     420.992  user+sys:     420.992  wallclock:     227.941
  
  start of program der1a
  
  end of program der1a
   
 Time(der1a)  user:      21.821  user+sys:      21.821  wallclock:      12.099
  
  start of program rwr
  
  end of program rwr
   
 Time(rwr)  user:      18.345  user+sys:      18.345  wallclock:      23.538
  
  start of program der1b
  
   
  forces (hartrees/bohr) : total     
   
 atom  label           x              y              z
 ---- --------   -------------  -------------  -------------
    1 P1         -1.601209E-02   3.857024E-03   1.138860E-02
    2 Pd2         5.912561E-03  -1.906541E-03  -5.029664E-03
    3 Br3        -5.074794E-02   9.961377E-03   3.803979E-01
    4 C73        -5.158371E-03   2.569227E-03   3.493130E-03
    5 C74        -2.482648E-03  -1.544321E-03  -2.399152E-03
    6 C75         2.254166E-03   5.794375E-02  -2.550360E-02
    7 C76         6.543306E-03   1.652498E-02  -1.086170E-03
    8 C77         1.525857E-03  -5.166285E-03  -4.342044E-03
    9 C78        -3.620792E-03   3.556333E-03   2.705430E-03
   10 F79         4.209836E-03  -2.681849E-03  -1.691921E-04
   11 H80        -8.653444E-04   1.099257E-03  -1.586981E-03
   12 H81         1.190875E-02   4.375967E-02  -2.722553E-02
   13 H82         1.062473E-03   1.203339E-03   9.920612E-04
   14 H83        -6.320954E-04   2.759703E-04   3.412854E-04
   15 C6          6.105033E-03  -7.773587E-05  -1.881083E-02
   16 C7          5.075618E-02  -1.058990E-02  -1.626561E-02
   17 C8          6.716882E-03  -9.352977E-03  -1.418037E-01
   18 C9         -9.144812E-03   3.499893E-02   1.107185E-02
   19 C10        -2.275404E-02   2.100821E-02  -1.849483E-02
   20 C11        -5.221220E-03   9.245478E-03   1.392347E-02
   21 C12        -2.197253E-02  -1.124405E-02   4.818745E-03
   22 C13         1.468418E-02   7.534951E-03  -1.284087E-02
   23 C14         3.687457E-03  -1.542853E-03  -1.666090E-02
   24 C15         2.708536E-03  -3.684256E-03  -7.582977E-04
   25 C16         1.160407E-02   6.973020E-04  -2.379645E-02
   26 C17         9.478911E-03   1.467617E-03   2.882130E-02
   27 C18         1.640837E-02  -8.736102E-03   3.192156E-03
   28 C19        -2.190565E-03   1.658835E-03   3.041433E-03
   29 C20        -4.548901E-03   2.755164E-03  -3.216197E-03
   30 C21         1.632520E-03  -1.523825E-02   8.387761E-03
   31 C22        -3.535882E-02  -5.412214E-02   2.725775E-02
   32 C23        -1.642139E-02  -1.602309E-02   7.789791E-05
   33 C24        -1.538928E-02   6.148578E-04   7.823985E-03
   34 C25         3.033584E-03   1.237256E-03  -7.648748E-04
   35 C26         1.207078E-03   3.262270E-03   1.070194E-03
   36 C27        -5.098295E-03  -9.884960E-04   4.037737E-03
   37 C28         2.234691E-02  -4.599457E-03  -1.013046E-02
   38 H29         7.784943E-03  -8.501291E-03   7.009849E-03
   39 H30        -2.667463E-03   8.019922E-03   9.963710E-03
   40 H31        -1.000165E-02  -5.403197E-03   8.309859E-03
   41 H32         3.001072E-02  -5.222410E-02  -2.080303E-01
   42 H33        -8.070810E-03   5.042356E-03  -2.998922E-04
   43 H34         2.690103E-03   5.833738E-03  -2.274407E-03
   44 H35         2.903915E-03  -6.151670E-03  -2.539081E-03
   45 H36        -6.964905E-03  -5.316836E-03  -5.721307E-03
   46 H37         1.047689E-03   2.523760E-02  -2.161590E-02
   47 H38        -5.546523E-03  -4.932759E-03   2.047631E-04
   48 H39         1.290236E-02   1.827161E-03  -9.168419E-03
   49 H40         8.466848E-03  -1.019450E-02   2.182634E-03
   50 H41         1.091265E-02   4.586138E-03  -1.074412E-02
   51 H42        -1.931570E-02   2.210814E-02   7.960783E-03
   52 H43         9.082381E-03   1.640242E-03   5.898771E-03
   53 H44        -1.897120E-02  -1.081390E-02  -4.503621E-03
   54 H45        -3.402317E-03  -5.753385E-03   1.012862E-02
   55 H46         2.889954E-03   9.310591E-03   5.097847E-03
   56 H47         1.180137E-02   2.368629E-04   7.783327E-03
   57 H48        -1.188078E-02   1.121717E-04   1.150332E-03
   58 H49         2.550156E-02  -1.964133E-02   9.403146E-03
   59 H50        -7.722295E-03   5.115283E-04  -7.642404E-03
   60 H51        -4.170666E-03   2.499169E-03  -1.002549E-02
   61 H52         2.052127E-03  -1.814840E-03  -9.840517E-03
   62 H53         7.815634E-03  -3.816216E-03  -6.299318E-03
   63 H54        -1.153324E-02  -5.201962E-02   2.887555E-02
   64 H55         1.134828E-02   1.075397E-03  -3.731182E-03
   65 H56         8.820879E-03   7.943778E-03  -3.758006E-03
   66 H57         1.322462E-03   6.850396E-03   2.135947E-03
   67 H58        -3.888727E-03   7.307824E-03   8.174570E-03
   68 H59        -9.782041E-03  -2.099028E-03   9.946453E-03
 -------------   -------------  -------------  -------------
     total       -3.969010E-04  -8.061687E-04  -1.057666E-05
   
  end of program der1b
   
 Time(der1b)  user:     137.643  user+sys:     137.643  wallclock:      74.262
  
  start of program geopt
  
 ----------------------------------------------------------------------------
  Geometry optimization step  1
  Total energy:     -1706.54664276015 hartrees
 ----------------------------------------------------------------------------
  
  
  Level shifts adjusted to satisfy step-size constraints
   Step size:    0.3000224
   Cos(theta):   0.7706999
   Final level shift:  -1.5545151E+00
  
  gradient maximum:        4.8998E-01 .  (  2.2500E-03 )
  gradient rms:            8.5887E-02 .  (  1.5000E-03 )
  displacement maximum:    1.8355E-01 .  (  9.0000E-03 )
  displacement rms:        1.9634E-02 .  (  6.0000E-03 )
  
  predicted energy change:  -2.2133E-01
  step size:     0.29971
  trust radius:  0.30000
  
  molecular structure not yet converged...
  
  center of mass moved by:
     x:    -9.7402E-02     y:     3.9355E-02     z:     3.1094E-02
  
  new geometry: 
                                   angstroms
  atom               x                 y                 z
  P1           -0.0317555207      0.0279101216     -0.0013393861 
  Pd2          -0.0626247519      0.1251936845      2.2599877306 
  Br3           2.1431903386     -1.1612667512      2.4762182232 
  C73          -4.3036783402      2.2451336195      1.8759579002 
  C74          -4.0542993210      1.0739860665      1.1794461370 
  C75          -2.8079595482      0.4591602172      1.3222127701 
  C76          -1.8235802880      1.0058205140      2.1539250134 
  C77          -2.1086997684      2.1970849489      2.8294243531 
  C78          -3.3508587299      2.8204563411      2.7005738011 
  F79          -5.5038375251      2.8503492016      1.7320163584 
  H80          -4.8270496524      0.6554806824      0.5409061807 
  H81          -2.5796257808     -0.4234216923      0.7448802297 
  H82          -1.3560092110      2.6582724530      3.4607484243 
  H83          -3.5816288973      3.7431453140      3.2239435167 
  C6            2.3856510045      0.4536079964     -1.6939471860 
  C7            1.8297771552      0.1732408578     -0.2767360574 
  C8            2.5091265765     -1.1880651718      0.0559934935 
  C9            2.3927455601      1.3384024852      0.5627056868 
  C10          -0.9949308209      1.2075806609     -1.1924336329 
  C11          -1.2093544211      2.6045032913     -0.5634982291 
  C12          -2.4162788753      0.7088585180     -1.5830264277 
  C13          -0.3219063089      1.4938629043     -2.5474911446 
  C14          -0.6075426584     -1.6997014926     -0.3574513194 
  C15          -1.1254364162     -2.6588699442      0.4840227891 
  C16          -0.4303023952     -2.0048069051     -1.8272288816 
  C17          -1.4675067552     -2.4864925995      1.9430455415 
  C18          -0.5527387496     -2.9345204656      2.9300067063 
  C19          -0.7570626153     -2.8187754620      4.3098563425 
  C20          -1.9178810153     -2.2153088171      4.8067892140 
  C21          -2.8418045088     -1.7413707330      3.8787881811 
  C22          -2.6049945608     -1.8756815563      2.5026110470 
  C23          -1.3500798978     -4.0462508505     -0.0312440247 
  C24          -2.3846283169     -4.8450231181      0.5113162580 
  C25          -2.6644659932     -6.1484623235      0.0799567658 
  C26          -1.8947780477     -6.7330442253     -0.9306443239 
  C27          -0.8592474141     -5.9818602556     -1.4988159109 
  C28          -0.6110390648     -4.6763575920     -1.0546788646 
  H29           2.0563386579      1.4045215779     -2.1349040832 
  H30           2.1556465127     -0.3573118044     -2.4203186563 
  H31           3.4936192101      0.5187383789     -1.6813313023 
  H32           2.3411136773     -1.4973562619      1.1463603058 
  H33           3.6055218579     -1.1422814859     -0.0874521027 
  H34           2.1290804413     -1.9862547704     -0.6155161820 
  H35           1.9280171343      2.3115449032      0.3036106721 
  H36           3.4845064338      1.4547181050      0.4251957838 
  H37           2.2442132836      1.1828527888      1.6485485327 
  H38          -0.2483579311      3.0798755622     -0.2928779532 
  H39          -1.8610454272      2.5769342350      0.3299219021 
  H40          -1.7172394446      3.2920775483     -1.2754612079 
  H41          -3.0974485676      0.5619553483     -0.7235388615 
  H42          -2.3953921396     -0.2442513284     -2.1388816161 
  H43          -2.9266866597      1.4375387344     -2.2408397127 
  H44           0.6275007422      2.0570626716     -2.4371686290 
  H45          -0.9540053848      2.1364475517     -3.1904438678 
  H46          -0.1325637824      0.5775579851     -3.1371851652 
  H47          -1.1602205806     -2.7333444496     -2.2336273824 
  H48           0.6130661742     -2.3123305795     -2.0622197818 
  H49          -0.6353501863     -1.1102042167     -2.4440657711 
  H50           0.4122019242     -3.3704315261      2.6549942489 
  H51           0.0047649674     -3.1846370769      5.0117504598 
  H52          -2.0905893768     -2.1149682412      5.8878509220 
  H53          -3.7637270638     -1.2501413878      4.2188776736 
  H54          -3.3997104878     -1.4840335604      1.8832819554 
  H55          -3.0596450819     -4.4416257581      1.2804600911 
  H56          -3.4878028081     -6.7180605749      0.5399067348 
  H57          -2.0936214336     -7.7559308709     -1.2697176405 
  H58          -0.2407485911     -6.4272059205     -2.2922941198 
  H59           0.2554479203     -4.1864941831     -1.5201469259 
   
 
  bond lengths (angstroms):
 
 P1      -Pd2     :   2.263629      P1      -C7      :   1.887397
 P1      -C10     :   1.933400      P1      -C14     :   1.855529
 Pd2     -Br3     :   2.562685      Pd2     -C76     :   1.971730
 Br3     -H32     :   1.385876      C73     -C74     :   1.385246
 C73     -C78     :   1.385227      C73     -F79     :   1.351809
 C74     -C75     :   1.397053      C74     -H80     :   1.086289
 C75     -C76     :   1.399852      C75     -H81     :   1.079074
 C76     -C77     :   1.398822      C77     -C78     :   1.395763
 C77     -H82     :   1.085268      C78     -H83     :   1.085599
 C6      -C7      :   1.547931      C6      -H29     :   1.098693
 C6      -H30     :   1.112703      C6      -H31     :   1.109953
 C7      -C8      :   1.557363      C7      -C9      :   1.542465
 C8      -H32     :   1.145770      C8      -H33     :   1.106687
 C8      -H34     :   1.110165      C9      -H35     :   1.109103
 C9      -H36     :   1.106517      C9      -H37     :   1.106938
 C10     -C11     :   1.546910      C10     -C12     :   1.556122
 C10     -C13     :   1.539838      C11     -H38     :   1.105770
 C11     -H39     :   1.106192      C11     -H40     :   1.112473
 C12     -H41     :   1.106477      C12     -H42     :   1.103553
 C12     -H43     :   1.106440      C13     -H44     :   1.109387
 C13     -H45     :   1.107182      C13     -H46     :   1.105986
 C14     -C15     :   1.377061      C14     -C16     :   1.511539
 C15     -C17     :   1.508467      C15     -C23     :   1.496927
 C16     -H47     :   1.108471      C16     -H48     :   1.112838
 C16     -H49     :   1.105824      C17     -C18     :   1.418317
 C17     -C22     :   1.407154      C18     -C19     :   1.399689
 C18     -H50     :   1.093966      C19     -C20     :   1.399505
 C19     -H51     :   1.098586      C20     -C21     :   1.392637
 C20     -H52     :   1.099359      C21     -C22     :   1.402848
 C21     -H53     :   1.098594      C22     -H54     :   1.080986
 C23     -C24     :   1.415168      C23     -C28     :   1.410899
 C24     -C25     :   1.401190      C24     -H55     :   1.099981
 C25     -C26     :   1.398381      C25     -H56     :   1.101762
 C26     -C27     :   1.399793      C26     -H57     :   1.095813
 C27     -C28     :   1.401143      C27     -H58     :   1.100219
 C28     -H59     :   1.098830
 
  bond angles:
 
 C7      -P1      -Pd2     :  98.969345  C10     -P1      -Pd2     : 125.620891
 C10     -P1      -C7      : 110.761341  C14     -P1      -Pd2     : 103.150314
 C14     -P1      -C7      : 110.471727  C14     -P1      -C10     : 107.173571
 Br3     -Pd2     -P1      :  92.922118  C76     -Pd2     -P1      :  88.718579
 C76     -Pd2     -Br3     : 175.928166  H32     -Br3     -Pd2     :  99.421745
 C78     -C73     -C74     : 121.777688  F79     -C73     -C74     : 118.999512
 F79     -C73     -C78     : 119.217182  C75     -C74     -C73     : 118.769771
 H80     -C74     -C73     : 119.551942  H80     -C74     -C75     : 121.678112
 C76     -C75     -C74     : 121.077553  H81     -C75     -C74     : 119.607135
 H81     -C75     -C76     : 119.241152  C75     -C76     -Pd2     : 119.050348
 C77     -C76     -Pd2     : 122.440200  C77     -C76     -C75     : 118.434325
 C78     -C77     -C76     : 121.142285  H82     -C77     -C76     : 120.095920
 H82     -C77     -C78     : 118.759754  C77     -C78     -C73     : 118.790547
 H83     -C78     -C73     : 119.589060  H83     -C78     -C77     : 121.619132
 H29     -C6      -C7      : 114.618858  H30     -C6      -C7      : 113.044192
 H30     -C6      -H29     : 107.866682  H31     -C6      -C7      : 111.019615
 H31     -C6      -H29     : 104.653386  H31     -C6      -H30     : 104.863793
 C6      -C7      -P1      : 120.114167  C8      -C7      -P1      : 109.375556
 C8      -C7      -C6      : 101.377949  C9      -C7      -P1      : 109.799786
 C9      -C7      -C6      : 103.319246  C9      -C7      -C8      : 112.631957
 H32     -C8      -C7      : 112.043547  H33     -C8      -C7      : 111.611227
 H33     -C8      -H32     : 106.247731  H34     -C8      -C7      : 110.481640
 H34     -C8      -H32     : 109.350306  H34     -C8      -H33     : 106.887403
 H35     -C9      -C7      : 112.502509  H36     -C9      -C7      : 111.831991
 H36     -C9      -H35     : 106.987401  H37     -C9      -C7      : 112.254810
 H37     -C9      -H35     : 107.231176  H37     -C9      -H36     : 105.608905
 C11     -C10     -P1      : 111.689234  C12     -C10     -P1      : 114.463663
 C12     -C10     -C11     : 105.358569  C13     -C10     -P1      : 115.965637
 C13     -C10     -C11     : 104.505941  C13     -C10     -C12     : 103.763895
 H38     -C11     -C10     : 111.546459  H39     -C11     -C10     : 112.800763
 H39     -C11     -H38     : 108.968672  H40     -C11     -C10     : 111.174776
 H40     -C11     -H38     : 106.719447  H40     -C11     -H39     : 105.267621
 H41     -C12     -C10     : 114.197166  H42     -C12     -C10     : 112.702178
 H42     -C12     -H41     : 106.752906  H43     -C12     -C10     : 111.070350
 H43     -C12     -H41     : 105.382829  H43     -C12     -H42     : 106.144874
 H44     -C13     -C10     : 112.390632  H45     -C13     -C10     : 111.678520
 H45     -C13     -H44     : 104.577484  H46     -C13     -C10     : 112.954303
 H46     -C13     -H44     : 109.093623  H46     -C13     -H45     : 105.602019
 C15     -C14     -P1      : 130.386672  C16     -C14     -P1      : 109.765191
 C16     -C14     -C15     : 119.847024  C17     -C15     -C14     : 126.635677
 C23     -C15     -C14     : 119.449801  C23     -C15     -C17     : 113.879436
 H47     -C16     -C14     : 114.327559  H48     -C16     -C14     : 111.780232
 H48     -C16     -H47     : 110.998350  H49     -C16     -C14     : 110.938025
 H49     -C16     -H47     : 101.835155  H49     -C16     -H48     : 106.237506
 C18     -C17     -C15     : 119.386881  C22     -C17     -C15     : 128.136407
 C22     -C17     -C18     : 112.443232  C19     -C18     -C17     : 124.453121
 H50     -C18     -C17     : 121.321184  H50     -C18     -C19     : 114.175868
 C20     -C19     -C18     : 120.449812  H51     -C19     -C18     : 120.071558
 H51     -C19     -C20     : 119.467673  C21     -C20     -C19     : 117.414194
 H52     -C20     -C19     : 121.253803  H52     -C20     -C21     : 121.331264
 C22     -C21     -C20     : 120.605173  H53     -C21     -C20     : 120.174147
 H53     -C21     -C22     : 119.219231  C21     -C22     -C17     : 124.618752
 H54     -C22     -C17     : 121.582554  H54     -C22     -C21     : 113.781323
 C24     -C23     -C15     : 120.057525  C28     -C23     -C15     : 125.802732
 C28     -C23     -C24     : 114.139006  C25     -C24     -C23     : 123.575291
 H55     -C24     -C23     : 120.643556  H55     -C24     -C25     : 115.712163
 C26     -C25     -C24     : 120.095015  H56     -C25     -C24     : 120.109105
 H56     -C25     -C26     : 119.794943  C27     -C26     -C25     : 118.436408
 H57     -C26     -C25     : 120.928289  H57     -C26     -C27     : 120.635079
 C28     -C27     -C26     : 120.158630  H58     -C27     -C26     : 119.431584
 H58     -C27     -C28     : 120.409180  C27     -C28     -C23     : 123.590660
 H59     -C28     -C23     : 121.414668  H59     -C28     -C27     : 114.884474
 C8      -H32     -Br3     : 150.303015
 
  torsional angles:
 
 P1      -Pd2     -Br3     -H32     :  -6.278218
 P1      -Pd2     -C76     -C75     :  47.551164
 P1      -Pd2     -C76     -C77     :-129.245701
 P1      -C7      -C6      -H29     :  61.151974
 P1      -C7      -C6      -H30     : -63.019508
 P1      -C7      -C6      -H31     : 179.458043
 P1      -C7      -C8      -H32     : -60.634856
 P1      -C7      -C8      -H33     :-179.653093
 P1      -C7      -C8      -H34     :  61.562665
 P1      -C7      -C9      -H35     : -59.493187
 P1      -C7      -C9      -H36     :-179.933139
 P1      -C7      -C9      -H37     :  61.569036
 P1      -C10     -C11     -H38     :  58.066189
 P1      -C10     -C11     -H39     : -64.963959
 P1      -C10     -C11     -H40     : 177.055455
 P1      -C10     -C12     -H41     :  59.402552
 P1      -C10     -C12     -H42     : -62.639365
 P1      -C10     -C12     -H43     : 178.400718
 P1      -C10     -C13     -H44     : -65.507548
 P1      -C10     -C13     -H45     : 177.318236
 P1      -C10     -C13     -H46     :  58.458069
 P1      -C14     -C15     -C17     :   5.597783
 P1      -C14     -C15     -C23     :-172.108473
 P1      -C14     -C16     -H47     :-150.632800
 P1      -C14     -C16     -H48     :  82.200451
 P1      -C14     -C16     -H49     : -36.177757
 Pd2     -P1      -C7      -C6      :-167.289929
 Pd2     -P1      -C7      -C8      :  76.240028
 Pd2     -P1      -C7      -C9      : -47.826316
 Pd2     -P1      -C10     -C11     :  28.768404
 Pd2     -P1      -C10     -C12     : -90.842310
 Pd2     -P1      -C10     -C13     : 148.340738
 Pd2     -P1      -C14     -C15     :   8.767019
 Pd2     -P1      -C14     -C16     :-170.840095
 Pd2     -Br3     -H32     -C8      :  61.688334
 Pd2     -C76     -C75     -C74     :-177.769524
 Pd2     -C76     -C75     -H81     :  -0.913625
 Pd2     -C76     -C77     -C78     : 177.888505
 Pd2     -C76     -C77     -H82     :  -1.585259
 Br3     -Pd2     -P1      -C7      : -35.217429
 Br3     -Pd2     -P1      -C10     :-158.897480
 Br3     -Pd2     -P1      -C14     :  78.391112
 Br3     -Pd2     -C76     -C75     : -66.270334
 Br3     -Pd2     -C76     -C77     : 116.932801
 Br3     -H32     -C8      -C7      : -30.592221
 Br3     -H32     -C8      -H33     :  91.540830
 Br3     -H32     -C8      -H34     :-153.432691
 C73     -C74     -C75     -C76     :   0.178566
 C73     -C74     -C75     -H81     :-176.665973
 C73     -C78     -C77     -C76     :  -0.629955
 C73     -C78     -C77     -H82     : 178.850687
 C74     -C73     -C78     -C77     :  -0.066253
 C74     -C73     -C78     -H83     : 179.531909
 C74     -C75     -C76     -C77     :  -0.843544
 C75     -C74     -C73     -C78     :   0.288024
 C75     -C74     -C73     -F79     : 179.418721
 C75     -C76     -C77     -C78     :   1.072789
 C75     -C76     -C77     -H82     :-178.400975
 C76     -Pd2     -P1      -C7      : 148.511862
 C76     -Pd2     -P1      -C10     :  24.831810
 C76     -Pd2     -P1      -C14     : -97.879597
 C76     -Pd2     -Br3     -H32     : 107.406447
 C76     -C75     -C74     -H80     :-179.668604
 C76     -C77     -C78     -H83     : 179.780395
 C77     -C76     -C75     -H81     : 176.012355
 C77     -C78     -C73     -F79     :-179.195109
 C78     -C73     -C74     -H80     :-179.861486
 F79     -C73     -C74     -H80     :  -0.730790
 F79     -C73     -C78     -H83     :   0.403054
 H80     -C74     -C75     -H81     :   3.486857
 H82     -C77     -C78     -H83     :  -0.738963
 C6      -C7      -P1      -C10     : -33.627331
 C6      -C7      -P1      -C14     :  84.965545
 C6      -C7      -C8      -H32     : 171.538280
 C6      -C7      -C8      -H33     :  52.520044
 C6      -C7      -C8      -H34     : -66.264198
 C6      -C7      -C9      -H35     :  69.795027
 C6      -C7      -C9      -H36     : -50.644926
 C6      -C7      -C9      -H37     :-169.142751
 C7      -P1      -C10     -C11     : -89.703269
 C7      -P1      -C10     -C12     : 150.686018
 C7      -P1      -C10     -C13     :  29.869065
 C7      -P1      -C14     -C15     : 113.725441
 C7      -P1      -C14     -C16     : -65.881673
 C8      -C7      -P1      -C10     :-150.097375
 C8      -C7      -P1      -C14     : -31.504498
 C8      -C7      -C6      -H29     :-178.321938
 C8      -C7      -C6      -H30     :  57.506579
 C8      -C7      -C6      -H31     : -60.015870
 C8      -C7      -C9      -H35     : 178.358153
 C8      -C7      -C9      -H36     :  57.918201
 C8      -C7      -C9      -H37     : -60.579624
 C9      -C7      -P1      -C10     :  85.836281
 C9      -C7      -P1      -C14     :-155.570842
 C9      -C7      -C6      -H29     : -61.513060
 C9      -C7      -C6      -H30     : 174.315458
 C9      -C7      -C6      -H31     :  56.793008
 C9      -C7      -C8      -H32     :  61.752892
 C9      -C7      -C8      -H33     : -57.265344
 C9      -C7      -C8      -H34     :-176.049587
 C10     -P1      -C14     -C15     :-125.517213
 C10     -P1      -C14     -C16     :  54.875673
 C11     -C10     -P1      -C14     : 149.723137
 C11     -C10     -C12     -H41     : -63.692094
 C11     -C10     -C12     -H42     : 174.265989
 C11     -C10     -C12     -H43     :  55.306071
 C11     -C10     -C13     -H44     :  57.900658
 C11     -C10     -C13     -H45     : -59.273559
 C11     -C10     -C13     -H46     :-178.133725
 C12     -C10     -P1      -C14     :  30.112424
 C12     -C10     -C11     -H38     :-177.084648
 C12     -C10     -C11     -H39     :  59.885204
 C12     -C10     -C11     -H40     : -58.095382
 C12     -C10     -C13     -H44     : 168.085222
 C12     -C10     -C13     -H45     :  50.911006
 C12     -C10     -C13     -H46     : -67.949160
 C13     -C10     -P1      -C14     : -90.704528
 C13     -C10     -C11     -H38     : -68.063217
 C13     -C10     -C11     -H39     : 168.906635
 C13     -C10     -C11     -H40     :  50.926049
 C13     -C10     -C12     -H41     :-173.247491
 C13     -C10     -C12     -H42     :  64.710592
 C13     -C10     -C12     -H43     : -54.249326
 C14     -C15     -C17     -C18     : -99.040662
 C14     -C15     -C17     -C22     :  78.684668
 C14     -C15     -C23     -C24     :-150.519659
 C14     -C15     -C23     -C28     :  29.148899
 C15     -C14     -C16     -H47     :  29.712221
 C15     -C14     -C16     -H48     : -97.454529
 C15     -C14     -C16     -H49     : 144.167263
 C15     -C17     -C18     -C19     : 179.490760
 C15     -C17     -C18     -H50     :   2.210081
 C15     -C17     -C22     -C21     :-179.206335
 C15     -C17     -C22     -H54     :   2.405541
 C15     -C23     -C24     -C25     : 179.628882
 C15     -C23     -C24     -H55     :   2.781103
 C15     -C23     -C28     -C27     : 179.794024
 C15     -C23     -C28     -H59     :   3.808143
 C16     -C14     -C15     -C17     :-174.828500
 C16     -C14     -C15     -C23     :   7.465244
 C17     -C15     -C23     -C24     :  31.493129
 C17     -C15     -C23     -C28     :-148.838313
 C17     -C18     -C19     -C20     :  -0.755862
 C17     -C18     -C19     -H51     :-179.545340
 C17     -C22     -C21     -C20     :   0.604932
 C17     -C22     -C21     -H53     :-179.832218
 C18     -C17     -C15     -C23     :  78.775049
 C18     -C17     -C22     -C21     :  -1.350673
 C18     -C17     -C22     -H54     :-179.738797
 C18     -C19     -C20     -C21     :  -0.139103
 C18     -C19     -C20     -H52     :-179.830284
 C19     -C18     -C17     -C22     :   1.426362
 C19     -C20     -C21     -C22     :   0.213268
 C19     -C20     -C21     -H53     :-179.345407
 C20     -C19     -C18     -H50     : 176.697896
 C20     -C21     -C22     -H54     : 179.104414
 C21     -C20     -C19     -H51     : 178.657652
 C22     -C17     -C15     -C23     :-103.499621
 C22     -C17     -C18     -H50     :-175.854317
 C22     -C21     -C20     -H52     : 179.904195
 C23     -C24     -C25     -C26     :   0.638789
 C23     -C24     -C25     -H56     :-179.714117
 C23     -C28     -C27     -C26     :   0.556079
 C23     -C28     -C27     -H58     :-179.159145
 C24     -C23     -C28     -C27     :  -0.520335
 C24     -C23     -C28     -H59     :-176.506217
 C24     -C25     -C26     -C27     :  -0.600346
 C24     -C25     -C26     -H57     : 179.228375
 C25     -C24     -C23     -C28     :  -0.076549
 C25     -C26     -C27     -C28     :   0.033326
 C25     -C26     -C27     -H58     : 179.751332
 C26     -C25     -C24     -H55     : 177.628853
 C26     -C27     -C28     -H59     : 176.780115
 C27     -C26     -C25     -H56     : 179.751447
 C28     -C23     -C24     -H55     :-176.924328
 C28     -C27     -C26     -H57     :-179.795917
 H50     -C18     -C19     -H51     :  -2.091582
 H51     -C19     -C20     -H52     :  -1.033529
 H52     -C20     -C21     -H53     :   0.345520
 H53     -C21     -C22     -H54     :  -1.332736
 H55     -C24     -C25     -H56     :  -2.724053
 H56     -C25     -C26     -H57     :  -0.419832
 H57     -C26     -C27     -H58     :  -0.077911
 H58     -C27     -C28     -H59     :  -2.935108
 
  nuclear repulsion energy.......          4163.417939159 hartrees
 -------------------------------------------------
   end of geometry optimization iteration  1
 -------------------------------------------------
   
  end of program geopt
   
 Time(geopt)  user:       0.773  user+sys:       0.773  wallclock:       1.206
  
  start of program onee
  
  smallest eigenvalue of S:    4.374E-04
  number of canonical orbitals.....          546
  end of program onee
   
 Time(onee)  user:       6.964  user+sys:       6.964  wallclock:       4.951
  
  start of program probe
  
  end of program probe
   
 Time(probe)  user:       0.574  user+sys:       0.574  wallclock:       0.592
  
  start of program grid
  
  end of program grid
   
 Time(grid)  user:     239.706  user+sys:     239.706  wallclock:     123.693
  
  start of program rwr
  
  end of program rwr
   
 Time(rwr)  user:      16.894  user+sys:      16.894  wallclock:      22.045
  
  start of program scf
  
 Energy computed using pseudospectral method.
 Convergence Criterion:
    Energy (econv):       1.00E-05
    RMS density (dconv):  5.00E-06
  
       i  u  d  i  g                   
       t  p  i  c  r                                 RMS    maximum
       e  d  i  u  i                       energy  density   DIIS  
       r  t  s  t  d       total energy    change  change    error 
  
etot    1  N  N  2  U   -1706.47904271587           1.1E-03  1.7E-02
etot    2  Y  Y  6  M   -1706.58691376893  1.1E-01  2.4E-04  2.1E-03
etot    3  N  Y  2  U   -1706.58807227059  1.2E-03  1.3E-04  3.2E-03
etot    4  Y  Y  6  M   -1706.59099815891  2.9E-03  4.5E-05  1.1E-03
etot    5  N  Y  2  U   -1706.59115010904  1.5E-04  2.0E-05  6.6E-04
etot    6  N  Y  2  U   -1706.59120199394  5.2E-05  9.9E-06  1.8E-04
etot    7  N  Y  2  U   -1706.59121610073  1.4E-05  3.8E-06  5.9E-05
etot    8  N  N  2  U   -1706.59121771332  1.6E-06  0.0E+00  0.0E+00
 
  Computing the dispersion energy correction and its gradients...
  
  
 Energy components, in hartrees:
   (A)  Nuclear repulsion............    4163.41793915866
   (E)  Total one-electron terms.....  -10670.92531993485
   (F)    Electron-nuclear...........  -12279.53796820516
   (H)    Kinetic....................    1608.61264827031
   (I)  Total two-electron terms.....    4800.91616306287
   (J)    Coulomb....................    5020.12416703785
   (K)    Exchange+Correlation.......    -219.20800397498
   (L)  Electronic energy............   -5870.00915687198  (E+I)
   (N0) D3 correction................      -0.13154982636
   (N)  Total energy.................   -1706.72276753968  (A+L+N0)
   (O)  Gas phase energy.............   -1706.72276753968
  
 SCFE: SCF energy: DFT(b3pw91-d3)     -1706.72276753968 hartrees   iterations:   8
  
 
 HOMO energy:    -0.15204
 LUMO energy:    -0.07910
 
  Orbital energies (hartrees): 
   -77.11457   -24.68465   -10.25133   -10.22387   -10.22350   -10.21531
   -10.20952   -10.20156   -10.19477   -10.18687   -10.18594   -10.18481
   -10.18464   -10.18348   -10.18117   -10.17673   -10.17620   -10.17591
   -10.17528   -10.17494   -10.17442   -10.17437   -10.17254   -10.17252
   -10.17061   -10.16894   -10.16750   -10.16564   -10.16556   -10.15871
   -10.11617    -6.61252    -4.77011    -4.76962    -4.76882    -3.34343
    -2.07864    -2.07369    -2.04297    -1.21661    -0.88005    -0.86475
    -0.85602    -0.84473    -0.82354    -0.82178    -0.77241    -0.76485
    -0.76350    -0.75470    -0.74996    -0.74531    -0.73753    -0.70367
    -0.69876    -0.69290    -0.68502    -0.67794    -0.65148    -0.62798
    -0.61793    -0.61258    -0.60569    -0.60071    -0.59705    -0.56721
    -0.55995    -0.54673    -0.52762    -0.52380    -0.49925    -0.48638
    -0.48439    -0.47919    -0.47368    -0.47153    -0.46265    -0.46087
    -0.45782    -0.45688    -0.45249    -0.44727    -0.44667    -0.44024
    -0.43676    -0.43429    -0.43265    -0.42697    -0.42412    -0.41498
    -0.40745    -0.40382    -0.40326    -0.39698    -0.39288    -0.39206
    -0.38158    -0.37709    -0.37531    -0.37299    -0.37151    -0.36511
    -0.35952    -0.35507    -0.35318    -0.34686    -0.34581    -0.34390
    -0.34075    -0.33483    -0.33239    -0.33161    -0.32860    -0.31841
    -0.31241    -0.29898    -0.29321    -0.28805    -0.27410    -0.26387
    -0.26210    -0.25941    -0.25630    -0.24366    -0.24120    -0.23966
    -0.22233    -0.21213    -0.15204    -0.07910    -0.06440    -0.02512
    -0.01207    -0.00926     0.00414     0.01001     0.01520     0.02083
     0.03317
 
  end of program scf
   
 Time(scf)  user:     350.566  user+sys:     350.566  wallclock:     189.126
  
  start of program der1a
  
  end of program der1a
   
 Time(der1a)  user:      21.956  user+sys:      21.956  wallclock:      11.949
  
  start of program rwr
  
  end of program rwr
   
 Time(rwr)  user:      17.760  user+sys:      17.760  wallclock:      23.131
  
  start of program der1b
  
   
  forces (hartrees/bohr) : total     
   
 atom  label           x              y              z
 ---- --------   -------------  -------------  -------------
    1 P1         -4.870529E-03   8.955499E-04   1.168470E-02
    2 Pd2         3.905606E-03  -2.137038E-03  -5.984833E-03
    3 Br3        -3.278826E-02   3.409247E-02   2.614642E-01
    4 C73        -5.439269E-03   1.727434E-03  -7.870673E-04
    5 C74        -1.329146E-03  -4.253296E-03   5.629598E-03
    6 C75        -5.969591E-03   1.832470E-02   7.144647E-03
    7 C76        -2.842682E-03   2.080194E-03  -1.828507E-03
    8 C77         1.541113E-03  -8.370336E-04   2.079832E-03
    9 C78         4.246710E-04   1.110360E-03   2.627371E-03
[...]
    H81      Y    -0.33746  -0.00614  -0.00084   0.00490  -0.00049   0.00215
    H81      Z    -0.07720  -0.00141  -0.00016   0.00116  -0.00002   0.00065
    H82      X    -0.00930  -0.00059  -0.00037   0.00063   0.00162  -0.91164
    H82      Y     0.00245   0.00011   0.00008  -0.00014  -0.00030   0.17944
    H82      Z    -0.00129  -0.00011  -0.00003   0.00013   0.00027  -0.14016
    H83      X    -0.01322   0.00078   0.00005  -0.00040  -0.00007  -0.09725
    H83      Y    -0.01695   0.00090   0.00007  -0.00048  -0.00012  -0.11973
    H83      Z    -0.00538   0.00029   0.00002  -0.00015  -0.00003  -0.03867
    C6       X     0.00002  -0.00000   0.00025   0.00000   0.00002   0.00002
    C6       Y     0.00001   0.00005   0.00356  -0.00001   0.00001   0.00005
    C6       Z     0.00002   0.00004   0.00180  -0.00001   0.00001   0.00005
    C7       X    -0.00000  -0.00001  -0.00002   0.00002  -0.00000   0.00010
    C7       Y     0.00001   0.00002   0.00003  -0.00000  -0.00001  -0.00002
    C7       Z    -0.00002   0.00002   0.00004   0.00001  -0.00003   0.00003
    C8       X    -0.00001   0.00002  -0.00009  -0.00001   0.00003   0.00002
    C8       Y     0.00001   0.00022  -0.00010   0.00002   0.00003   0.00004
    C8       Z     0.00001   0.00022   0.00008   0.00006   0.00000   0.00003
    C9       X    -0.00006  -0.00001   0.00001   0.00002  -0.00001  -0.00102
    C9       Y    -0.00000  -0.00001  -0.00010   0.00001  -0.00001  -0.00055
    C9       Z     0.00004  -0.00001   0.00017  -0.00002   0.00003   0.00148
    C10      X     0.00003   0.00001  -0.00000  -0.00002   0.00003  -0.00001
    C10      Y     0.00000   0.00001   0.00022   0.00004  -0.00008  -0.00000
    C10      Z    -0.00001   0.00002   0.00001  -0.00000  -0.00002   0.00002
    C11      X     0.00041  -0.00001  -0.00016   0.00002  -0.00000  -0.00002
    C11      Y    -0.00008  -0.00002   0.00000  -0.00001   0.00003   0.00007
    C11      Z    -0.00146   0.00003   0.00053  -0.00002  -0.00000   0.00076
    C12      X     0.00024   0.00002   0.00000   0.00005  -0.00007  -0.00001
    C12      Y    -0.00086  -0.00004   0.00019   0.00021  -0.00011   0.00001
    C12      Z    -0.00281  -0.00002   0.00037  -0.00024   0.00021   0.00001
    C13      X     0.00012   0.00011   0.00572  -0.00002   0.00002   0.00003
    C13      Y     0.00001   0.00008   0.00569   0.00002   0.00002   0.00000
    C13      Z    -0.00000   0.00002   0.00043  -0.00000  -0.00000  -0.00001
    C14      X    -0.00000  -0.00004   0.00025  -0.00001  -0.00002  -0.00001
    C14      Y     0.00001   0.00018  -0.00044   0.00007  -0.00005  -0.00001
    C14      Z    -0.00002   0.00008  -0.00076  -0.00005   0.00017   0.00001
    C15      X    -0.00001   0.00002   0.00034   0.00016  -0.00009   0.00000
    C15      Y     0.00000  -0.00004   0.00000  -0.00019   0.00001  -0.00001
    C15      Z     0.00002  -0.00005  -0.00023   0.00008  -0.00009  -0.00002
    C16      X     0.00000  -0.00029   0.00507  -0.00001   0.00002   0.00000
    C16      Y     0.00017  -0.00095  -0.07240   0.00029  -0.00014   0.00004
    C16      Z    -0.00009   0.00057   0.04116  -0.00019   0.00005  -0.00003
    C17      X    -0.00007  -0.00004   0.00004  -0.00168   0.00194   0.00004
    C17      Y    -0.00004   0.00006   0.00002   0.00089  -0.00030   0.00006
    C17      Z    -0.00001  -0.00002  -0.00003  -0.00046  -0.00111  -0.00002
    C18      X     0.00030   0.00040   0.00041   0.02213   0.01004   0.00007
    C18      Y    -0.00009  -0.00015  -0.00016  -0.00736  -0.00351  -0.00004
    C18      Z    -0.00009  -0.00003  -0.00003  -0.00460  -0.00152   0.00004
    C19      X     0.00036   0.00014   0.00011   0.02452   0.01222   0.00005
    C19      Y    -0.00040  -0.00015  -0.00013  -0.02581  -0.01237  -0.00004
    C19      Z     0.00069   0.00025   0.00024   0.04237   0.01978   0.00005
    C20      X    -0.00008  -0.00007   0.00004  -0.02348  -0.01571  -0.00003
    C20      Y     0.00000  -0.00001   0.00003  -0.00558  -0.00541  -0.00001
    C20      Z     0.00007   0.00007  -0.00010   0.03448   0.02708   0.00003
    C21      X     0.00049   0.00002   0.00022   0.00037  -0.03480  -0.00005
    C21      Y    -0.00017  -0.00002  -0.00008   0.00116   0.01206   0.00001
    C21      Z    -0.00006  -0.00001  -0.00002  -0.00307   0.00378   0.00002
    C22      X     0.00012  -0.00005   0.00005   0.01919  -0.02730  -0.00006
    C22      Y    -0.00013   0.00006  -0.00006  -0.01863   0.02766   0.00007
    C22      Z     0.00018  -0.00010   0.00013   0.03400  -0.05134  -0.00007
    C23      X     0.00000   0.00027  -0.00010  -0.00005   0.00000  -0.00000
    C23      Y     0.00003  -0.00152   0.00007  -0.00001   0.00001  -0.00000
    C23      Z     0.00001  -0.00032   0.00006  -0.00003   0.00005   0.00000
    C24      X    -0.00049   0.02298   0.00057   0.00061  -0.00046   0.00002
    C24      Y     0.00024  -0.01168  -0.00022  -0.00021   0.00021  -0.00000
    C24      Z     0.00011  -0.00521  -0.00012  -0.00013   0.00011  -0.00000
    C25      X    -0.00064   0.03473   0.00032  -0.00012  -0.00016  -0.00001
    C25      Y    -0.00043   0.02307   0.00019  -0.00004  -0.00014  -0.00001
    C25      Z    -0.00004   0.00213   0.00001  -0.00000  -0.00002   0.00000
    C26      X     0.00008  -0.00418  -0.00012   0.00001   0.00001  -0.00000
    C26      Y    -0.00086   0.04769  -0.00006  -0.00030  -0.00006  -0.00001
    C26      Z    -0.00020   0.01097  -0.00001  -0.00007  -0.00002  -0.00000
    C27      X     0.00071  -0.03897   0.00088   0.00025   0.00006   0.00001
    C27      Y    -0.00029   0.01594  -0.00042  -0.00010  -0.00001  -0.00001
    C27      Z    -0.00012   0.00635  -0.00014  -0.00005  -0.00002  -0.00000
    C28      X     0.00045  -0.02351   0.00231   0.00021  -0.00007   0.00001
    C28      Y     0.00035  -0.01834   0.00165   0.00017  -0.00004   0.00000
    C28      Z     0.00005  -0.00260   0.00029   0.00002  -0.00001   0.00000
    H29      X    -0.00001   0.00006   0.00717   0.00000   0.00003   0.00003
    H29      Y     0.00006  -0.00013  -0.01438   0.00002  -0.00003  -0.00004
    H29      Z    -0.00001   0.00004   0.00595  -0.00002   0.00002   0.00005
    H30      X    -0.00005  -0.00017  -0.00667   0.00004  -0.00001  -0.00016
    H30      Y    -0.00023  -0.00059  -0.02894   0.00012  -0.00012  -0.00083
    H30      Z    -0.00021  -0.00057  -0.02755   0.00010  -0.00012  -0.00085
    H31      X    -0.00005   0.00018  -0.00478  -0.00017  -0.00011  -0.00018
    H31      Y     0.00001   0.00003  -0.00077  -0.00004  -0.00000  -0.00004
    H31      Z    -0.00003  -0.00000  -0.00070   0.00003  -0.00005   0.00003
    H32      X    -0.00002   0.00020   0.00051   0.00017  -0.00008   0.00004
    H32      Y     0.00003   0.00026   0.00049   0.00003  -0.00002   0.00012
    H32      Z    -0.00004  -0.00039  -0.00145  -0.00038   0.00024  -0.00005
    H33      X     0.00000  -0.00025   0.00088  -0.00014  -0.00026  -0.00037
    H33      Y     0.00003   0.00003   0.00032  -0.00002  -0.00008  -0.00005
    H33      Z    -0.00001   0.00006   0.00019  -0.00004  -0.00002  -0.00004
    H34      X    -0.00000  -0.00024  -0.00024  -0.00002   0.00004   0.00003
    H34      Y    -0.00012  -0.00346   0.00037  -0.00030  -0.00022  -0.00071
    H34      Z    -0.00010  -0.00245   0.00052  -0.00022  -0.00022  -0.00050
    H35      X     0.00019  -0.00004  -0.00050  -0.00000  -0.00002   0.00272
    H35      Y    -0.00030   0.00005   0.00061   0.00004   0.00005  -0.00554
    H35      Z     0.00017  -0.00000  -0.00016  -0.00002  -0.00001   0.00307
    H36      X     0.00037   0.00029   0.00011  -0.00034   0.00006   0.00750
    H36      Y     0.00009   0.00010  -0.00000  -0.00011   0.00001   0.00149
    H36      Z    -0.00006   0.00001   0.00004   0.00004  -0.00003  -0.00069
    H37      X     0.00004  -0.00001   0.00045   0.00000   0.00006   0.00448
    H37      Y     0.00020  -0.00002   0.00054  -0.00006   0.00009   0.00505
    H37      Z    -0.00066  -0.00001  -0.00247   0.00023  -0.00034  -0.02755
    H38      X    -0.00465   0.00018   0.00139  -0.00001  -0.00036   0.00030
    H38      Y    -0.00151   0.00004   0.00041   0.00006  -0.00022   0.00012
    H38      Z     0.00131  -0.00005  -0.00055   0.00002   0.00008   0.00014
    H39      X    -0.00146   0.00003   0.00047  -0.00002   0.00001   0.00097
    H39      Y     0.00298  -0.00006  -0.00091   0.00005   0.00000  -0.00166
    H39      Z     0.01639  -0.00024  -0.00572   0.00020   0.00002  -0.00907
    H40      X     0.00090  -0.00023  -0.00027   0.00001   0.00012  -0.00101
    H40      Y    -0.00053   0.00025   0.00026  -0.00006  -0.00005   0.00070
    H40      Z     0.00015  -0.00016  -0.00014   0.00002   0.00006  -0.00060
    H41      X    -0.00740  -0.00006   0.00065  -0.00099   0.00106   0.00005
    H41      Y     0.00468   0.00002  -0.00074   0.00052  -0.00030  -0.00008
    H41      Z     0.03064   0.00029  -0.00329   0.00367  -0.00378  -0.00033
    H42      X     0.00125   0.00009  -0.00061  -0.00115   0.00129  -0.00003
    H42      Y     0.00845   0.00026  -0.00256  -0.00521   0.00563  -0.00007
    H42      Z     0.00185   0.00010  -0.00025   0.00038  -0.00122   0.00001
    H43      X     0.00277  -0.00022  -0.00044   0.00106  -0.00081   0.00002
    H43      Y    -0.00281   0.00020   0.00058  -0.00082   0.00040  -0.00004
    H43      Z     0.00217  -0.00019  -0.00034   0.00113  -0.00090   0.00006
    H44      X    -0.00170  -0.00075  -0.04448   0.00008  -0.00019  -0.00033
    H44      Y    -0.00019  -0.00014  -0.00814   0.00003  -0.00001  -0.00003
    H44      Z     0.00064   0.00024   0.01335  -0.00005   0.00010   0.00011
    H45      X    -0.00022  -0.00009   0.00668   0.00015  -0.00003  -0.00000
    H45      Y     0.00033   0.00014  -0.00719  -0.00018   0.00003   0.00000
    H45      Z    -0.00025  -0.00010   0.00461   0.00014  -0.00008   0.00001
    H46      X    -0.00006  -0.00029  -0.01759  -0.00003  -0.00006  -0.00004
    H46      Y    -0.00022  -0.00122  -0.07064   0.00001  -0.00014  -0.00008
    H46      Z    -0.00007  -0.00036  -0.02244  -0.00005  -0.00003  -0.00004
    H47      X    -0.00033   0.00128   0.11533  -0.00033   0.00024  -0.00009
    H47      Y    -0.00051   0.00213   0.15961  -0.00051   0.00033  -0.00010
    H47      Z    -0.00029   0.00130   0.08838  -0.00026   0.00020  -0.00004
    H48      X     0.00015   0.00358  -0.11147   0.00006  -0.00056  -0.00002
    H48      Y    -0.00000  -0.00098   0.01360   0.00000   0.00015   0.00004
    H48      Z    -0.00003   0.00022   0.00131   0.00006   0.00005   0.00002
    H49      X     0.00020  -0.00088  -0.07944   0.00032  -0.00012   0.00006
    H49      Y    -0.00167   0.00994   0.71005  -0.00300   0.00097  -0.00040
    H49      Z     0.00134  -0.00805  -0.57190   0.00245  -0.00057   0.00033
    H50      X    -0.00330  -0.00466  -0.00478  -0.23923  -0.10500  -0.00072
    H50      Y     0.00121   0.00170   0.00179   0.08951   0.03953   0.00030
    H50      Z     0.00037   0.00043   0.00041   0.02616   0.01105   0.00006
    H51      X    -0.00424  -0.00152  -0.00140  -0.26683  -0.12605  -0.00037
    H51      Y     0.00454   0.00164   0.00149   0.28389   0.13342   0.00042
    H51      Z    -0.00755  -0.00269  -0.00251  -0.47126  -0.22090  -0.00068
    H52      X     0.00060   0.00053  -0.00063   0.24042   0.17532   0.00024
    H52      Y     0.00012   0.00016  -0.00022   0.07128   0.05430   0.00008
    H52      Z    -0.00084  -0.00081   0.00108  -0.39032  -0.29031  -0.00040
    H53      X    -0.00556  -0.00038  -0.00243  -0.00315   0.37260   0.00046
    H53      Y     0.00196   0.00014   0.00087  -0.00070  -0.13288  -0.00017
    H53      Z     0.00047   0.00005   0.00022   0.00424  -0.03253  -0.00004
    H54      X    -0.00108   0.00070  -0.00070  -0.22188   0.32230   0.00050
    H54      Y     0.00101  -0.00076   0.00068   0.21605  -0.31538  -0.00050
    H54      Z    -0.00188   0.00125  -0.00133  -0.39276   0.57506   0.00085
    H55      X     0.00551  -0.25840  -0.00629  -0.00648   0.00478  -0.00018
    H55      Y    -0.00241   0.11423   0.00273   0.00242  -0.00180   0.00006
    H55      Z    -0.00115   0.05519   0.00136   0.00133  -0.00110   0.00002
    H56      X     0.00687  -0.37331  -0.00348   0.00106   0.00201   0.00007
    H56      Y     0.00476  -0.25901  -0.00250   0.00067   0.00147   0.00005
    H56      Z     0.00046  -0.02498  -0.00024   0.00008   0.00016   0.00001
    H57      X    -0.00084   0.04657   0.00005  -0.00032  -0.00005  -0.00001
    H57      Y     0.00943  -0.52112   0.00028   0.00345   0.00070   0.00012
    H57      Z     0.00217  -0.11963   0.00003   0.00080   0.00017   0.00003
    H58      X    -0.00767   0.42054  -0.00965  -0.00273  -0.00056  -0.00014
    H58      Y     0.00332  -0.18177   0.00432   0.00119   0.00025   0.00006
    H58      Z     0.00129  -0.07041   0.00166   0.00047   0.00010   0.00002
    H59      X    -0.00509   0.26792  -0.02721  -0.00253   0.00097  -0.00005
    H59      Y    -0.00361   0.19076  -0.01882  -0.00178   0.00064  -0.00004
    H59      Z    -0.00047   0.02500  -0.00295  -0.00025   0.00010  -0.00000
  
  Number of imaginary frequencies:   0
   
  Writing vibrational animation data to ox_add_L_trans_L1_PL747.vib
  Writing IR vibrational spectrum data to ox_add_L_trans_L1_PL747_vib.spm
  rotational symmetry number:  1

  rotational temperatures (K):      0.007316      0.003992      0.003196
   
  The Quasi-Harmonic approximation will be applied to compute
  vibrational constributions to thermodynamic properties.
  Frequencies will be adjusted to a minimum value of  100.00 cm^-1.

  vibrational temperatures:
       mode:      1        2        3        4        5        6
  temp. (K):   143.88   143.88   143.88   143.88   143.88   143.88
   
       mode:      7        8        9       10       11       12
  temp. (K):   143.88   143.88   143.88   143.88   150.74   155.67
   
       mode:     13       14       15       16       17       18
  temp. (K):   167.11   169.12   175.62   190.97   198.88   213.21
   
       mode:     19       20       21       22       23       24
  temp. (K):   233.29   245.02   251.95   289.62   308.43   309.60
   
       mode:     25       26       27       28       29       30
  temp. (K):   348.35   352.06   358.50   361.00   365.72   375.73
   
       mode:     31       32       33       34       35       36
  temp. (K):   384.46   386.71   421.12   423.56   434.92   452.47
   
       mode:     37       38       39       40       41       42
  temp. (K):   462.41   483.75   499.20   531.39   553.41   568.70
   
       mode:     43       44       45       46       47       48
  temp. (K):   577.66   579.66   585.81   589.82   597.39   603.49
   
       mode:     49       50       51       52       53       54
  temp. (K):   614.86   622.59   670.12   678.16   717.52   742.20
   
       mode:     55       56       57       58       59       60
  temp. (K):   755.04   798.75   832.84   848.68   886.67   896.07
   
       mode:     61       62       63       64       65       66
  temp. (K):   902.16   911.46   912.48   959.28  1005.34  1011.40
   
       mode:     67       68       69       70       71       72
  temp. (K):  1031.89  1043.92  1099.45  1113.81  1162.34  1185.77
   
       mode:     73       74       75       76       77       78
  temp. (K):  1192.93  1197.27  1201.27  1212.36  1247.79  1254.16
   
       mode:     79       80       81       82       83       84
  temp. (K):  1332.55  1364.49  1368.81  1370.97  1375.87  1381.36
   
       mode:     85       86       87       88       89       90
  temp. (K):  1386.20  1388.70  1389.78  1412.50  1428.11  1429.61
   
       mode:     91       92       93       94       95       96
  temp. (K):  1439.87  1462.49  1464.71  1466.76  1468.65  1474.74
   
       mode:     97       98       99      100      101      102
  temp. (K):  1479.20  1497.81  1503.37  1519.03  1520.46  1524.59
   
       mode:    103      104      105      106      107      108
  temp. (K):  1533.18  1534.53  1547.82  1610.31  1614.68  1625.24
   
       mode:    109      110      111      112      113      114
  temp. (K):  1664.77  1720.38  1734.58  1739.00  1740.81  1746.03
   
       mode:    115      116      117      118      119      120
  temp. (K):  1752.77  1759.21  1761.40  1777.12  1787.50  1789.56
   
       mode:    121      122      123      124      125      126
  temp. (K):  1803.24  1843.40  1878.94  1894.40  1930.18  1932.45
   
       mode:    127      128      129      130      131      132
  temp. (K):  1943.04  1982.31  1987.75  2043.66  2050.29  2050.87
   
       mode:    133      134      135      136      137      138
  temp. (K):  2053.56  2055.91  2068.89  2093.74  2107.24  2132.76
   
       mode:    139      140      141      142      143      144
  temp. (K):  2145.59  2160.47  2162.14  2163.87  2169.87  2175.75
   
       mode:    145      146      147      148      149      150
  temp. (K):  2179.90  2184.88  2195.34  2196.96  2199.03  2204.24
   
       mode:    151      152      153      154      155      156
  temp. (K):  2206.66  2215.05  2219.10  2224.39  2232.11  2240.80
   
       mode:    157      158      159      160      161      162
  temp. (K):  2345.32  2364.73  2367.17  2376.68  2384.35  2399.70
   
       mode:    163      164      165      166      167      168
  temp. (K):  2406.28  4384.21  4385.36  4386.60  4388.55  4393.04
   
       mode:    169      170      171      172      173      174
  temp. (K):  4395.22  4407.84  4477.55  4484.88  4491.16  4495.24
   
       mode:    175      176      177      178      179      180
  temp. (K):  4497.14  4499.69  4507.85  4539.82  4559.30  4561.83
   
       mode:    181      182      183      184      185      186
  temp. (K):  4566.81  4582.44  4589.94  4592.57  4593.05  4594.43
   
       mode:    187      188      189      190      191      192
  temp. (K):  4597.71  4601.70  4605.82  4615.86  4616.95  4617.66
   
       mode:    193      194      195      196      197      198
  temp. (K):  4625.25  4626.08  4627.79  4633.42  4641.29  4682.14
   
   
  Thermodynamic properties calculated assuming an ideal gas

  In the table below, the units for temperature
  are kelvins, the units for U, H, and G are
  kcal/mol and the units for Cv and S are cal/(mol K)

  The zero point energy (ZPE):    357.928 kcal/mol
  is not included in U, H, or G in the table below
  
 
  =============================================================================
  Thermodynamic properties for P = 1.00E+00 atm, calculated at   1 temperatures


  T =   298.15 K, P = 1.00E+00 atm
   
                  U         Cv          S          H          G        ln(Q)
              =========  =========  =========  =========  =========  =========
  trans.          0.889      2.981     45.147      1.481    -11.979   20.21902
  rot.            0.889      2.981     37.185      0.889    -10.198   17.21226
  vib.           19.768    129.113    119.838     19.768    -15.962   26.94063
  elec.           0.000      0.000      0.000      0.000      0.000    0.00000
  ----------------------------------------------------------------------------
  total          21.545    135.074    202.170     22.138    -38.139   64.37191
   
   Total internal energy, Utot(SCFE + ZPE + U):   -1706.389481 hartrees
   Total enthalpy, Htot (Utot + nRT), with n=1:   -1706.388537 hartrees
    Total Gibbs free energy, Gtot (Htot - T*S):   -1706.484594 hartrees
   
  end of program freq
   
 Time(freq)  user:       0.347  user+sys:       0.347  wallclock:       0.578
  
  start of program post
  
  Writing input files for PBF
  end of program post
   
 Time(post)  user:       0.185  user+sys:       0.185  wallclock:       0.151

 Total cpu seconds     user:   79495.725   user+sys:   79495.725
  
 Total elapsed time:    47666 seconds

Job ox_add_L_trans_L1_PL747 completed on bp1-compute050.data.bp.acrc.priv at Wed Apr  2 01:18:36 2025
