Job ox_add_TS_L1_PL747 started on bp1-compute087 at Wed Mar 19 06:37:05 2025
jobid: bp1-compute087-0-67da660b

  +--------------------------------------------------------------------+
  |  Jaguar version 12.5, release 138                                  |
  |                                                                    |
  |  Copyright Schrodinger, Inc.                                       |
  |  All Rights Reserved.                                              |
  |                                                                    |
  |  The following have contributed to Jaguar (listed alphabetically): |
  |  Ty Balduf, Mike Beachy, Chandler Bennett, Art Bochevarov,         |
  |  Dale Braden, Yixiang Cao, Alan Chien, Chris Cortis,               |
  |  Rich Friesner, Jim Furness, Bill Goddard, Hod Greeley,            |
  |  Tom Hughes, Leif Jacobson, Jean-Marc Langlois, Daniel Levine,     |
  |  Rob Murphy, Dean Philipp, Tom Pollard, Murco Ringnalda,           |
  |  Daniel Mainz, Pablo Videla, Mark Watson, Haoyu Yu.                |
  |                                                                    |
  |  Use of this program should be acknowledged in publications as:    |
  |                                                                    |
  |  Jaguar, version 12.5, Schrodinger, Inc., New York, NY, 2024.      |
  |                                                                    |
  |  A. D. Bochevarov, E. Harder, T. F. Hughes, J. R. Greenwood,       |
  |  D. A. Braden, D. M. Philipp, D. Rinaldo, M. D. Halls,             |
  |  J. Zhang, R. A. Friesner, "Jaguar: A High-Performance Quantum     |
  |  Chemistry Software Program with Strengths in Life and Materials   |
  |  Sciences", Int. J. Quantum Chem., 2013, 113(18), 2110-2142.       |
  +--------------------------------------------------------------------+
  
  start of program pre
  
  Job name: ox_add_TS_L1_PL747
  Executables used: /software/local/apps/schrodinger2024-3/jaguar-v12.5/bin/Linux-x86_64
  Temporary files : /tmp/ar21627/ox_add_TS_L1_PL747#bp1-compute087-0-67da660b
  Basis file : using default basis file from /software/local/apps/schrodinger2024-3
  Maestro file (input):  ox_add_TS_L1_PL747.mae
  Maestro file (output): ox_add_TS_L1_PL747.01.mae
  
 Contents of input file: &gen and (if present) &atomic sections only
 ----------------Contents start----------------
&gen
dftname=b3pw91-d3
basis=6-31G*
numd=5
ip11=2
iaccg=3
isolv=2
igeopt=2
solvent=benzene
ifreq=1
&
&atomic
atom basis
Pd2 lacv3p*
Br3 lacv3p*
&
 -----------------Contents end-----------------
 
  PS calculation requested. Using PS version of 6-31g*
  basis set:               non_standard                    
  net molecular charge:    0
  multiplicity:            1
  
  Using up to   4 threads per process
  
  This run will use ECP on            2  atoms
  number of basis functions....          548
  
 Input geometry:
                                   angstroms
  atom               x                 y                 z
  P1            0.0000000000      0.0000000000      0.0000000000 
  Pd2           0.0000000000      0.0000000000      2.3517789536 
  Br3           0.8127497928      0.0000000000      4.9970488136 
  C73          -1.5129314544      3.7324258484      2.9838813386 
  C74          -0.1281109283      3.6777194835      2.8759596220 
  C75           0.5370637645      2.5314849786      3.3004588046 
  C76          -0.2220101190      1.4406557636      3.7707512531 
  C77          -1.6140881488      1.5421789744      3.9580624655 
  C78          -2.2647208744      2.6991547125      3.5256903057 
  F79          -2.1540578668      4.8418751516      2.5427602649 
  H80           0.4125825200      4.5084643527      2.4348642989 
  H81           1.6156381571      2.4573626438      3.2230842146 
  H82          -2.1675574363      0.7271166184      4.4118783462 
  H83          -3.3433096533      2.8020893354      3.6051745638 
  C6            2.4859719890      0.0000000000     -1.6223129383 
  C7            1.8417756257      0.2769820460     -0.2399989394 
  C8            2.6663087097     -0.6082138621      0.7365118888 
  C9            2.2012755100      1.7300295336      0.1185451052 
  C10          -1.0442422168      1.0525620250     -1.2245682407 
  C11          -1.4860189141      2.4068635562     -0.6186336630 
  C12          -2.3367912708      0.3331721453     -1.7052096288 
  C13          -0.3250889897      1.4259492335     -2.5340722034 
  C14          -0.6347117209     -1.6922415293     -0.3828062666 
  C15          -1.6302748092     -2.3927843535      0.2399897583 
  C16           0.0498481859     -2.2307293172     -1.6154187915 
  C17          -2.5205641274     -1.8331540020      1.3175461603 
  C18          -3.2361967390     -2.6805096353      2.2022542455 
  C19          -4.0600273760     -2.2250561135      3.2408307573 
  C20          -4.2109305406     -0.8520848934      3.4784760050 
  C21          -3.5076587701      0.0284255940      2.6542490346 
  C22          -2.6925367435     -0.4708665801      1.6203982685 
  C23          -1.8623523873     -3.8259187935     -0.1349257984 
  C24          -3.1554951512     -4.4027058888     -0.0568525067 
  C25          -3.4421022397     -5.7330231762     -0.4105038771 
  C26          -2.4188354248     -6.5759441177     -0.8636145833 
  C27          -1.1216326943     -6.0523033683     -0.9583005987 
  C28          -0.8732314023     -4.7159716000     -0.6057184053 
  H29           2.0813719627      0.6072601128     -2.4483495804 
  H30           2.4311175010     -1.0725477374     -1.9263398058 
  H31           3.5745669595      0.2314293317     -1.6211068800 
  H32           2.4573412261     -0.3720653966      1.7972151899 
  H33           3.7578638055     -0.4604751279      0.6100969397 
  H34           2.4638157099     -1.6856423925      0.5552817953 
  H35           1.6519446043      2.4722168973     -0.4992230335 
  H36           3.2811668996      1.9419156510     -0.0149459428 
  H37           1.9871346933      1.9556400374      1.1879195070 
  H38          -0.6157427779      3.0122505336     -0.2973626647 
  H39          -2.1831377681      2.2877233763      0.2375526023 
  H40          -2.0479247989      3.0245050227     -1.3585909559 
  H41          -3.0368992754      0.0578162296     -0.8875143619 
  H42          -2.1139318149     -0.5972890217     -2.2671034618 
  H43          -2.9294144919      0.9726865205     -2.3898585036 
  H44           0.5506695379      2.0950297279     -2.3609297955 
  H45          -0.9761293915      2.0030120040     -3.2222182302 
  H46          -0.0026444036      0.5379374497     -3.1141278566 
  H47          -0.5594442697     -2.9507240190     -2.2036197206 
  H48           1.0543217752     -2.6543280660     -1.3763938799 
  H49           0.2089887201     -1.4238140282     -2.3645129156 
  H50          -3.1419181795     -3.7712210074      2.1619894233 
  H51          -4.5804963435     -2.9436655974      3.8935462111 
  H52          -4.8535231849     -0.4799595536      4.2930319729 
  H53          -3.5899332507      1.1152026592      2.8130272456 
  H54          -2.1961053731      0.2994317511      1.0380707185 
  H55          -4.0307812875     -3.7991870334      0.2351071833 
  H56          -4.4739698759     -6.1207038115     -0.3304170105 
  H57          -2.6247252347     -7.6205234697     -1.1315014316 
  H58          -0.3025493460     -6.7027232928     -1.3096642141 
  H59           0.1864454950     -4.4198743842     -0.6757991606 
   
  principal moments of inertia:
        amu*angstrom^2:              3787.12844              6226.28413              6953.79470
                g*cm^2:          6.28867394E-37          1.03389867E-36          1.15470463E-36
   
  rotational constants:
               cm^(-1):      0.00445130      0.00270749      0.00242423
                   GHz:      0.13344649      0.08116864      0.07267672
   
  Molecular weight:     618.07 amu
   
  Stoichiometry: PdC29PH35BrF
  Molecular Point Group: C1      
  Point Group used: C1
  
 
Number of optimization coordinates:   231
Number of independent coordinates:    231
Number of non-redundant coordinates:  198
Number of frozen coordinates:           0
Number of harmonic constraints:         0
 
Number of geometric degrees of freedom:   198
Maximum geometric degrees of freedom:     198
 " " " " " excluding dummy atoms:         198
 
 
  bond lengths (angstroms):
 
 P1      -Pd2     :   2.351779      P1      -C7      :   1.877886
 P1      -C10     :   1.922991      P1      -C14     :   1.847453
 Pd2     -Br3     :   2.767312      Pd2     -C76     :   2.034271
 Br3     -C76     :   2.156391      C73     -C74     :   1.390096
 C73     -C78     :   1.387946      C73     -F79     :   1.355178
 C74     -C75     :   1.391586      C74     -H80     :   1.084920
 C75     -C76     :   1.409708      C75     -H81     :   1.083884
 C76     -C77     :   1.408288      C77     -C78     :   1.396016
 C77     -H82     :   1.084714      C78     -H83     :   1.086401
 C6      -C7      :   1.550000      C6      -H29     :   1.102181
 C6      -H30     :   1.116154      C6      -H31     :   1.112924
 C7      -C8      :   1.554670      C7      -C9      :   1.539201
 C8      -H32     :   1.106583      C8      -H33     :   1.108738
 C8      -H34     :   1.111171      C9      -H35     :   1.110965
 C9      -H36     :   1.108549      C9      -H37     :   1.113696
 C10     -C11     :   1.548049      C10     -C12     :   1.555385
 C10     -C13     :   1.539935      C11     -H38     :   1.107740
 C11     -H39     :   1.110506      C11     -H40     :   1.115686
 C12     -H41     :   1.111124      C12     -H42     :   1.109572
 C12     -H43     :   1.108569      C13     -H44     :   1.115616
 C13     -H45     :   1.109234      C13     -H46     :   1.108603
 C14     -C15     :   1.367399      C14     -C16     :   1.509280
 C15     -C17     :   1.505632      C15     -C23     :   1.499432
 C16     -H47     :   1.111580      C16     -H48     :   1.116036
 C16     -H49     :   1.112466      C17     -C18     :   1.418749
 C17     -C22     :   1.406101      C18     -C19     :   1.401705
 C18     -H50     :   1.095519      C19     -C20     :   1.401534
 C19     -H51     :   1.101510      C20     -C21     :   1.396152
 C20     -H52     :   1.102227      C21     -C22     :   1.408036
 C21     -H53     :   1.101392      C22     -H54     :   1.085776
 C23     -C24     :   1.418096      C23     -C28     :   1.411453
 C24     -C25     :   1.406043      C24     -H55     :   1.102543
 C25     -C26     :   1.401035      C25     -H56     :   1.105197
 C26     -C27     :   1.402106      C26     -H57     :   1.097862
 C27     -C28     :   1.404208      C27     -H58     :   1.103359
 C28     -H59     :   1.102497
 
  bond angles:
 
 C7      -P1      -Pd2     :  97.342638  C10     -P1      -Pd2     : 129.553898
 C10     -P1      -C7      : 111.744572  C14     -P1      -Pd2     : 101.958762
 C14     -P1      -C7      : 116.460285  C14     -P1      -C10     : 100.536212
 Br3     -Pd2     -P1      : 162.920610  C76     -Pd2     -P1      : 134.229445
 C76     -Pd2     -Br3     :  50.600870  C76     -Br3     -Pd2     :  46.801082
 C78     -C73     -C74     : 122.725126  F79     -C73     -C74     : 118.570871
 F79     -C73     -C78     : 118.703960  C75     -C74     -C73     : 119.007012
 H80     -C74     -C73     : 119.861843  H80     -C74     -C75     : 121.098960
 C76     -C75     -C74     : 118.799927  H81     -C75     -C74     : 120.677739
 H81     -C75     -C76     : 120.445769  Br3     -C76     -Pd2     :  82.598047
 C75     -C76     -Pd2     : 104.864201  C75     -C76     -Br3     : 116.634448
 C77     -C76     -Pd2     : 104.578646  C77     -C76     -Br3     : 116.542285
 C77     -C76     -C75     : 121.389509  C78     -C77     -C76     : 118.636478
 H82     -C77     -C76     : 120.387739  H82     -C77     -C78     : 120.965076
 C77     -C78     -C73     : 119.041570  H83     -C78     -C73     : 119.721544
 H83     -C78     -C77     : 121.236849  H29     -C6      -C7      : 114.667671
 H30     -C6      -C7      : 113.216762  H30     -C6      -H29     : 107.893773
 H31     -C6      -C7      : 111.616907  H31     -C6      -H29     : 104.199965
 H31     -C6      -H30     : 104.370416  C6      -C7      -P1      : 119.685427
 C8      -C7      -P1      : 110.848869  C8      -C7      -C6      : 103.768090
 C9      -C7      -P1      : 109.788049  C9      -C7      -C6      : 106.222348
 C9      -C7      -C8      : 105.505012  H32     -C8      -C7      : 112.359211
 H33     -C8      -C7      : 112.002951  H33     -C8      -H32     : 105.472016
 H34     -C8      -C7      : 110.670603  H34     -C8      -H32     : 109.198763
 H34     -C8      -H33     : 106.858970  H35     -C9      -C7      : 112.683762
 H36     -C9      -C7      : 112.328328  H36     -C9      -H35     : 106.680106
 H37     -C9      -C7      : 111.715700  H37     -C9      -H35     : 107.669515
 H37     -C9      -H36     : 105.320351  C11     -C10     -P1      : 112.616616
 C12     -C10     -P1      : 113.259062  C12     -C10     -C11     : 106.764108
 C13     -C10     -P1      : 114.874709  C13     -C10     -C11     : 104.714106
 C13     -C10     -C12     : 103.736378  H38     -C11     -C10     : 111.557046
 H39     -C11     -C10     : 112.772054  H39     -C11     -H38     : 109.159948
 H40     -C11     -C10     : 111.619353  H40     -C11     -H38     : 106.587826
 H40     -C11     -H39     : 104.748381  H41     -C12     -C10     : 114.256512
 H42     -C12     -C10     : 112.174739  H42     -C12     -H41     : 106.942602
 H43     -C12     -C10     : 111.609504  H43     -C12     -H41     : 105.107199
 H43     -C12     -H42     : 106.163418  H44     -C13     -C10     : 112.336163
 H45     -C13     -C10     : 112.308433  H45     -C13     -H44     : 104.182669
 H46     -C13     -C10     : 112.739674  H46     -C13     -H44     : 109.468348
 H46     -C13     -H45     : 105.237954  C15     -C14     -P1      : 128.684936
 C16     -C14     -P1      : 109.889446  C16     -C14     -C15     : 121.292777
 C17     -C15     -C14     : 124.475500  C23     -C15     -C14     : 119.240168
 C23     -C15     -C17     : 116.275301  H47     -C16     -C14     : 114.496636
 H48     -C16     -C14     : 111.637587  H48     -C16     -H47     : 111.150763
 H49     -C16     -C14     : 110.856140  H49     -C16     -H47     : 101.064513
 H49     -C16     -H48     : 106.904158  C18     -C17     -C15     : 121.503772
 C22     -C17     -C15     : 125.914389  C22     -C17     -C18     : 112.497504
 C19     -C18     -C17     : 124.362798  H50     -C18     -C17     : 121.891101
 H50     -C18     -C19     : 113.660382  C20     -C19     -C18     : 120.478961
 H51     -C19     -C18     : 120.316905  H51     -C19     -C20     : 119.192149
 C21     -C20     -C19     : 117.611883  H52     -C20     -C19     : 121.252466
 H52     -C20     -C21     : 121.132845  C22     -C21     -C20     : 120.095366
 H53     -C21     -C20     : 119.971301  H53     -C21     -C22     : 119.933325
 C21     -C22     -C17     : 124.924857  H54     -C22     -C17     : 121.057891
 H54     -C22     -C21     : 114.010856  C24     -C23     -C15     : 121.072537
 C28     -C23     -C15     : 125.285237  C28     -C23     -C24     : 113.635329
 C25     -C24     -C23     : 123.838833  H55     -C24     -C23     : 121.055335
 H55     -C24     -C25     : 115.004393  C26     -C25     -C24     : 120.112978
 H56     -C25     -C24     : 120.263401  H56     -C25     -C26     : 119.623423
 C27     -C26     -C25     : 118.220572  H57     -C26     -C25     : 120.956461
 H57     -C26     -C27     : 120.821812  C28     -C27     -C26     : 120.140430
 H58     -C27     -C26     : 119.219895  H58     -C27     -C28     : 120.639506
 C27     -C28     -C23     : 124.048634  H59     -C28     -C23     : 121.695734
 H59     -C28     -C27     : 114.183109
 
  torsional angles:
 
 P1      -Pd2     -Br3     -C76     : 113.585282
 P1      -Pd2     -C76     -Br3     :-157.936381
 P1      -Pd2     -C76     -C75     : -42.263337
 P1      -Pd2     -C76     -C77     :  86.480728
 P1      -C7      -C6      -H29     :  60.423601
 P1      -C7      -C6      -H30     : -63.971781
 P1      -C7      -C6      -H31     : 178.610880
 P1      -C7      -C8      -H32     : -61.557565
 P1      -C7      -C8      -H33     : 179.931233
 P1      -C7      -C8      -H34     :  60.802319
 P1      -C7      -C9      -H35     : -59.094664
 P1      -C7      -C9      -H36     :-179.623589
 P1      -C7      -C9      -H37     :  62.275757
 P1      -C10     -C11     -H38     :  58.116114
 P1      -C10     -C11     -H39     : -65.152471
 P1      -C10     -C11     -H40     : 177.243530
 P1      -C10     -C12     -H41     :  59.561348
 P1      -C10     -C12     -H42     : -62.364252
 P1      -C10     -C12     -H43     : 178.637193
 P1      -C10     -C13     -H44     : -64.845351
 P1      -C10     -C13     -H45     : 178.096263
 P1      -C10     -C13     -H46     :  59.410745
 P1      -C14     -C15     -C17     :   6.457709
 P1      -C14     -C15     -C23     :-172.406568
 P1      -C14     -C16     -H47     :-151.247671
 P1      -C14     -C16     -H48     :  81.355884
 P1      -C14     -C16     -H49     : -37.714256
 Pd2     -P1      -C7      -C6      : 164.064689
 Pd2     -P1      -C7      -C8      :  43.384917
 Pd2     -P1      -C7      -C9      : -72.784384
 Pd2     -P1      -C10     -C11     :  26.616122
 Pd2     -P1      -C10     -C12     : -94.660115
 Pd2     -P1      -C10     -C13     : 146.381420
 Pd2     -P1      -C14     -C15     :  40.002308
 Pd2     -P1      -C14     -C16     :-144.206813
 Pd2     -Br3     -C76     -C75     :-102.958243
 Pd2     -Br3     -C76     -C77     : 102.640667
 Pd2     -C76     -C75     -C74     : 110.681618
 Pd2     -C76     -C75     -H81     : -66.158207
 Pd2     -C76     -C77     -C78     :-110.762977
 Pd2     -C76     -C77     -H82     :  68.058233
 Br3     -Pd2     -P1      -C7      :  -8.552539
 Br3     -Pd2     -P1      -C10     :-134.772660
 Br3     -Pd2     -P1      -C14     : 110.559641
 Br3     -Pd2     -C76     -C75     : 115.673044
 Br3     -Pd2     -C76     -C77     :-115.582891
 Br3     -C76     -C75     -C74     :-160.235470
 Br3     -C76     -C75     -H81     :  22.924705
 Br3     -C76     -C77     -C78     : 160.319162
 Br3     -C76     -C77     -H82     : -20.859629
 C73     -C74     -C75     -C76     :   2.788945
 C73     -C74     -C75     -H81     : 179.621198
 C73     -C78     -C77     -C76     :  -2.927155
 C73     -C78     -C77     -H82     : 178.258704
 C74     -C73     -C78     -C77     :  -1.328160
 C74     -C73     -C78     -H83     : 178.741364
 C74     -C75     -C76     -C77     :  -7.158916
 C75     -C74     -C73     -C78     :   1.400090
 C75     -C74     -C73     -F79     :-178.676353
 C75     -C76     -C77     -C78     :   7.219193
 C75     -C76     -C77     -H82     :-173.959597
 C76     -Pd2     -P1      -C7      :  90.208027
 C76     -Pd2     -P1      -C10     : -36.012093
 C76     -Pd2     -P1      -C14     :-150.679792
 C76     -C75     -C74     -H80     :-175.144442
 C76     -C77     -C78     -H83     : 177.002230
 C77     -C76     -C75     -H81     : 176.001259
 C77     -C78     -C73     -F79     : 178.748380
 C78     -C73     -C74     -H80     : 179.359586
 F79     -C73     -C74     -H80     :  -0.716857
 F79     -C73     -C78     -H83     :  -1.182096
 H80     -C74     -C75     -H81     :   1.687812
 H82     -C77     -C78     -H83     :  -1.811911
 C6      -C7      -P1      -C10     : -57.977571
 C6      -C7      -P1      -C14     :  56.756994
 C6      -C7      -C8      -H32     : 168.730180
 C6      -C7      -C8      -H33     :  50.218977
 C6      -C7      -C8      -H34     : -68.909937
 C6      -C7      -C9      -H35     :  71.659901
 C6      -C7      -C9      -H36     : -48.869024
 C6      -C7      -C9      -H37     :-166.969678
 C7      -P1      -C10     -C11     : -93.906048
 C7      -P1      -C10     -C12     : 144.817715
 C7      -P1      -C10     -C13     :  25.859250
 C7      -P1      -C14     -C15     : 144.559309
 C7      -P1      -C14     -C16     : -39.649812
 C8      -C7      -P1      -C10     :-178.657343
 C8      -C7      -P1      -C14     : -63.922778
 C8      -C7      -C6      -H29     :-175.418780
 C8      -C7      -C6      -H30     :  60.185837
 C8      -C7      -C6      -H31     : -57.231501
 C8      -C7      -C9      -H35     :-178.588850
 C8      -C7      -C9      -H36     :  60.882225
 C8      -C7      -C9      -H37     : -57.218429
 C9      -C7      -P1      -C10     :  65.173356
 C9      -C7      -P1      -C14     : 179.907921
 C9      -C7      -C6      -H29     : -64.445286
 C9      -C7      -C6      -H30     : 171.159331
 C9      -C7      -C6      -H31     :  53.741993
 C9      -C7      -C8      -H32     :  57.232106
 C9      -C7      -C8      -H33     : -61.279096
 C9      -C7      -C8      -H34     : 179.591989
 C10     -P1      -C14     -C15     : -94.544224
 C10     -P1      -C14     -C16     :  81.246655
 C11     -C10     -P1      -C14     : 141.891313
 C11     -C10     -C12     -H41     : -64.954754
 C11     -C10     -C12     -H42     : 173.119646
 C11     -C10     -C12     -H43     :  54.121091
 C11     -C10     -C13     -H44     :  59.211664
 C11     -C10     -C13     -H45     : -57.846722
 C11     -C10     -C13     -H46     :-176.532241
 C12     -C10     -P1      -C14     :  20.615076
 C12     -C10     -C11     -H38     :-176.975318
 C12     -C10     -C11     -H39     :  59.756098
 C12     -C10     -C11     -H40     : -57.847901
 C12     -C10     -C13     -H44     : 171.000437
 C12     -C10     -C13     -H45     :  53.942051
 C12     -C10     -C13     -H46     : -64.743467
 C13     -C10     -P1      -C14     : -98.343389
 C13     -C10     -C11     -H38     : -67.371767
 C13     -C10     -C11     -H39     : 169.359648
 C13     -C10     -C11     -H40     :  51.755650
 C13     -C10     -C12     -H41     :-175.241344
 C13     -C10     -C12     -H42     :  62.833056
 C13     -C10     -C12     -H43     : -56.165499
 C14     -C15     -C17     -C18     :-160.235098
 C14     -C15     -C17     -C22     :  16.168980
 C14     -C15     -C23     -C24     :-149.696363
 C14     -C15     -C23     -C28     :  29.285990
 C15     -C14     -C16     -H47     :  24.907935
 C15     -C14     -C16     -H48     :-102.488509
 C15     -C14     -C16     -H49     : 138.441351
 C15     -C17     -C18     -C19     : 178.726145
 C15     -C17     -C18     -H50     :   2.308983
 C15     -C17     -C22     -C21     :-178.439997
 C15     -C17     -C22     -H54     :   2.536328
 C15     -C23     -C24     -C25     : 179.109877
 C15     -C23     -C24     -H55     :   2.957507
 C15     -C23     -C28     -C27     :-179.550474
 C15     -C23     -C28     -H59     :   3.728784
 C16     -C14     -C15     -C17     :-168.909534
 C16     -C14     -C15     -C23     :  12.226189
 C17     -C15     -C23     -C24     :  31.347763
 C17     -C15     -C23     -C28     :-149.669883
 C17     -C18     -C19     -C20     :  -0.866591
 C17     -C18     -C19     -H51     :-179.597121
 C17     -C22     -C21     -C20     :   0.617818
 C17     -C22     -C21     -H53     :-179.415086
 C18     -C17     -C15     -C23     :  18.659704
 C18     -C17     -C22     -C21     :  -1.758124
 C18     -C17     -C22     -H54     : 179.218201
 C18     -C19     -C20     -C21     :  -0.456317
 C18     -C19     -C20     -H52     :-179.853482
 C19     -C18     -C17     -C22     :   1.877878
 C19     -C20     -C21     -C22     :   0.577604
 C19     -C20     -C21     -H53     :-179.389480
 C20     -C19     -C18     -H50     : 175.812513
 C20     -C21     -C22     -H54     : 179.702229
 C21     -C20     -C19     -H51     : 178.288383
 C22     -C17     -C15     -C23     :-164.936218
 C22     -C17     -C18     -H50     :-174.539284
 C22     -C21     -C20     -H52     : 179.975530
 C23     -C24     -C25     -C26     :   0.421801
 C23     -C24     -C25     -H56     :-179.740833
 C23     -C28     -C27     -C26     :   0.549223
 C23     -C28     -C27     -H58     :-179.299700
 C24     -C23     -C28     -C27     :  -0.501907
 C24     -C23     -C28     -H59     :-177.222650
 C24     -C25     -C26     -C27     :  -0.381911
 C24     -C25     -C26     -H57     : 179.230315
 C25     -C24     -C23     -C28     :   0.016620
 C25     -C26     -C27     -C28     :  -0.075670
 C25     -C26     -C27     -H58     : 179.775393
 C26     -C25     -C24     -H55     : 176.785067
 C26     -C27     -C28     -H59     : 177.490866
 C27     -C26     -C25     -H56     : 179.779681
 C28     -C23     -C24     -H55     :-176.135750
 C28     -C27     -C26     -H57     :-179.688441
 H50     -C18     -C19     -H51     :  -2.918018
 H51     -C19     -C20     -H52     :  -1.108782
 H52     -C20     -C21     -H53     :   0.008447
 H53     -C21     -C22     -H54     :  -0.330674
 H55     -C24     -C25     -H56     :  -3.377567
 H56     -C25     -C26     -H57     :  -0.608094
 H57     -C26     -C27     -H58     :   0.162623
 H58     -C27     -C28     -H59     :  -2.358057
 
  nuclear repulsion energy.......          4092.042459794 hartrees
  
  Detected an organometallic with only one TM atom. 
  
  
 
  Will use High-Quality Initial guess for organometallics
       including d-d repulsion (iguess=30)
 
 Non-default options chosen:
   SCF calculation type: DFT(b3pw91-d3)              
   DFT=Becke_3_Parameter/HF+Slater+Becke88+PW91+PW-GGAIIC (B3PW91-D3)
   Transition state optimization
   Geometry will be optimized in redundant internal coordinates
   Culot/Fletcher trust radius adjustment
      initial trust radius:  0.100
   P-RFO level-shifting used
   Solvation energy will be computed using PBF
     -solute cavity energy will not be included
     -surface area terms will not be included
   Vibrational frequencies and related properties will be computed
      from analytic second derivatives
   IR intensities will be computed
   Thermochemical properties will be computed
   Maximum number of geometry steps: 100
   Scaling standard convergence criteria by a factor of   5.00
   Mixed Murtagh-Sargent/Powell Hessian-updating used
   Solvent: benzene                                                         
   Internal dielectric constant:    1.000
   Continuum dielectric constant:   2.283
   Solvent probe molecule radius:   2.600
  
 Non-default print settings:
     11=  2
  
 Temporary integer options set:
     21= -1  73=  2
  
  atom       vdw   vdw2    cov     mass  grid  daf  charge   basis
  P1        2.147  2.074  1.060   30.974    Y    Y      Y    ps_6-31g*
  Pd2       1.450  1.450  1.280  105.903    Y    Y      Y    lacv3p*
  Br3       2.095  2.095  1.140   78.918    Y    Y      Y    lav3p*
  C73       1.949  1.900  0.770   12.000    Y    Y      Y    ps_6-31g*
  C74       1.949  1.900  0.770   12.000    Y    Y      Y    ps_6-31g*
  C75       1.949  1.900  0.770   12.000    Y    Y      Y    ps_6-31g*
  C76       1.949  1.900  0.770   12.000    Y    Y      Y    ps_6-31g*
  C77       1.949  1.900  0.770   12.000    Y    Y      Y    ps_6-31g*
  C78       1.949  1.900  0.770   12.000    Y    Y      Y    ps_6-31g*
  F79       1.736  1.682  0.720   18.998    Y    Y      Y    ps_6-31g*
  H80       1.597  1.150  0.320    1.008    Y    Y      Y    ps_6-31g*
  H81       1.597  1.150  0.320    1.008    Y    Y      Y    ps_6-31g*
  H82       1.597  1.150  0.320    1.008    Y    Y      Y    ps_6-31g*
  H83       1.597  1.150  0.320    1.008    Y    Y      Y    ps_6-31g*
  C6        1.949  1.900  0.770   12.000    Y    Y      Y    ps_6-31g*
  C7        1.949  1.900  0.770   12.000    Y    Y      Y    ps_6-31g*
  C8        1.949  1.900  0.770   12.000    Y    Y      Y    ps_6-31g*
  C9        1.949  1.900  0.770   12.000    Y    Y      Y    ps_6-31g*
  C10       1.949  1.900  0.770   12.000    Y    Y      Y    ps_6-31g*
  C11       1.949  1.900  0.770   12.000    Y    Y      Y    ps_6-31g*
  C12       1.949  1.900  0.770   12.000    Y    Y      Y    ps_6-31g*
  C13       1.949  1.900  0.770   12.000    Y    Y      Y    ps_6-31g*
  C14       1.949  1.900  0.770   12.000    Y    Y      Y    ps_6-31g*
  C15       1.949  1.900  0.770   12.000    Y    Y      Y    ps_6-31g*
  C16       1.949  1.900  0.770   12.000    Y    Y      Y    ps_6-31g*
  C17       1.949  1.900  0.770   12.000    Y    Y      Y    ps_6-31g*
  C18       1.949  1.900  0.770   12.000    Y    Y      Y    ps_6-31g*
  C19       1.949  1.900  0.770   12.000    Y    Y      Y    ps_6-31g*
  C20       1.949  1.900  0.770   12.000    Y    Y      Y    ps_6-31g*
  C21       1.949  1.900  0.770   12.000    Y    Y      Y    ps_6-31g*
  C22       1.949  1.900  0.770   12.000    Y    Y      Y    ps_6-31g*
  C23       1.949  1.900  0.770   12.000    Y    Y      Y    ps_6-31g*
  C24       1.949  1.900  0.770   12.000    Y    Y      Y    ps_6-31g*
  C25       1.949  1.900  0.770   12.000    Y    Y      Y    ps_6-31g*
  C26       1.949  1.900  0.770   12.000    Y    Y      Y    ps_6-31g*
  C27       1.949  1.900  0.770   12.000    Y    Y      Y    ps_6-31g*
  C28       1.949  1.900  0.770   12.000    Y    Y      Y    ps_6-31g*
  H29       1.597  1.150  0.320    1.008    Y    Y      Y    ps_6-31g*
  H30       1.597  1.150  0.320    1.008    Y    Y      Y    ps_6-31g*
  H31       1.597  1.150  0.320    1.008    Y    Y      Y    ps_6-31g*
  H32       1.597  1.150  0.320    1.008    Y    Y      Y    ps_6-31g*
  H33       1.597  1.150  0.320    1.008    Y    Y      Y    ps_6-31g*
  H34       1.597  1.150  0.320    1.008    Y    Y      Y    ps_6-31g*
  H35       1.597  1.150  0.320    1.008    Y    Y      Y    ps_6-31g*
  H36       1.597  1.150  0.320    1.008    Y    Y      Y    ps_6-31g*
  H37       1.597  1.150  0.320    1.008    Y    Y      Y    ps_6-31g*
  H38       1.597  1.150  0.320    1.008    Y    Y      Y    ps_6-31g*
  H39       1.597  1.150  0.320    1.008    Y    Y      Y    ps_6-31g*
  H40       1.597  1.150  0.320    1.008    Y    Y      Y    ps_6-31g*
  H41       1.597  1.150  0.320    1.008    Y    Y      Y    ps_6-31g*
  H42       1.597  1.150  0.320    1.008    Y    Y      Y    ps_6-31g*
  H43       1.597  1.150  0.320    1.008    Y    Y      Y    ps_6-31g*
  H44       1.597  1.150  0.320    1.008    Y    Y      Y    ps_6-31g*
  H45       1.597  1.150  0.320    1.008    Y    Y      Y    ps_6-31g*
  H46       1.597  1.150  0.320    1.008    Y    Y      Y    ps_6-31g*
  H47       1.597  1.150  0.320    1.008    Y    Y      Y    ps_6-31g*
  H48       1.597  1.150  0.320    1.008    Y    Y      Y    ps_6-31g*
  H49       1.597  1.150  0.320    1.008    Y    Y      Y    ps_6-31g*
  H50       1.597  1.150  0.320    1.008    Y    Y      Y    ps_6-31g*
  H51       1.597  1.150  0.320    1.008    Y    Y      Y    ps_6-31g*
  H52       1.597  1.150  0.320    1.008    Y    Y      Y    ps_6-31g*
  H53       1.597  1.150  0.320    1.008    Y    Y      Y    ps_6-31g*
  H54       1.597  1.150  0.320    1.008    Y    Y      Y    ps_6-31g*
  H55       1.597  1.150  0.320    1.008    Y    Y      Y    ps_6-31g*
  H56       1.597  1.150  0.320    1.008    Y    Y      Y    ps_6-31g*
  H57       1.597  1.150  0.320    1.008    Y    Y      Y    ps_6-31g*
  H58       1.597  1.150  0.320    1.008    Y    Y      Y    ps_6-31g*
  H59       1.597  1.150  0.320    1.008    Y    Y      Y    ps_6-31g*
 
  atom      formal  2spin      esp    mulk    frag
  P1           0       0        Y    0.000       0
  Pd2          0       0        Y    0.000       0
  Br3          0       0        Y    0.000       0
  
  end of program pre
   
 Time(pre)  user:       1.030  user+sys:       1.030  wallclock:       1.177
  
  start of program onee
  
  smallest eigenvalue of S:    4.094E-04
  number of canonical orbitals.....          546
  end of program onee
   
 Time(onee)  user:       6.530  user+sys:       6.530  wallclock:       4.626
  
  start of program hfig
  
  initial wavefunction generated automatically from atomic wavefunctions
  Only one possible d-orb occupation 
  Skip d-d repulsion considerations 
 
  Irreducible     Total no   No of occupied orbitals 
  representation  orbitals   Shell_1  Shell_2    ...
  No Symm          546        129
  ------------------------
  Orbital occupation/shell    1.000
 
  end of program hfig
   
 Time(hfig)  user:       1.027  user+sys:       1.027  wallclock:       1.315
  
  start of program probe
  
  end of program probe
   
 Time(probe)  user:       0.550  user+sys:       0.550  wallclock:       0.508
  
  start of program grid
  
   grid     grid set  grid #  grid sym
  ------    --------  ------  --------
  coarse        0        0        1
  medium        2        1        1
  fine          0        0        1
  ultrafine     4        2        1
  charge       -1        3        1
  gradient      4        2        1
  density       0        0        1
  DFT-fine    -11        4        1
  DFT-med.    -10        5        1
  DFT-grad    -12        6        1
  DFT-der2     -8        7        1
  DFT-cphf     -9        8        1
  LMP2-enrg     4        2        1
  LMP2-grad     2        1        1
  DFT-cphf2   -15        9        1
  PBF-dens      0        0        1
  plotting      0        0        1
  Rel-grad    -17        0        1
  
  number of gridpoints: 
     atom           P1         Pd2         Br3         C73         C74         C75         C76
  grid # 1         610         366         505          79          94          96          95
  grid # 2         427         324         483         330         321         325         391
  grid # 3           7         259         401          31          33          30          20
  grid # 4        8714        8714        8714        8714        8714        8714        8714
  grid # 5        1192        1192        1192        1192        1192        1192        1192
  grid # 6        9132        9132        9132        5922        5922        5922        5922
  grid # 7       23034       32968       11582       13950       13950       13950       13950
  grid # 8         722        1150         694         748         748         748         748
  grid # 9         366        2198         358         394         394         394         394
   
  number of gridpoints: 
     atom          C77         C78         F79         H80         H81         H82         H83
  grid # 1          96          94         583         113         109         109         105
  grid # 2         322         322         564         461         446         445         448
  grid # 3          30          29         325         358         232         188         295
  grid # 4        8714        8714        8714        8714        8714        8714        8714
  grid # 5        1192        1192        1192        1192        1192        1192        1192
  grid # 6        5922        5922        5922        5922        5922        5922        5922
  grid # 7       13950       13950       23190       15206       15206       15206       15206
  grid # 8         748         748         770         786         786         786         786
  grid # 9         394         394         420         420         420         420         420
   
  number of gridpoints: 
     atom           C6          C7          C8          C9         C10         C11         C12
  grid # 1          82          88          80          82          88          80          82
  grid # 2         245         367         244         240         371         247         246
  grid # 3           6           6           6           6           6           6           6
  grid # 4        8714        8714        8714        8714        8714        8714        8714
  grid # 5        1192        1192        1192        1192        1192        1192        1192
  grid # 6        5922        5922        5922        5922        5922        5922        5922
  grid # 7       13950       13950       13950       13950       13950       13950       13950
  grid # 8         748         748         748         748         748         748         748
  grid # 9         394         394         394         394         394         394         394
   
  number of gridpoints: 
     atom          C13         C14         C15         C16         C17         C18         C19
  grid # 1          82          87          99          79          97          93          96
  grid # 2         245         389         362         241         364         325         326
  grid # 3           6           9          22           6          16          18          36
  grid # 4        8714        8714        8714        8714        8714        8714        8714
  grid # 5        1192        1192        1192        1192        1192        1192        1192
  grid # 6        5922        5922        5922        5922        5922        5922        5922
  grid # 7       13950       13950       13950       13950       13950       13950       13950
  grid # 8         748         748         748         748         748         748         748
  grid # 9         394         394         394         394         394         394         394
   
  number of gridpoints: 
     atom          C20         C21         C22         C23         C24         C25         C26
  grid # 1          96          96          93          97          94          96          97
  grid # 2         322         322         323         361         320         327         325
  grid # 3          34          27          15          20          25          44          52
  grid # 4        8714        8714        8714        8714        8714        8714        8714
  grid # 5        1192        1192        1192        1192        1192        1192        1192
  grid # 6        5922        5922        5922        5922        5922        5922        5922
  grid # 7       13950       13950       13950       13950       13950       13950       13950
  grid # 8         748         748         748         748         748         748         748
  grid # 9         394         394         394         394         394         394         394
   
  number of gridpoints: 
     atom          C27         C28         H29         H30         H31         H32         H33
  grid # 1          96          94         103         104         107         103         107
  grid # 2         327         324         431         430         440         441         445
  grid # 3          45          25         154         170         254         141         269
  grid # 4        8714        8714        8714        8714        8714        8714        8714
  grid # 5        1192        1192        1192        1192        1192        1192        1192
  grid # 6        5922        5922        5922        5922        5922        5922        5922
  grid # 7       13950       13950       15206       15206       15206       15206       15206
  grid # 8         748         748         786         786         786         786         786
  grid # 9         394         394         420         420         420         420         420
   
  number of gridpoints: 
     atom          H34         H35         H36         H37         H38         H39         H40
  grid # 1         105         101         107          99         105         102         107
  grid # 2         443         428         445         423         435         430         443
  grid # 3         211         137         272          85         149         132         264
  grid # 4        8714        8714        8714        8714        8714        8714        8714
  grid # 5        1192        1192        1192        1192        1192        1192        1192
  grid # 6        5922        5922        5922        5922        5922        5922        5922
  grid # 7       15206       15206       15206       15206       15206       15206       15206
  grid # 8         786         786         786         786         786         786         786
  grid # 9         420         420         420         420         420         420         420
   
  number of gridpoints: 
     atom          H41         H42         H43         H44         H45         H46         H47
  grid # 1         103         104         107         104         107         101         106
  grid # 2         433         432         444         426         443         425         437
  grid # 3         166         174         270         152         262         155         226
  grid # 4        8714        8714        8714        8714        8714        8714        8714
  grid # 5        1192        1192        1192        1192        1192        1192        1192
  grid # 6        5922        5922        5922        5922        5922        5922        5922
  grid # 7       15206       15206       15206       15206       15206       15206       15206
  grid # 8         786         786         786         786         786         786         786
  grid # 9         420         420         420         420         420         420         420
   
  number of gridpoints: 
     atom          H48         H49         H50         H51         H52         H53         H54
  grid # 1         100         100         108         118         116         103          93
  grid # 2         420         417         440         466         467         418         415
  grid # 3         131          92         231         408         394         127          19
  grid # 4        8714        8714        8714        8714        8714        8714        8714
  grid # 5        1192        1192        1192        1192        1192        1192        1192
  grid # 6        5922        5922        5922        5922        5922        5922        5922
  grid # 7       15206       15206       15206       15206       15206       15206       15206
  grid # 8         786         786         786         786         786         786         786
  grid # 9         420         420         420         420         420         420         420
   
  number of gridpoints: 
     atom          H55         H56         H57         H58         H59       total
  grid # 1         109         118         118         118         108        8419
  grid # 2         446         465         467         466         439       26372
  grid # 3         250         416         431         416         207        9445
  grid # 4        8714        8714        8714        8714        8714      592552
  grid # 5        1192        1192        1192        1192        1192       81056
  grid # 6        5922        5922        5922        5922        5922      412326
  grid # 7       15206       15206       15206       15206       15206     1027534
  grid # 8         786         786         786         786         786       52538
  grid # 9         420         420         420         420         420       29468
   
  end of program grid
   
 Time(grid)  user:     243.066  user+sys:     243.066  wallclock:     124.143
  
  start of program rwr
  
  end of program rwr
   
 Time(rwr)  user:      15.357  user+sys:      15.357  wallclock:      20.580
  
  start of program scf
  
 number of electrons..........        258
 number of alpha electrons....        129
 number of beta electrons.....        129
 number of orbitals, total....        546
 number of doubly-occ'd orbs..        129
 number of open shell orbs....          0
 number of occupied orbitals..        129
 number of virtual orbitals...        417
 number of hamiltonians.......          1
 number of shells.............          1
 SCF type: DFT=Becke_3_Parameter/HF+Slater+Becke88+PW91+PW-GGAIIC (B3PW91-D3)
 Energy computed using pseudospectral method.
 Convergence Criterion:
    Energy (econv):       1.00E-05
    RMS density (dconv):  5.00E-06
  
       i  u  d  i  g                   
       t  p  i  c  r                                 RMS    maximum
       e  d  i  u  i                       energy  density   DIIS  
       r  t  s  t  d       total energy    change  change    error 
  
etot    1  N  N  5  M   -1702.93926633907           2.2E-03  2.0E-01
etot    2  Y  Y  6  M   -1705.69702605226  2.8E+00  3.3E-03  1.3E-01
etot    3  Y  Y  6  M   -1706.25141288230  5.5E-01  1.6E-03  6.7E-02
etot    4  N  Y  2  U   -1706.62523405633  3.7E-01  9.8E-04  2.8E-02
etot    5  Y  Y  6  M   -1706.72014786256  9.5E-02  5.7E-04  1.7E-02
etot    6  N  Y  2  U   -1706.72823360029  8.1E-03  5.7E-04  8.3E-03
etot    7  Y  Y  6  M   -1706.73047432987  2.2E-03  1.1E-04  4.4E-03
etot    8  Y  Y  6  M   -1706.73261044945  2.1E-03  2.3E-05  6.8E-04
etot    9  N  Y  2  U   -1706.73353833691  9.3E-04  7.6E-06  1.8E-04
etot   10  N  Y  2  U   -1706.73354321864  4.9E-06  3.9E-06  4.5E-05
etot   11  N  N  2  U   -1706.73354417512  9.6E-07  0.0E+00  0.0E+00
 
  Computing the dispersion energy correction and its gradients...
  
  
 Energy components, in hartrees:
   (A)  Nuclear repulsion............    4092.04245979373
   (E)  Total one-electron terms.....  -10530.10187247188
   (F)    Electron-nuclear...........  -12138.21899680154
   (H)    Kinetic....................    1608.11712432967
   (I)  Total two-electron terms.....    4731.32586850303
   (J)    Coulomb....................    4950.37667661350
   (K)    Exchange+Correlation.......    -219.05080811047
   (L)  Electronic energy............   -5798.77600396885  (E+I)
   (N0) D3 correction................      -0.12246147001
   (N)  Total energy.................   -1706.85600564513  (A+L+N0)
   (O)  Gas phase energy.............   -1706.85600564513
  
 SCFE: SCF energy: DFT(b3pw91-d3)     -1706.85600564513 hartrees   iterations:  11
  
 
 HOMO energy:    -0.16305
 LUMO energy:    -0.06019
 
  Orbital energies (hartrees): 
   -77.06872   -24.68290   -10.25078   -10.23612   -10.21060   -10.20678
   -10.20498   -10.19535   -10.19486   -10.19269   -10.18680   -10.18439
   -10.18116   -10.18021   -10.18000   -10.17945   -10.17944   -10.17895
   -10.17840   -10.17554   -10.17429   -10.17328   -10.17315   -10.17282
   -10.17168   -10.17167   -10.16797   -10.16554   -10.16546   -10.16344
   -10.16277    -6.56978    -4.72783    -4.72750    -4.72409    -3.27918
    -2.01740    -1.99855    -1.99348    -1.21389    -0.87363    -0.87152
    -0.85332    -0.83550    -0.81536    -0.81359    -0.77426    -0.76888
    -0.76308    -0.75095    -0.74508    -0.73913    -0.71667    -0.69627
    -0.69143    -0.68913    -0.68664    -0.68182    -0.65961    -0.63084
    -0.61833    -0.61031    -0.60537    -0.59814    -0.59249    -0.56384
    -0.55152    -0.54453    -0.52875    -0.51451    -0.49562    -0.49166
    -0.47941    -0.47599    -0.47031    -0.46550    -0.45755    -0.45651
    -0.45370    -0.44962    -0.44648    -0.44553    -0.44469    -0.43757
    -0.43295    -0.42938    -0.42552    -0.42145    -0.41902    -0.40813
    -0.40655    -0.39978    -0.39663    -0.39391    -0.39117    -0.38665
    -0.38308    -0.37695    -0.37190    -0.36794    -0.36611    -0.36469
    -0.36314    -0.36215    -0.35305    -0.35004    -0.34380    -0.33906
    -0.33791    -0.33385    -0.33135    -0.32993    -0.31899    -0.31287
    -0.30308    -0.29938    -0.28781    -0.28291    -0.27160    -0.26805
    -0.25872    -0.25306    -0.24665    -0.22260    -0.21935    -0.21528
    -0.20833    -0.19030    -0.16305    -0.06019    -0.04780    -0.02097
    -0.01504    -0.00772    -0.00630     0.00405     0.01179     0.04360
     0.04620
 
  end of program scf
   
 Time(scf)  user:     335.819  user+sys:     335.819  wallclock:     182.235
  
  start of program der1a
  
  end of program der1a
   
 Time(der1a)  user:      22.327  user+sys:      22.327  wallclock:      11.904
  
  start of program rwr
  
  end of program rwr
   
 Time(rwr)  user:      16.942  user+sys:      16.942  wallclock:      23.418
  
  start of program der1b
  
   
  forces (hartrees/bohr) : total     
   
 atom  label           x              y              z
 ---- --------   -------------  -------------  -------------
    1 P1         -1.686428E-02   2.225354E-03   2.145675E-02
    2 Pd2        -6.190149E-03  -4.364982E-04   4.666938E-03
    3 Br3        -3.829181E-03   2.513726E-03  -5.795021E-03
    4 C73        -4.116393E-03   6.149104E-03  -2.535677E-03
    5 C74         5.151850E-04  -1.788564E-03  -8.972213E-05
    6 C75        -1.892935E-03   1.043955E-03   1.288728E-03
    7 C76         5.892278E-04   5.482951E-03   8.257580E-03
    8 C77         9.628111E-03   6.263795E-03   9.633753E-03
    9 C78         6.983637E-03   3.771307E-03   3.595555E-03
   10 F79         2.465437E-03  -3.845032E-03   2.032479E-03
   11 H80        -2.345010E-04   8.421921E-04   6.895551E-04
   12 H81        -9.792191E-06  -6.079588E-05   2.609131E-03
   13 H82         4.505477E-03   2.185664E-03   8.453797E-04
   14 H83         1.278371E-03   3.072299E-03   1.467563E-03
   15 C6          6.577010E-03  -8.960036E-03  -1.837049E-02
   16 C7          4.259719E-02  -6.987097E-03  -2.115860E-02
   17 C8         -5.212665E-03  -1.165864E-02   5.674111E-03
   18 C9         -1.110920E-02   1.923279E-02   9.825119E-03
   19 C10        -1.810675E-02   1.955703E-02  -2.242803E-02
   20 C11        -2.923346E-03   6.809947E-03   1.177489E-02
   21 C12        -8.710352E-03  -1.585540E-02   5.575951E-03
   22 C13         1.851028E-02   3.683815E-03  -1.016516E-02
   23 C14         1.482600E-02   6.610539E-04  -1.963357E-02
   24 C15        -4.662070E-03   1.439392E-03   1.224929E-02
   25 C16         4.851342E-03   8.177595E-04  -2.218374E-02
   26 C17        -3.923771E-03  -9.403330E-03   1.485407E-02
   27 C18        -1.257711E-03  -1.384088E-02   1.426786E-02
   28 C19         1.367044E-03   3.700763E-03   6.284361E-04
   29 C20        -2.550539E-04   5.650783E-04  -2.340226E-03
   30 C21        -1.233592E-02  -9.219706E-03  -4.706988E-03
   31 C22        -1.054941E-03   1.987212E-02  -4.531939E-03
   32 C23        -1.524287E-02  -1.262343E-02  -5.396718E-03
   33 C24        -1.830329E-02  -4.734427E-04  -9.013817E-03
   34 C25         3.462759E-03   6.502210E-04   7.981846E-04
   35 C26         1.484999E-03   2.701407E-03   1.249943E-03
   36 C27        -6.958376E-03  -2.696557E-04   1.013086E-03
   37 C28         2.224693E-02  -7.309137E-03   3.071043E-03
   38 H29        -8.782571E-04  -5.000157E-03   6.481838E-03
   39 H30        -1.977141E-03   1.361974E-02   4.443126E-03
   40 H31        -8.774282E-03  -3.325002E-04   6.148888E-03
   41 H32        -3.839430E-03  -3.602022E-03  -5.159993E-03
   42 H33        -8.138517E-03   2.473128E-03  -5.204134E-03
   43 H34         1.127469E-03   8.145410E-03   4.748419E-03
   44 H35         4.655343E-03  -5.703033E-03   5.639360E-03
   45 H36        -6.516722E-03  -7.537790E-03  -3.103936E-03
   46 H37        -1.923269E-03  -3.319864E-03  -1.373644E-02
   47 H38        -7.330042E-03  -5.033092E-03   1.581047E-03
   48 H39         1.014339E-02   2.605320E-05  -3.198691E-03
   49 H40         7.158042E-03  -9.483209E-03   3.149996E-03
   50 H41         9.364328E-03   1.711149E-03  -6.109275E-03
   51 H42        -1.053716E-03   7.429829E-03   5.302868E-03
   52 H43         8.991690E-03   8.414297E-04   4.709542E-03
   53 H44        -7.237128E-03  -1.064714E-02  -1.558069E-03
   54 H45        -1.672239E-03  -4.613355E-03   8.922743E-03
   55 H46         9.370305E-05   7.174883E-03   5.804592E-03
   56 H47         7.457426E-03  -4.572093E-05   1.229495E-02
   57 H48        -1.143701E-02   2.045801E-03  -6.917926E-03
   58 H49         2.934132E-03  -3.027106E-03   1.154938E-02
   59 H50         4.016311E-03   8.406044E-03  -3.087864E-03
   60 H51         5.950809E-03   3.866339E-03  -7.284481E-03
   61 H52         5.251639E-03  -3.392013E-03  -7.423594E-03
   62 H53        -3.014831E-03  -1.975239E-02  -1.052725E-02
   63 H54        -4.935031E-03  -4.642536E-03  -1.372770E-03
   64 H55         1.174375E-02  -2.777029E-03  -3.944808E-03
   65 H56         1.039893E-02   6.460053E-03  -5.288398E-04
   66 H57         1.190631E-03   6.946528E-03   1.396745E-03
   67 H58        -6.010599E-03   8.873575E-03   4.141968E-03
   68 H59        -1.351494E-02   4.212086E-04   4.524094E-03
 -------------   -------------  -------------  -------------
     total        9.199028E-04   4.229616E-05   8.571980E-04
   
  end of program der1b
   
 Time(der1b)  user:     130.233  user+sys:     130.233  wallclock:      69.373
  
  start of program geopt
  
 ----------------------------------------------------------------------------
  Geometry optimization step  1
  Total energy:     -1706.85600564513 hartrees
 ----------------------------------------------------------------------------
  
  Hessian eigenvalues: 
    0.00000E+00    0.00000E+00    0.00000E+00    0.00000E+00    0.00000E+00
    0.00000E+00    0.00000E+00    0.00000E+00    0.00000E+00    0.00000E+00
    0.00000E+00    0.00000E+00    0.00000E+00    0.00000E+00    0.00000E+00
    0.00000E+00    0.00000E+00    0.00000E+00    0.00000E+00    0.00000E+00
    0.00000E+00    0.00000E+00    0.00000E+00    0.00000E+00    0.00000E+00
    0.00000E+00    0.00000E+00    0.00000E+00    0.00000E+00    0.00000E+00
    0.00000E+00    0.00000E+00    0.00000E+00    8.99634E-03    1.12047E-02
    1.79088E-02    1.81392E-02    1.85555E-02    1.92618E-02    1.94591E-02
    1.96940E-02    2.06326E-02    2.25573E-02    2.32728E-02    2.40431E-02
    2.46811E-02    2.82227E-02    3.03738E-02    3.07352E-02    3.10536E-02
    3.25561E-02    3.50414E-02    3.77645E-02    4.63769E-02    5.00493E-02
    5.44154E-02    5.64216E-02    5.80956E-02    6.33325E-02    6.49970E-02
    6.78651E-02    6.79848E-02    6.97008E-02    7.02202E-02    7.10716E-02
    7.15637E-02    7.70900E-02    8.15920E-02    9.76527E-02    1.12050E-01
    1.26938E-01    1.27933E-01    1.28319E-01    1.28362E-01    1.28509E-01
    1.29252E-01    1.29802E-01    1.30725E-01    1.32700E-01    1.35086E-01
    1.39930E-01    1.43155E-01    1.45245E-01    1.46826E-01    1.50907E-01
    1.51610E-01    1.54189E-01    1.54719E-01    1.60182E-01    1.65280E-01
    1.74638E-01    1.75801E-01    1.79930E-01    1.84583E-01    1.93331E-01
    2.01015E-01    2.01242E-01    2.01462E-01    2.08043E-01    2.10057E-01
    2.13430E-01    2.18273E-01    2.22513E-01    2.25897E-01    2.26117E-01
    2.26957E-01    2.28017E-01    2.29494E-01    2.30599E-01    2.32763E-01
    2.36205E-01    2.36636E-01    2.40032E-01    2.41845E-01    2.42720E-01
    2.42999E-01    2.43709E-01    2.44725E-01    2.47037E-01    2.47335E-01
    2.48372E-01    2.50866E-01    2.57004E-01    2.58790E-01    2.64607E-01
    2.68439E-01    2.72586E-01    2.74512E-01    2.85067E-01    2.87666E-01
    2.97087E-01    2.99366E-01    3.03058E-01    3.06801E-01    3.13201E-01
    3.13287E-01    3.13667E-01    3.13724E-01    3.15715E-01    3.15914E-01
    3.16463E-01    3.16915E-01    3.17839E-01    3.18234E-01    3.18397E-01
    3.18442E-01    3.18914E-01    3.19895E-01    3.20252E-01    3.20762E-01
    3.20882E-01    3.20935E-01    3.20953E-01    3.21776E-01    3.23086E-01
    3.23291E-01    3.24423E-01    3.26365E-01    3.27260E-01    3.27320E-01
    3.27568E-01    3.27706E-01    3.28333E-01    3.29099E-01    3.31653E-01
    3.32264E-01    3.34883E-01    3.35045E-01    3.45061E-01    3.46345E-01
    3.46758E-01    3.47043E-01    3.47408E-01    3.47920E-01    3.49563E-01
    3.50100E-01    3.50367E-01    3.52850E-01    3.53157E-01    3.56452E-01
    3.56813E-01    3.57833E-01    3.58276E-01    3.58798E-01    3.59820E-01
    3.60356E-01    3.60992E-01    3.61535E-01    3.62599E-01    3.63027E-01
    3.66725E-01    3.67976E-01    3.69934E-01    3.74884E-01    3.75501E-01
    3.76573E-01    3.76871E-01    3.78203E-01    3.78893E-01    3.79519E-01
    3.80551E-01    3.81037E-01    3.81202E-01    3.90624E-01    3.92477E-01
    4.01759E-01    4.09813E-01    4.11421E-01    4.17030E-01    4.17358E-01
    4.19092E-01    4.26901E-01    4.27563E-01    4.65007E-01    5.06156E-01
    5.22750E-01    5.31928E-01    5.34792E-01    5.34891E-01    5.46559E-01
    5.69252E-01    5.84853E-01    5.92908E-01    6.00407E-01    6.14651E-01
    6.22631E-01    6.78220E-01    7.04741E-01    7.29937E-01    8.04487E-01
    1.32587E+00
  
 WARNING: Hessian has wrong number of negative eigenvalues:           0
  
  TS search will follow eigenvector  34 on this iteration
  
  Selected vector:  eigenvalue     8.99634E-03

 34)   Br3-Pd2-P1-C7( 37)  0.60916
      Br3-Pd2-P1-C14( 38)  0.59953
      P1-Pd2-Br3-C76(  3) -0.45987
  
  
  Level shifts adjusted to satisfy step-size constraints
   Step size:    0.1001785
   Cos(theta):   0.9903984
   Final level shift:  -2.3983462E+00
  
  gradient maximum:        1.5401E-01 .  (  2.2500E-03 )
  gradient rms:            2.2120E-02 .  (  1.5000E-03 )
  displacement maximum:    4.3470E-02 .  (  9.0000E-03 )
  displacement rms:        6.5895E-03 .  (  6.0000E-03 )
  
  predicted energy change:  -2.8690E-02
  step size:     0.10015
  trust radius:  0.10000
  
  molecular structure not yet converged...
  
  center of mass moved by:
     x:     3.1982E-02     y:     7.3087E-02     z:     3.3978E-02
  
  new geometry: 
                                   angstroms
  atom               x                 y                 z
  P1           -0.0333048982     -0.0180859984      0.0433796085 
  Pd2           0.0098958296      0.0477907394      2.3993933760 
  Br3           0.8648926721      0.1104060458      5.0301564768 
  C73          -1.4205270715      3.8402929898      2.9745578805 
  C74          -0.0402155298      3.7525716542      2.8411076507 
  C75           0.6066631371      2.6015948425      3.2794874136 
  C76          -0.1654333018      1.5366638953      3.7864041267 
  C77          -1.5490755934      1.6720705579      3.9979449415 
  C78          -2.1821721938      2.8351245401      3.5537649041 
  F79          -2.0457042443      4.9527564200      2.5211426633 
  H80           0.5093345312      4.5618211868      2.3717722426 
  H81           1.6816908670      2.5007863508      3.1853201185 
  H82          -2.1075981059      0.8813584594      4.4858127720 
  H83          -3.2560223447      2.9649937152      3.6532192675 
  C6            2.3873160575     -0.1467783095     -1.6681887121 
  C7            1.8071772720      0.1954589450     -0.2723590357 
  C8            2.6247478893     -0.6889794641      0.7087719382 
  C9            2.2045841696      1.6527395667      0.0221481869 
  C10          -1.0697797197      1.0437966331     -1.1781363315 
  C11          -1.4409787464      2.4182269721     -0.5720372901 
  C12          -2.3930723144      0.3499588985     -1.6049670087 
  C13          -0.3608546026      1.3616855837     -2.5079286741 
  C14          -0.6657180172     -1.7120378341     -0.3601993997 
  C15          -1.6658160960     -2.4459456375      0.2247803653 
  C16           0.0188862911     -2.2276608139     -1.6040033119 
  C17          -2.6101761605     -1.9372925521      1.2759669681 
  C18          -3.3210598302     -2.8231851420      2.1260617215 
  C19          -4.1982690122     -2.4100894081      3.1357281573 
  C20          -4.4112262669     -1.0470055691      3.3749958563 
  C21          -3.7184460853     -0.1380833672      2.5766178823 
  C22          -2.8471862305     -0.5871869057      1.5732456163 
  C23          -1.8475861114     -3.8819524374     -0.1663791349 
  C24          -3.1322032541     -4.4780757701     -0.1376332288 
  C25          -3.3817130868     -5.8081031200     -0.5030281669 
  C26          -2.3292291282     -6.6299415947     -0.9176617857 
  C27          -1.0382335521     -6.0898500206     -0.9660638593 
  C28          -0.8237550912     -4.7515549162     -0.6021397113 
  H29           1.9674659030      0.4450756702     -2.4959085407 
  H30           2.2872328816     -1.2239163438     -1.9315851661 
  H31           3.4797129716      0.0522316040     -1.7118714459 
  H32           2.4535870260     -0.4118642370      1.7653186088 
  H33           3.7146448128     -0.5836177066      0.5436628830 
  H34           2.3780107729     -1.7617488524      0.5704145080 
  H35           1.6506697111      2.3824145461     -0.6031611872 
  H36           3.2824027979      1.8329111796     -0.1553960055 
  H37           2.0260092316      1.9190493595      1.0859396042 
  H38          -0.5409297435      2.9921392396     -0.2819642379 
  H39          -2.1120017021      2.3321381195      0.3064361363 
  H40          -1.9984974197      3.0468127644     -1.3028317202 
  H41          -3.0747344933      0.1152644183     -0.7622587371 
  H42          -2.2110971108     -0.5982678621     -2.1480802480 
  H43          -2.9816792076      0.9924188085     -2.2880458510 
  H44           0.5395022699      2.0006299857     -2.3653150481 
  H45          -1.0069043730      1.9454347413     -3.1929554105 
  H46          -0.0795234567      0.4514243467     -3.0714131347 
  H47          -0.5884020639     -2.9405020783     -2.1990710980 
  H48           1.0241660747     -2.6504233253     -1.3787060921 
  H49           0.1739689829     -1.4064317715     -2.3354157073 
  H50          -3.1793146719     -3.9066813870      2.0737125635 
  H51          -4.7107062697     -3.1548821326      3.7617414900 
  H52          -5.0957869431     -0.7063775476      4.1662677553 
  H53          -3.8483986391      0.9410212091      2.7307488127 
  H54          -2.3682198442      0.2026003066      1.0042317623 
  H55          -4.0229862227     -3.8874708534      0.1235287943 
  H56          -4.4076387988     -6.2107702714     -0.4624857848 
  H57          -2.5063576804     -7.6759091397     -1.1948424925 
  H58          -0.1983694456     -6.7257823085     -1.2868491903 
  H59           0.2287117943     -4.4328593361     -0.6270404874 
   
 
  bond lengths (angstroms):
 
 P1      -Pd2     :   2.357330      P1      -C7      :   1.879539
 P1      -C10     :   1.921972      P1      -C14     :   1.852645
 Pd2     -Br3     :   2.766922      Pd2     -C76     :   2.042372
 Br3     -C76     :   2.154693      C73     -C74     :   1.389519
 C73     -C78     :   1.387785      C73     -F79     :   1.354255
 C74     -C75     :   1.391178      C74     -H80     :   1.084973
 C75     -C76     :   1.409672      C75     -H81     :   1.083842
 C76     -C77     :   1.406254      C77     -C78     :   1.396711
 C77     -H82     :   1.084061      C78     -H83     :   1.086237
 C6      -C7      :   1.549848      C6      -H29     :   1.100766
 C6      -H30     :   1.113383      C6      -H31     :   1.111235
 C7      -C8      :   1.553471      C7      -C9      :   1.538939
 C8      -H32     :   1.105613      C8      -H33     :   1.107356
 C8      -H34     :   1.109440      C9      -H35     :   1.109170
 C9      -H36     :   1.107103      C9      -H37     :   1.111063
 C10     -C11     :   1.547321      C10     -C12     :   1.553930
 C10     -C13     :   1.540122      C11     -H38     :   1.106167
 C11     -H39     :   1.108783      C11     -H40     :   1.113556
 C12     -H41     :   1.109009      C12     -H42     :   1.107800
 C12     -H43     :   1.107163      C13     -H44     :   1.113208
 C13     -H45     :   1.107883      C13     -H46     :   1.106904
 C14     -C15     :   1.371502      C14     -C16     :   1.510496
 C15     -C17     :   1.501845      C15     -C23     :   1.499387
 C16     -H47     :   1.109526      C16     -H48     :   1.113586
 C16     -H49     :   1.110600      C17     -C18     :   1.418740
 C17     -C22     :   1.402617      C18     -C19     :   1.399847
 C18     -H50     :   1.093982      C19     -C20     :   1.400213
 C19     -H51     :   1.099637      C20     -C21     :   1.394092
 C20     -H52     :   1.100346      C21     -C22     :   1.402692
 C21     -H53     :   1.097775      C22     -H54     :   1.084873
 C23     -C24     :   1.416485      C23     -C28     :   1.412206
 C24     -C25     :   1.401692      C24     -H55     :   1.100234
 C25     -C26     :   1.398235      C25     -H56     :   1.102864
 C26     -C27     :   1.400254      C26     -H57     :   1.096472
 C27     -C28     :   1.403380      C27     -H58     :   1.101220
 C28     -H59     :   1.099942
 
  bond angles:
 
 C7      -P1      -Pd2     :  98.439969  C10     -P1      -Pd2     : 129.023683
 C10     -P1      -C7      : 111.010160  C14     -P1      -Pd2     : 104.449413
 C14     -P1      -C7      : 113.675281  C14     -P1      -C10     : 100.523364
 Br3     -Pd2     -P1      : 163.049083  C76     -Pd2     -P1      : 134.229743
 C76     -Pd2     -Br3     :  50.530390  C76     -Br3     -Pd2     :  47.030819
 C78     -C73     -C74     : 122.652466  F79     -C73     -C74     : 118.573397
 F79     -C73     -C78     : 118.774126  C75     -C74     -C73     : 118.938580
 H80     -C74     -C73     : 119.842119  H80     -C74     -C75     : 121.190124
 C76     -C75     -C74     : 118.923787  H81     -C75     -C74     : 120.715644
 H81     -C75     -C76     : 120.280768  Br3     -C76     -Pd2     :  82.438791
 C75     -C76     -Pd2     : 105.039517  C75     -C76     -Br3     : 116.469396
 C77     -C76     -Pd2     : 104.881341  C77     -C76     -Br3     : 116.576578
 C77     -C76     -C75     : 121.349660  C78     -C77     -C76     : 118.576378
 H82     -C77     -C76     : 120.291160  H82     -C77     -C78     : 121.128727
 C77     -C78     -C73     : 119.149457  H83     -C78     -C73     : 119.615627
 H83     -C78     -C77     : 121.234907  H29     -C6      -C7      : 114.564803
 H30     -C6      -C7      : 113.144218  H30     -C6      -H29     : 107.938418
 H31     -C6      -C7      : 111.335677  H31     -C6      -H29     : 104.424239
 H31     -C6      -H30     : 104.615220  C6      -C7      -P1      : 119.521245
 C8      -C7      -P1      : 110.155494  C8      -C7      -C6      : 104.246325
 C9      -C7      -P1      : 109.166074  C9      -C7      -C6      : 106.546492
 C9      -C7      -C8      : 106.400595  H32     -C8      -C7      : 112.294707
 H33     -C8      -C7      : 111.694016  H33     -C8      -H32     : 105.724197
 H34     -C8      -C7      : 110.775333  H34     -C8      -H32     : 109.093135
 H34     -C8      -H33     : 106.995667  H35     -C9      -C7      : 112.712120
 H36     -C9      -C7      : 112.013200  H36     -C9      -H35     : 106.781064
 H37     -C9      -C7      : 111.635119  H37     -C9      -H35     : 107.567605
 H37     -C9      -H36     : 105.724422  C11     -C10     -P1      : 111.788560
 C12     -C10     -P1      : 112.775193  C12     -C10     -C11     : 107.452598
 C13     -C10     -P1      : 114.491890  C13     -C10     -C11     : 105.384658
 C13     -C10     -C12     : 104.298868  H38     -C11     -C10     : 111.615754
 H39     -C11     -C10     : 112.740727  H39     -C11     -H38     : 108.961989
 H40     -C11     -C10     : 111.373948  H40     -C11     -H38     : 106.654357
 H40     -C11     -H39     : 105.116685  H41     -C12     -C10     : 114.154620
 H42     -C12     -C10     : 112.145901  H42     -C12     -H41     : 106.999592
 H43     -C12     -C10     : 111.290648  H43     -C12     -H41     : 105.357545
 H43     -C12     -H42     : 106.352495  H44     -C13     -C10     : 112.342779
 H45     -C13     -C10     : 111.975660  H45     -C13     -H44     : 104.384462
 H46     -C13     -C10     : 112.755306  H46     -C13     -H44     : 109.369178
 H46     -C13     -H45     : 105.470730  C15     -C14     -P1      : 130.186597
 C16     -C14     -P1      : 109.681058  C16     -C14     -C15     : 119.937029
 C17     -C15     -C14     : 125.157309  C23     -C15     -C14     : 119.315714
 C23     -C15     -C17     : 115.514370  H47     -C16     -C14     : 114.385618
 H48     -C16     -C14     : 111.848197  H48     -C16     -H47     : 111.020703
 H49     -C16     -C14     : 110.681207  H49     -C16     -H47     : 101.437228
 H49     -C16     -H48     : 106.732689  C18     -C17     -C15     : 121.532325
 C22     -C17     -C15     : 125.493173  C22     -C17     -C18     : 112.915959
 C19     -C18     -C17     : 124.187434  H50     -C18     -C17     : 121.657644
 H50     -C18     -C19     : 114.077993  C20     -C19     -C18     : 120.386586
 H51     -C19     -C18     : 120.182716  H51     -C19     -C20     : 119.419038
 C21     -C20     -C19     : 117.468020  H52     -C20     -C19     : 121.255586
 H52     -C20     -C21     : 121.275786  C22     -C21     -C20     : 120.635447
 H53     -C21     -C20     : 120.109828  H53     -C21     -C22     : 119.254444
 C21     -C22     -C17     : 124.385101  H54     -C22     -C17     : 120.995928
 H54     -C22     -C21     : 114.602842  C24     -C23     -C15     : 120.511194
 C28     -C23     -C15     : 125.616400  C28     -C23     -C24     : 113.866615
 C25     -C24     -C23     : 123.743394  H55     -C24     -C23     : 120.874857
 H55     -C24     -C25     : 115.284478  C26     -C25     -C24     : 120.068202
 H56     -C25     -C24     : 120.162129  H56     -C25     -C26     : 119.769526
 C27     -C26     -C25     : 118.524360  H57     -C26     -C25     : 120.934682
 H57     -C26     -C27     : 120.540306  C28     -C27     -C26     : 119.984302
 H58     -C27     -C26     : 119.372644  H58     -C27     -C28     : 120.642482
 C27     -C28     -C23     : 123.809667  H59     -C28     -C23     : 121.484421
 H59     -C28     -C27     : 114.624155
 
  torsional angles:
 
 P1      -Pd2     -Br3     -C76     : 113.427746
 P1      -Pd2     -C76     -Br3     :-158.078148
 P1      -Pd2     -C76     -C75     : -42.616229
 P1      -Pd2     -C76     -C77     :  86.345883
 P1      -C7      -C6      -H29     :  60.398590
 P1      -C7      -C6      -H30     : -63.911302
 P1      -C7      -C6      -H31     : 178.600622
 P1      -C7      -C8      -H32     : -61.506300
 P1      -C7      -C8      -H33     : 179.916112
 P1      -C7      -C8      -H34     :  60.747444
 P1      -C7      -C9      -H35     : -59.186683
 P1      -C7      -C9      -H36     :-179.638760
 P1      -C7      -C9      -H37     :  62.012664
 P1      -C10     -C11     -H38     :  58.150122
 P1      -C10     -C11     -H39     : -64.879040
 P1      -C10     -C11     -H40     : 177.236330
 P1      -C10     -C12     -H41     :  59.515225
 P1      -C10     -C12     -H42     : -62.386395
 P1      -C10     -C12     -H43     : 178.611674
 P1      -C10     -C13     -H44     : -64.823529
 P1      -C10     -C13     -H45     : 178.080125
 P1      -C10     -C13     -H46     :  59.317422
 P1      -C14     -C15     -C17     :   7.619662
 P1      -C14     -C15     -C23     :-171.027980
 P1      -C14     -C16     -H47     :-151.277532
 P1      -C14     -C16     -H48     :  81.416239
 P1      -C14     -C16     -H49     : -37.459204
 Pd2     -P1      -C7      -C6      : 163.928830
 Pd2     -P1      -C7      -C8      :  43.324901
 Pd2     -P1      -C7      -C9      : -73.162151
 Pd2     -P1      -C10     -C11     :  26.493591
 Pd2     -P1      -C10     -C12     : -94.713685
 Pd2     -P1      -C10     -C13     : 146.233441
 Pd2     -P1      -C14     -C15     :  40.921794
 Pd2     -P1      -C14     -C16     :-144.270070
 Pd2     -Br3     -C76     -C75     :-103.080589
 Pd2     -Br3     -C76     -C77     : 102.901516
 Pd2     -C76     -C75     -C74     : 111.045050
 Pd2     -C76     -C75     -H81     : -65.730115
 Pd2     -C76     -C77     -C78     :-111.215531
 Pd2     -C76     -C77     -H82     :  68.089406
 Br3     -Pd2     -P1      -C7      :  -7.643780
 Br3     -Pd2     -P1      -C10     :-133.574809
 Br3     -Pd2     -P1      -C14     : 109.578470
 Br3     -Pd2     -C76     -C75     : 115.461918
 Br3     -Pd2     -C76     -C77     :-115.575970
 Br3     -C76     -C75     -C74     :-160.010619
 Br3     -C76     -C75     -H81     :  23.214217
 Br3     -C76     -C77     -C78     : 159.890662
 Br3     -C76     -C77     -H82     : -20.804402
 C73     -C74     -C75     -C76     :   2.966702
 C73     -C74     -C75     -H81     : 179.727403
 C73     -C78     -C77     -C76     :  -2.827971
 C73     -C78     -C77     -H82     : 177.873155
 C74     -C73     -C78     -C77     :  -1.405790
 C74     -C73     -C78     -H83     : 178.630135
 C74     -C75     -C76     -C77     :  -7.318928
 C75     -C74     -C73     -C78     :   1.334801
 C75     -C74     -C73     -F79     :-178.704304
 C75     -C76     -C77     -C78     :   7.226607
 C75     -C76     -C77     -H82     :-173.468457
 C76     -Pd2     -P1      -C7      :  91.046121
 C76     -Pd2     -P1      -C10     : -34.884909
 C76     -Pd2     -P1      -C14     :-151.731630
 C76     -C75     -C74     -H80     :-175.065180
 C76     -C77     -C78     -H83     : 177.135503
 C77     -C76     -C75     -H81     : 175.905907
 C77     -C78     -C73     -F79     : 178.633389
 C78     -C73     -C74     -H80     : 179.393800
 F79     -C73     -C74     -H80     :  -0.645305
 F79     -C73     -C78     -H83     :  -1.330686
 H80     -C74     -C75     -H81     :   1.695520
 H82     -C77     -C78     -H83     :  -2.163372
 C6      -C7      -P1      -C10     : -58.437133
 C6      -C7      -P1      -C14     :  54.021671
 C6      -C7      -C8      -H32     : 169.093204
 C6      -C7      -C8      -H33     :  50.515616
 C6      -C7      -C8      -H34     : -68.653052
 C6      -C7      -C9      -H35     :  71.163680
 C6      -C7      -C9      -H36     : -49.288396
 C6      -C7      -C9      -H37     :-167.636973
 C7      -P1      -C10     -C11     : -94.413969
 C7      -P1      -C10     -C12     : 144.378756
 C7      -P1      -C10     -C13     :  25.325882
 C7      -P1      -C14     -C15     : 147.091032
 C7      -P1      -C14     -C16     : -38.100832
 C8      -C7      -P1      -C10     :-179.041062
 C8      -C7      -P1      -C14     : -66.582258
 C8      -C7      -C6      -H29     :-176.075410
 C8      -C7      -C6      -H30     :  59.614698
 C8      -C7      -C6      -H31     : -57.873378
 C8      -C7      -C9      -H35     :-178.039527
 C8      -C7      -C9      -H36     :  61.508397
 C8      -C7      -C9      -H37     : -56.840180
 C9      -C7      -P1      -C10     :  64.471885
 C9      -C7      -P1      -C14     : 176.930690
 C9      -C7      -C6      -H29     : -63.783388
 C9      -C7      -C6      -H30     : 171.906720
 C9      -C7      -C6      -H31     :  54.418644
 C9      -C7      -C8      -H32     :  56.696218
 C9      -C7      -C8      -H33     : -61.881369
 C9      -C7      -C8      -H34     : 178.949962
 C10     -P1      -C14     -C15     : -94.247915
 C10     -P1      -C14     -C16     :  80.560222
 C11     -C10     -P1      -C14     : 144.998518
 C11     -C10     -C12     -H41     : -64.126226
 C11     -C10     -C12     -H42     : 173.972154
 C11     -C10     -C12     -H43     :  54.970223
 C11     -C10     -C13     -H44     :  58.433278
 C11     -C10     -C13     -H45     : -58.663069
 C11     -C10     -C13     -H46     :-177.425771
 C12     -C10     -P1      -C14     :  23.791242
 C12     -C10     -C11     -H38     :-177.607727
 C12     -C10     -C11     -H39     :  59.363111
 C12     -C10     -C11     -H40     : -58.521520
 C12     -C10     -C13     -H44     : 171.458658
 C12     -C10     -C13     -H45     :  54.362311
 C12     -C10     -C13     -H46     : -64.400392
 C13     -C10     -P1      -C14     : -95.261632
 C13     -C10     -C11     -H38     : -66.812636
 C13     -C10     -C11     -H39     : 170.158202
 C13     -C10     -C11     -H40     :  52.273572
 C13     -C10     -C12     -H41     :-175.664412
 C13     -C10     -C12     -H42     :  62.433968
 C13     -C10     -C12     -H43     : -56.567963
 C14     -C15     -C17     -C18     :-159.786990
 C14     -C15     -C17     -C22     :  17.229042
 C14     -C15     -C23     -C24     :-149.399733
 C14     -C15     -C23     -C28     :  29.669363
 C15     -C14     -C16     -H47     :  24.146870
 C15     -C14     -C16     -H48     :-103.159358
 C15     -C14     -C16     -H49     : 137.965198
 C15     -C17     -C18     -C19     : 179.005106
 C15     -C17     -C18     -H50     :   2.385979
 C15     -C17     -C22     -C21     :-178.863616
 C15     -C17     -C22     -H54     :   2.677633
 C15     -C23     -C24     -C25     : 179.256812
 C15     -C23     -C24     -H55     :   3.014608
 C15     -C23     -C28     -C27     :-179.661288
 C15     -C23     -C28     -H59     :   3.805598
 C16     -C14     -C15     -C17     :-166.737686
 C16     -C14     -C15     -C23     :  14.614672
 C17     -C15     -C23     -C24     :  31.825377
 C17     -C15     -C23     -C28     :-149.105527
 C17     -C18     -C19     -C20     :  -0.838609
 C17     -C18     -C19     -H51     :-179.589301
 C17     -C22     -C21     -C20     :   0.806808
 C17     -C22     -C21     -H53     :-179.385832
 C18     -C17     -C15     -C23     :  18.906428
 C18     -C17     -C22     -C21     :  -1.624738
 C18     -C17     -C22     -H54     : 179.916511
 C18     -C19     -C20     -C21     :  -0.143505
 C18     -C19     -C20     -H52     :-179.863199
 C19     -C18     -C17     -C22     :   1.642520
 C19     -C20     -C21     -C22     :   0.164402
 C19     -C20     -C21     -H53     :-179.641311
 C20     -C19     -C18     -H50     : 176.009577
 C20     -C21     -C22     -H54     : 179.353745
 C21     -C20     -C19     -H51     : 178.616690
 C22     -C17     -C15     -C23     :-164.077540
 C22     -C17     -C18     -H50     :-174.976608
 C22     -C21     -C20     -H52     : 179.884037
 C23     -C24     -C25     -C26     :   0.412709
 C23     -C24     -C25     -H56     :-179.725035
 C23     -C28     -C27     -C26     :   0.495043
 C23     -C28     -C27     -H58     :-179.228307
 C24     -C23     -C28     -C27     :  -0.538278
 C24     -C23     -C28     -H59     :-177.071392
 C24     -C25     -C26     -C27     :  -0.466479
 C24     -C25     -C26     -H57     : 179.241211
 C25     -C24     -C23     -C28     :   0.084330
 C25     -C26     -C27     -C28     :   0.036986
 C25     -C26     -C27     -H58     : 179.763854
 C26     -C25     -C24     -H55     : 176.845958
 C26     -C27     -C28     -H59     : 177.243024
 C27     -C26     -C25     -H56     : 179.670722
 C28     -C23     -C24     -H55     :-176.157874
 C28     -C27     -C26     -H57     :-179.671898
 H50     -C18     -C19     -H51     :  -2.741115
 H51     -C19     -C20     -H52     :  -1.103004
 H52     -C20     -C21     -H53     :   0.078324
 H53     -C21     -C22     -H54     :  -0.838895
 H55     -C24     -C25     -H56     :  -3.291786
 H56     -C25     -C26     -H57     :  -0.621589
 H57     -C26     -C27     -H58     :   0.054971
 H58     -C27     -C28     -H59     :  -2.480326
 
  nuclear repulsion energy.......          4065.133865435 hartrees
 -------------------------------------------------
   end of geometry optimization iteration  1
 -------------------------------------------------
   
  end of program geopt
   
 Time(geopt)  user:       0.749  user+sys:       0.749  wallclock:       0.881
  
  start of program onee
  
  smallest eigenvalue of S:    4.121E-04
  number of canonical orbitals.....          546
  end of program onee
   
 Time(onee)  user:       7.162  user+sys:       7.162  wallclock:       5.631
  
  start of program probe
  
  end of program probe
   
 Time(probe)  user:       0.540  user+sys:       0.540  wallclock:       0.506
  
  start of program grid
  
  end of program grid
   
 Time(grid)  user:     243.580  user+sys:     243.580  wallclock:     125.189
  
  start of program rwr
  
  end of program rwr
   
 Time(rwr)  user:      15.283  user+sys:      15.283  wallclock:      21.400
  
  start of program scf
  
 Energy computed using pseudospectral method.
 Convergence Criterion:
    Energy (econv):       1.00E-05
    RMS density (dconv):  5.00E-06
  
       i  u  d  i  g                   
       t  p  i  c  r                                 RMS    maximum
       e  d  i  u  i                       energy  density   DIIS  
       r  t  s  t  d       total energy    change  change    error 
  
etot    1  N  N  2  U   -1706.73292106481           3.3E-04  6.4E-03
etot    2  Y  Y  6  M   -1706.75293025181  2.0E-02  9.7E-05  1.2E-03
etot    3  N  Y  2  U   -1706.75248984113 -4.4E-04  5.9E-05  3.4E-03
etot    4  Y  Y  6  M   -1706.75344068998  9.5E-04  1.8E-05  5.0E-04
[...]
    H81      Z     0.01790   0.00057   0.03474  -0.00031   0.00338  -0.10371
    H82      X    -0.41721   0.00634   0.18482  -0.00039   0.63968   0.01525
    H82      Y    -0.24540   0.00371   0.10879  -0.00004   0.38217   0.00855
    H82      Z     0.14349  -0.00221  -0.06352   0.00010  -0.22253  -0.00559
    H83      X     0.62405  -0.00849  -0.29200   0.00533   0.48318   0.02593
    H83      Y    -0.32464   0.00443   0.15264  -0.00276  -0.25533  -0.01318
    H83      Z     0.05196  -0.00072  -0.02453   0.00044   0.04145   0.00219
    C6       X    -0.00000  -0.00005   0.00000  -0.00004   0.00001   0.00001
    C6       Y     0.00001  -0.00015  -0.00000  -0.00002  -0.00001   0.00007
    C6       Z    -0.00002   0.00004  -0.00001  -0.00001  -0.00000  -0.00001
    C7       X     0.00000  -0.00001  -0.00000  -0.00001   0.00000   0.00004
    C7       Y    -0.00000   0.00002  -0.00000   0.00002  -0.00000   0.00001
    C7       Z     0.00001   0.00001   0.00001   0.00001   0.00001  -0.00001
    C8       X     0.00004  -0.00004   0.00003   0.00002   0.00002  -0.00000
    C8       Y    -0.00001  -0.00004  -0.00002  -0.00001  -0.00000   0.00003
    C8       Z    -0.00001  -0.00002  -0.00002  -0.00003  -0.00000  -0.00001
    C9       X     0.00014  -0.00001   0.00032  -0.00001   0.00006  -0.00091
    C9       Y    -0.00002  -0.00001  -0.00009  -0.00001  -0.00002   0.00040
    C9       Z    -0.00021   0.00001  -0.00047  -0.00001  -0.00006   0.00091
    C10      X    -0.00001   0.00001  -0.00002  -0.00001  -0.00001  -0.00002
    C10      Y     0.00001   0.00001   0.00001   0.00001  -0.00000  -0.00000
    C10      Z     0.00001   0.00002   0.00000  -0.00000   0.00000   0.00001
    C11      X    -0.00014  -0.00000   0.00045  -0.00003  -0.00035   0.00016
    C11      Y     0.00001  -0.00002   0.00006  -0.00001  -0.00005   0.00004
    C11      Z     0.00007   0.00001  -0.00005  -0.00000   0.00027  -0.00003
    C12      X    -0.00001   0.00001   0.00001   0.00017  -0.00003   0.00001
    C12      Y     0.00006  -0.00003   0.00000  -0.00009   0.00004   0.00001
    C12      Z    -0.00000   0.00003  -0.00001  -0.00035   0.00004  -0.00002
    C13      X     0.00001   0.00000   0.00003  -0.00003  -0.00001   0.00005
    C13      Y     0.00005  -0.00001   0.00004  -0.00003   0.00001   0.00002
    C13      Z     0.00001   0.00002   0.00002  -0.00001  -0.00001   0.00002
    C14      X    -0.00000   0.00002  -0.00000   0.00002  -0.00001  -0.00002
    C14      Y    -0.00000   0.00017  -0.00001  -0.00000  -0.00001  -0.00001
    C14      Z     0.00001   0.00010   0.00001  -0.00009   0.00003   0.00002
    C15      X     0.00000   0.00002  -0.00000  -0.00002  -0.00000   0.00000
    C15      Y    -0.00001  -0.00004  -0.00000   0.00009  -0.00000  -0.00000
    C15      Z    -0.00000  -0.00005   0.00000   0.00005  -0.00000  -0.00002
    C16      X    -0.00000  -0.00025   0.00001  -0.00002   0.00000   0.00001
    C16      Y     0.00002  -0.00004   0.00001   0.00005   0.00001   0.00002
    C16      Z    -0.00002   0.00010  -0.00001   0.00002  -0.00001  -0.00001
    C17      X    -0.00003  -0.00000   0.00000  -0.00056   0.00002   0.00002
    C17      Y     0.00004   0.00008  -0.00001  -0.00001  -0.00004   0.00002
    C17      Z    -0.00002  -0.00004   0.00000   0.00119  -0.00000  -0.00002
    C18      X     0.00029   0.00054  -0.00009  -0.01761   0.00006   0.00006
    C18      Y    -0.00026  -0.00052   0.00009   0.01603  -0.00005  -0.00006
    C18      Z    -0.00006  -0.00010   0.00003   0.00489  -0.00003   0.00002
    C19      X     0.00015   0.00019  -0.00006  -0.01245   0.00006   0.00005
    C19      Y    -0.00033  -0.00040   0.00013   0.02569  -0.00010  -0.00006
    C19      Z     0.00039   0.00049  -0.00015  -0.03067   0.00014   0.00004
    C20      X    -0.00023  -0.00036   0.00014   0.02507  -0.00002  -0.00005
    C20      Y     0.00005   0.00006  -0.00002  -0.00382   0.00003   0.00003
    C20      Z     0.00040   0.00067  -0.00029  -0.04884  -0.00001   0.00005
    C21      X     0.00022  -0.00031   0.00004   0.03024  -0.00013  -0.00002
    C21      Y    -0.00015   0.00027  -0.00006  -0.02674   0.00006  -0.00001
    C21      Z    -0.00008   0.00002   0.00001  -0.00333   0.00006   0.00004
    C22      X     0.00018  -0.00003  -0.00003   0.00699  -0.00009  -0.00003
    C22      Y    -0.00030   0.00005   0.00003  -0.01112   0.00018   0.00008
    C22      Z     0.00043  -0.00008  -0.00005   0.01873  -0.00025  -0.00011
    C23      X    -0.00000  -0.00023   0.00001   0.00004  -0.00000  -0.00000
    C23      Y    -0.00001  -0.00153   0.00003  -0.00002  -0.00000  -0.00000
    C23      Z    -0.00000  -0.00033   0.00001  -0.00003  -0.00000   0.00000
    C24      X     0.00013   0.02111  -0.00042   0.00019  -0.00001   0.00001
    C24      Y    -0.00010  -0.01679   0.00033  -0.00020   0.00001  -0.00001
    C24      Z    -0.00004  -0.00672   0.00013  -0.00007   0.00000  -0.00000
    C25      X     0.00018   0.03814  -0.00076   0.00060  -0.00004  -0.00001
    C25      Y     0.00007   0.01542  -0.00031   0.00025  -0.00002  -0.00000
    C25      Z     0.00000   0.00052  -0.00001   0.00001  -0.00000   0.00000
    C26      X     0.00002   0.00615  -0.00012   0.00009  -0.00001  -0.00000
    C26      Y     0.00022   0.04975  -0.00099   0.00072  -0.00005  -0.00001
    C26      Z     0.00005   0.01169  -0.00023   0.00017  -0.00001  -0.00000
    C27      X    -0.00015  -0.03372   0.00068  -0.00050   0.00003   0.00001
    C27      Y     0.00010   0.02240  -0.00045   0.00033  -0.00002  -0.00001
    C27      Z     0.00004   0.00798  -0.00016   0.00013  -0.00001  -0.00000
    C28      X    -0.00013  -0.02420   0.00048  -0.00034   0.00001   0.00002
    C28      Y    -0.00006  -0.01219   0.00024  -0.00018   0.00001   0.00001
    C28      Z    -0.00001  -0.00138   0.00003  -0.00002   0.00000   0.00000
    H29      X     0.00007  -0.00025   0.00003   0.00001   0.00001   0.00008
    H29      Y    -0.00013   0.00046  -0.00005  -0.00007  -0.00000  -0.00007
    H29      Z     0.00024  -0.00072   0.00010   0.00011  -0.00000   0.00017
    H30      X     0.00000   0.00033   0.00004   0.00001   0.00002  -0.00024
    H30      Y     0.00001   0.00131   0.00017   0.00025   0.00006  -0.00128
    H30      Z     0.00000   0.00018   0.00004   0.00001   0.00001  -0.00026
    H31      X    -0.00011   0.00048  -0.00013   0.00038  -0.00018  -0.00022
    H31      Y     0.00001   0.00001  -0.00000   0.00003  -0.00000   0.00006
    H31      Z     0.00001   0.00005  -0.00000   0.00005   0.00001   0.00004
    H32      X     0.00002  -0.00006  -0.00002  -0.00017   0.00000  -0.00017
    H32      Y     0.00003   0.00009   0.00001   0.00030   0.00000   0.00029
    H32      Z     0.00012   0.00015   0.00021   0.00051   0.00008   0.00023
    H33      X    -0.00033   0.00035  -0.00033   0.00002  -0.00018   0.00010
    H33      Y     0.00007  -0.00008   0.00008  -0.00002   0.00004  -0.00004
    H33      Z     0.00001   0.00002   0.00001   0.00002  -0.00000  -0.00004
    H34      X    -0.00004   0.00027  -0.00001  -0.00010  -0.00002  -0.00012
    H34      Y    -0.00009   0.00055   0.00003  -0.00016  -0.00004  -0.00047
    H34      Z    -0.00000   0.00003   0.00003  -0.00013  -0.00001  -0.00005
    H35      X    -0.00003  -0.00002  -0.00004  -0.00002  -0.00000   0.00007
    H35      Y    -0.00090   0.00011  -0.00177  -0.00001  -0.00016   0.00202
    H35      Z     0.00136  -0.00014   0.00270  -0.00000   0.00024  -0.00313
    H36      X    -0.00062   0.00029  -0.00139   0.00027  -0.00031   0.00419
    H36      Y     0.00008   0.00002   0.00022   0.00001   0.00005  -0.00075
    H36      Z    -0.00020   0.00008  -0.00043   0.00007  -0.00008   0.00117
    H37      X    -0.00098  -0.00000  -0.00236  -0.00008  -0.00035   0.00603
    H37      Y     0.00119  -0.00001   0.00279   0.00005   0.00038  -0.00599
    H37      Z     0.00167  -0.00003   0.00399   0.00008   0.00060  -0.01020
    H38      X     0.00065   0.00008  -0.00403   0.00036   0.00194  -0.00112
    H38      Y     0.00027   0.00001  -0.00081   0.00010   0.00051  -0.00036
    H38      Z     0.00024   0.00004  -0.00087   0.00011   0.00049  -0.00033
    H39      X     0.00078   0.00009  -0.00113   0.00003   0.00237  -0.00068
    H39      Y     0.00017  -0.00001  -0.00022  -0.00002   0.00024  -0.00008
    H39      Z    -0.00168  -0.00012   0.00181  -0.00003  -0.00431   0.00053
    H40      X     0.00024  -0.00015  -0.00006  -0.00006   0.00000  -0.00008
    H40      Y    -0.00063   0.00035   0.00031   0.00013  -0.00026  -0.00004
    H40      Z     0.00063  -0.00021  -0.00027  -0.00008   0.00033   0.00005
    H41      X    -0.00005   0.00012  -0.00009  -0.00257   0.00025  -0.00017
    H41      Y     0.00006  -0.00001  -0.00003  -0.00104   0.00014  -0.00001
    H41      Z     0.00001  -0.00015   0.00014   0.00393  -0.00042   0.00021
    H42      X    -0.00006   0.00004  -0.00007   0.00020  -0.00001  -0.00004
    H42      Y    -0.00046   0.00001  -0.00014   0.00152  -0.00033  -0.00010
    H42      Z    -0.00030   0.00008  -0.00010   0.00097  -0.00024  -0.00008
    H43      X     0.00024  -0.00018   0.00004   0.00014   0.00012   0.00003
    H43      Y    -0.00045   0.00039  -0.00005   0.00002  -0.00024  -0.00010
    H43      Z     0.00039  -0.00026   0.00003  -0.00014   0.00023   0.00007
    H44      X    -0.00020   0.00008  -0.00042   0.00043   0.00011  -0.00056
    H44      Y    -0.00002   0.00001  -0.00006   0.00010   0.00003  -0.00015
    H44      Z    -0.00005   0.00003  -0.00008   0.00007  -0.00000  -0.00006
    H45      X     0.00014  -0.00012   0.00007  -0.00004   0.00007  -0.00005
    H45      Y    -0.00029   0.00026  -0.00011   0.00004  -0.00016   0.00004
    H45      Z     0.00027  -0.00018   0.00011  -0.00002   0.00011  -0.00002
    H46      X     0.00000  -0.00000  -0.00001  -0.00002  -0.00000  -0.00001
    H46      Y    -0.00038  -0.00015  -0.00033   0.00015   0.00000  -0.00015
    H46      Z    -0.00029  -0.00005  -0.00024   0.00014  -0.00001  -0.00011
    H47      X     0.00003   0.00027   0.00002  -0.00010   0.00010  -0.00003
    H47      Y     0.00003   0.00020   0.00003  -0.00001   0.00011  -0.00000
    H47      Z     0.00003   0.00031   0.00003  -0.00005   0.00010   0.00003
    H48      X     0.00001   0.00280  -0.00009   0.00070  -0.00005  -0.00000
    H48      Y    -0.00000  -0.00156   0.00005  -0.00044   0.00003   0.00004
    H48      Z     0.00001  -0.00060   0.00002  -0.00023   0.00001   0.00003
    H49      X    -0.00002   0.00031  -0.00001  -0.00002  -0.00002  -0.00001
    H49      Y    -0.00027   0.00151  -0.00008   0.00011  -0.00015  -0.00023
    H49      Z     0.00019  -0.00107   0.00005  -0.00028   0.00009   0.00016
    H50      X    -0.00314  -0.00622   0.00102   0.19070  -0.00067  -0.00070
    H50      Y     0.00293   0.00578  -0.00097  -0.17985   0.00065   0.00066
    H50      Z     0.00062   0.00109  -0.00020  -0.03858   0.00014   0.00013
    H51      X    -0.00159  -0.00197   0.00061   0.12705  -0.00055  -0.00026
    H51      Y     0.00349   0.00431  -0.00135  -0.27500   0.00117   0.00054
    H51      Z    -0.00437  -0.00534   0.00166   0.34125  -0.00146  -0.00068
    H52      X     0.00235   0.00381  -0.00164  -0.27435   0.00006   0.00036
    H52      Y    -0.00039  -0.00059   0.00025   0.04258  -0.00003  -0.00006
    H52      Z    -0.00460  -0.00740   0.00320   0.53656  -0.00006  -0.00070
    H53      X    -0.00252   0.00332  -0.00039  -0.33174   0.00133   0.00013
    H53      Y     0.00228  -0.00289   0.00029   0.28801  -0.00137  -0.00012
    H53      Z     0.00055  -0.00046  -0.00000   0.04986  -0.00042  -0.00002
    H54      X    -0.00223   0.00043   0.00030  -0.08775   0.00128   0.00051
    H54      Y     0.00313  -0.00062  -0.00037   0.12610  -0.00173  -0.00076
    H54      Z    -0.00491   0.00098   0.00061  -0.19919   0.00282   0.00114
    H55      X    -0.00155  -0.24113   0.00482  -0.00223   0.00012  -0.00014
    H55      Y     0.00109   0.17226  -0.00345   0.00170  -0.00010   0.00008
    H55      Z     0.00045   0.07220  -0.00145   0.00076  -0.00005   0.00002
    H56      X    -0.00192  -0.41128   0.00825  -0.00657   0.00046   0.00005
    H56      Y    -0.00082  -0.17629   0.00353  -0.00282   0.00020   0.00002
    H56      Z    -0.00004  -0.00774   0.00015  -0.00014   0.00001  -0.00000
    H57      X    -0.00030  -0.06695   0.00134  -0.00097   0.00007   0.00001
    H57      Y    -0.00244  -0.54535   0.01089  -0.00794   0.00057   0.00012
    H57      Z    -0.00057  -0.12783   0.00255  -0.00187   0.00013   0.00003
    H58      X     0.00163   0.36068  -0.00722   0.00535  -0.00037  -0.00016
    H58      Y    -0.00114  -0.25216   0.00505  -0.00376   0.00026   0.00012
    H58      Z    -0.00040  -0.08796   0.00176  -0.00132   0.00009   0.00004
    H59      X     0.00149   0.27171  -0.00532   0.00366  -0.00011  -0.00021
    H59      Y     0.00065   0.12114  -0.00238   0.00166  -0.00006  -0.00009
    H59      Z     0.00006   0.01125  -0.00022   0.00013  -0.00001  -0.00001
  
  Number of imaginary frequencies:   2
   
  Writing vibrational animation data to ox_add_TS_L1_PL747.vib
  Writing IR vibrational spectrum data to ox_add_TS_L1_PL747_vib.spm
  rotational symmetry number:  1

  rotational temperatures (K):      0.007475      0.004016      0.003220
   
  The Quasi-Harmonic approximation will be applied to compute
  vibrational constributions to thermodynamic properties.
  Frequencies will be adjusted to a minimum value of  100.00 cm^-1.

    2 vibrational frequencies below    0.0 cm-1 not included in zero-point
  energy or thermochemical analysis.  Set freqcut to change the frequency
  cutoff value.

  vibrational temperatures:
       mode:      3        4        5        6        7        8
  temp. (K):   143.88   143.88   143.88   143.88   143.88   143.88
   
       mode:      9       10       11       12       13       14
  temp. (K):   143.88   143.88   143.88   143.88   143.88   148.35
   
       mode:     15       16       17       18       19       20
  temp. (K):   161.87   168.35   189.18   191.95   200.99   234.96
   
       mode:     21       22       23       24       25       26
  temp. (K):   239.85   262.39   273.33   302.27   319.69   336.02
   
       mode:     27       28       29       30       31       32
  temp. (K):   352.33   362.32   364.33   372.61   390.80   396.81
   
       mode:     33       34       35       36       37       38
  temp. (K):   415.61   419.06   432.07   448.82   452.44   459.86
   
       mode:     39       40       41       42       43       44
  temp. (K):   473.85   492.95   526.83   553.24   567.20   583.34
   
       mode:     45       46       47       48       49       50
  temp. (K):   590.22   594.68   597.86   607.40   616.46   639.99
   
       mode:     51       52       53       54       55       56
  temp. (K):   659.14   679.59   702.31   710.26   734.12   786.47
   
       mode:     57       58       59       60       61       62
  temp. (K):   789.91   843.84   882.99   894.97   895.98   902.38
   
       mode:     63       64       65       66       67       68
  temp. (K):   905.50   957.51   980.19   996.36  1031.83  1043.61
   
       mode:     69       70       71       72       73       74
  temp. (K):  1094.30  1107.65  1157.05  1158.59  1167.61  1185.05
   
       mode:     75       76       77       78       79       80
  temp. (K):  1199.03  1203.04  1233.68  1254.38  1322.79  1334.24
   
       mode:     81       82       83       84       85       86
  temp. (K):  1338.63  1369.23  1372.51  1378.06  1378.67  1383.75
   
       mode:     87       88       89       90       91       92
  temp. (K):  1388.85  1401.48  1410.98  1413.77  1428.98  1438.77
   
       mode:     93       94       95       96       97       98
  temp. (K):  1441.44  1457.01  1462.67  1467.45  1475.26  1481.30
   
       mode:     99      100      101      102      103      104
  temp. (K):  1491.75  1502.34  1514.59  1518.78  1522.52  1526.53
   
       mode:    105      106      107      108      109      110
  temp. (K):  1533.83  1598.48  1610.34  1615.76  1655.01  1703.82
   
       mode:    111      112      113      114      115      116
  temp. (K):  1728.18  1732.59  1739.49  1749.04  1749.69  1754.94
   
       mode:    117      118      119      120      121      122
  temp. (K):  1758.76  1771.54  1779.25  1793.61  1798.56  1841.81
   
       mode:    123      124      125      126      127      128
  temp. (K):  1880.97  1885.65  1926.65  1939.52  1947.39  1977.95
   
       mode:    129      130      131      132      133      134
  temp. (K):  1981.80  2041.08  2045.39  2047.21  2052.24  2060.63
   
       mode:    135      136      137      138      139      140
  temp. (K):  2065.68  2087.96  2102.19  2127.27  2145.05  2156.64
   
       mode:    141      142      143      144      145      146
  temp. (K):  2157.29  2159.52  2168.01  2169.15  2171.16  2175.41
   
       mode:    147      148      149      150      151      152
  temp. (K):  2181.59  2188.25  2194.72  2200.07  2208.99  2211.59
   
       mode:    153      154      155      156      157      158
  temp. (K):  2215.88  2218.82  2226.77  2230.54  2329.85  2338.20
   
       mode:    159      160      161      162      163      164
  temp. (K):  2358.69  2369.07  2370.28  2372.77  2403.31  4362.47
   
       mode:    165      166      167      168      169      170
  temp. (K):  4373.63  4374.17  4377.71  4381.57  4384.15  4418.92
   
       mode:    171      172      173      174      175      176
  temp. (K):  4472.07  4475.31  4486.38  4490.37  4494.51  4499.21
   
       mode:    177      178      179      180      181      182
  temp. (K):  4501.19  4508.87  4516.93  4541.14  4548.87  4549.44
   
       mode:    183      184      185      186      187      188
  temp. (K):  4557.65  4578.32  4583.52  4588.11  4588.90  4592.54
   
       mode:    189      190      191      192      193      194
  temp. (K):  4602.80  4606.33  4611.74  4614.98  4620.11  4622.89
   
       mode:    195      196      197      198
  temp. (K):  4623.20  4628.09  4641.90  4653.45
   
   
  Thermodynamic properties calculated assuming an ideal gas

  In the table below, the units for temperature
  are kelvins, the units for U, H, and G are
  kcal/mol and the units for Cv and S are cal/(mol K)

  The zero point energy (ZPE):    355.889 kcal/mol
  is not included in U, H, or G in the table below
  
 
  =============================================================================
  Thermodynamic properties for P = 1.00E+00 atm, calculated at   1 temperatures


  T =   298.15 K, P = 1.00E+00 atm
   
                  U         Cv          S          H          G        ln(Q)
              =========  =========  =========  =========  =========  =========
  trans.          0.889      2.981     45.147      1.481    -11.979   20.21902
  rot.            0.889      2.981     37.150      0.889    -10.188   17.19471
  vib.           19.221    126.368    116.411     19.221    -15.487   26.13920
  elec.           0.000      0.000      0.000      0.000      0.000    0.00000
  ----------------------------------------------------------------------------
  total          20.998    132.329    198.708     21.591    -37.654   63.55293
   
   Total internal energy, Utot(SCFE + ZPE + U):   -1706.346921 hartrees
   Total enthalpy, Htot (Utot + nRT), with n=1:   -1706.345977 hartrees
    Total Gibbs free energy, Gtot (Htot - T*S):   -1706.440390 hartrees
   
  end of program freq
   
 Time(freq)  user:       0.322  user+sys:       0.322  wallclock:       0.517
  
  start of program post
  
  Writing input files for PBF
  end of program post
   
 Time(post)  user:       0.160  user+sys:       0.160  wallclock:       0.119

 Total cpu seconds     user:   90236.414   user+sys:   90236.414
  
 Total elapsed time:    52210 seconds

Job ox_add_TS_L1_PL747 completed on bp1-compute087 at Wed Mar 19 21:07:15 2025
