Job ox_add_Br_trans_L1_PL747 started on bp1-compute087 at Tue Mar 18 17:48:34 2025
jobid: bp1-compute087-0-67d9b1ec

  +--------------------------------------------------------------------+
  |  Jaguar version 12.5, release 138                                  |
  |                                                                    |
  |  Copyright Schrodinger, Inc.                                       |
  |  All Rights Reserved.                                              |
  |                                                                    |
  |  The following have contributed to Jaguar (listed alphabetically): |
  |  Ty Balduf, Mike Beachy, Chandler Bennett, Art Bochevarov,         |
  |  Dale Braden, Yixiang Cao, Alan Chien, Chris Cortis,               |
  |  Rich Friesner, Jim Furness, Bill Goddard, Hod Greeley,            |
  |  Tom Hughes, Leif Jacobson, Jean-Marc Langlois, Daniel Levine,     |
  |  Rob Murphy, Dean Philipp, Tom Pollard, Murco Ringnalda,           |
  |  Daniel Mainz, Pablo Videla, Mark Watson, Haoyu Yu.                |
  |                                                                    |
  |  Use of this program should be acknowledged in publications as:    |
  |                                                                    |
  |  Jaguar, version 12.5, Schrodinger, Inc., New York, NY, 2024.      |
  |                                                                    |
  |  A. D. Bochevarov, E. Harder, T. F. Hughes, J. R. Greenwood,       |
  |  D. A. Braden, D. M. Philipp, D. Rinaldo, M. D. Halls,             |
  |  J. Zhang, R. A. Friesner, "Jaguar: A High-Performance Quantum     |
  |  Chemistry Software Program with Strengths in Life and Materials   |
  |  Sciences", Int. J. Quantum Chem., 2013, 113(18), 2110-2142.       |
  +--------------------------------------------------------------------+
  
  start of program pre
  
  Job name: ox_add_Br_trans_L1_PL747
  Executables used: /software/local/apps/schrodinger2024-3/jaguar-v12.5/bin/Linux-x86_64
  Temporary files : /tmp/ar21627/ox_add_Br_trans_L1_PL747#bp1-compute087-0-67d9b1ec
  Basis file : using default basis file from /software/local/apps/schrodinger2024-3
  Maestro file (input):  ox_add_Br_trans_L1_PL747.mae
  Maestro file (output): ox_add_Br_trans_L1_PL747.01.mae
  
 Contents of input file: &gen and (if present) &atomic sections only
 ----------------Contents start----------------
&gen
dftname=b3pw91-d3
basis=6-31G*
numd=5
ip11=2
iaccg=3
isolv=2
igeopt=1
solvent=benzene
ifreq=1
&
&atomic
atom basis
Pd2 lacv3p*
Br3 lacv3p*
&
 -----------------Contents end-----------------
 
  PS calculation requested. Using PS version of 6-31g*
  basis set:               non_standard                    
  net molecular charge:    0
  multiplicity:            1
  
  Using up to   4 threads per process
  
  This run will use ECP on            2  atoms
  number of basis functions....          548
  
 Input geometry:
                                   angstroms
  atom               x                 y                 z
  P1            0.0000000000      0.0000000000      0.0000000000 
  Pd2           0.0000000000      0.0000000000      2.3939100518 
  Br3           2.4356423847      0.0000000000      2.9438771575 
  C73          -1.3099704604     -0.1220839423      6.9743739903 
  C74          -1.0539546789      1.1086735116      6.3855515605 
  C75          -0.5609059573      1.1340261808      5.0773016488 
  C76          -0.3472548240     -0.0530180702      4.3631094256 
  C77          -0.5915658045     -1.2748482943      5.0022370772 
  C78          -1.0813195377     -1.3194478731      6.3101427576 
  F79          -1.7900114769     -0.1569033664      8.2397291806 
  H80          -1.2304428206      2.0212751892      6.9491590222 
  H81          -0.3433660729      2.0960382521      4.6160493344 
  H82          -0.4023638020     -2.2111601822      4.4813268881 
  H83          -1.2800057517     -2.2609324443      6.8166244065 
  C6            2.4859719890      0.0000000000     -1.6223129383 
  C7            1.8417756257      0.2769820460     -0.2399989394 
  C8            2.6663087097     -0.6082138621      0.7365118888 
  C9            2.2012755100      1.7300295336      0.1185451052 
  C10          -1.0442422168      1.0525620250     -1.2245682407 
  C11          -1.4860189141      2.4068635562     -0.6186336630 
  C12          -2.3367912708      0.3331721453     -1.7052096288 
  C13          -0.3250889897      1.4259492335     -2.5340722034 
  C14          -0.6347117209     -1.6922415293     -0.3828062666 
  C15          -1.6302748092     -2.3927843535      0.2399897583 
  C16           0.0498481859     -2.2307293172     -1.6154187915 
  C17          -2.5205641274     -1.8331540020      1.3175461603 
  C18          -3.2361967390     -2.6805096353      2.2022542455 
  C19          -4.0600273760     -2.2250561135      3.2408307573 
  C20          -4.2109305406     -0.8520848934      3.4784760050 
  C21          -3.5076587701      0.0284255940      2.6542490346 
  C22          -2.6925367435     -0.4708665801      1.6203982685 
  C23          -1.8623523873     -3.8259187935     -0.1349257984 
  C24          -3.1554951512     -4.4027058888     -0.0568525067 
  C25          -3.4421022397     -5.7330231762     -0.4105038771 
  C26          -2.4188354248     -6.5759441177     -0.8636145833 
  C27          -1.1216326943     -6.0523033683     -0.9583005987 
  C28          -0.8732314023     -4.7159716000     -0.6057184053 
  H29           2.0813719627      0.6072601128     -2.4483495804 
  H30           2.4311175010     -1.0725477374     -1.9263398058 
  H31           3.5745669595      0.2314293317     -1.6211068800 
  H32           2.4573412261     -0.3720653966      1.7972151899 
  H33           3.7578638055     -0.4604751279      0.6100969397 
  H34           2.4638157099     -1.6856423925      0.5552817953 
  H35           1.6519446043      2.4722168973     -0.4992230335 
  H36           3.2811668996      1.9419156510     -0.0149459428 
  H37           1.9871346933      1.9556400374      1.1879195070 
  H38          -0.6157427779      3.0122505336     -0.2973626647 
  H39          -2.1831377681      2.2877233763      0.2375526023 
  H40          -2.0479247989      3.0245050227     -1.3585909559 
  H41          -3.0368992754      0.0578162296     -0.8875143619 
  H42          -2.1139318149     -0.5972890217     -2.2671034618 
  H43          -2.9294144919      0.9726865205     -2.3898585036 
  H44           0.5506695379      2.0950297279     -2.3609297955 
  H45          -0.9761293915      2.0030120040     -3.2222182302 
  H46          -0.0026444036      0.5379374497     -3.1141278566 
  H47          -0.5594442697     -2.9507240190     -2.2036197206 
  H48           1.0543217752     -2.6543280660     -1.3763938799 
  H49           0.2089887201     -1.4238140282     -2.3645129156 
  H50          -3.1419181795     -3.7712210074      2.1619894233 
  H51          -4.5804963435     -2.9436655974      3.8935462111 
  H52          -4.8535231849     -0.4799595536      4.2930319729 
  H53          -3.5899332507      1.1152026592      2.8130272456 
  H54          -2.1961053731      0.2994317511      1.0380707185 
  H55          -4.0307812875     -3.7991870334      0.2351071833 
  H56          -4.4739698759     -6.1207038115     -0.3304170105 
  H57          -2.6247252347     -7.6205234697     -1.1315014316 
  H58          -0.3025493460     -6.7027232928     -1.3096642141 
  H59           0.1864454950     -4.4198743842     -0.6757991606 
   
  principal moments of inertia:
        amu*angstrom^2:              4431.61575              5620.00842              7535.73146
                g*cm^2:          7.35887016E-37          9.33224237E-37          1.25133749E-36
   
  rotational constants:
               cm^(-1):      0.00380395      0.00299957      0.00223703
                   GHz:      0.11403945      0.08992496      0.06706436
   
  Molecular weight:     618.07 amu
   
  Stoichiometry: PdC29PH35BrF
  Molecular Point Group: C1      
  Point Group used: C1
  
 
Number of optimization coordinates:   232
Number of independent coordinates:    232
Number of non-redundant coordinates:  198
Number of frozen coordinates:           0
Number of harmonic constraints:         0
 
Number of geometric degrees of freedom:   198
Maximum geometric degrees of freedom:     198
 " " " " " excluding dummy atoms:         198
 
 
  bond lengths (angstroms):
 
 P1      -Pd2     :   2.393910      P1      -C7      :   1.877886
 P1      -C10     :   1.922991      P1      -C14     :   1.847453
 Pd2     -Br3     :   2.496962      Pd2     -C76     :   2.000286
 Br3     -H32     :   1.205710      C73     -C74     :   1.388171
 C73     -C78     :   1.388224      C73     -F79     :   1.353800
 C74     -C75     :   1.398305      C74     -H80     :   1.087034
 C75     -C76     :   1.401710      C75     -H81     :   1.088827
 C76     -C77     :   1.400372      C77     -C78     :   1.397306
 C77     -H82     :   1.088037      C78     -H83     :   1.087379
 C6      -C7      :   1.550000      C6      -H29     :   1.102181
 C6      -H30     :   1.116154      C6      -H31     :   1.112924
 C7      -C8      :   1.554670      C7      -C9      :   1.539201
 C8      -H32     :   1.106583      C8      -H33     :   1.108738
 C8      -H34     :   1.111171      C9      -H35     :   1.110965
 C9      -H36     :   1.108549      C9      -H37     :   1.113696
 C10     -C11     :   1.548049      C10     -C12     :   1.555385
 C10     -C13     :   1.539935      C11     -H38     :   1.107740
 C11     -H39     :   1.110506      C11     -H40     :   1.115686
 C12     -H41     :   1.111124      C12     -H42     :   1.109572
 C12     -H43     :   1.108569      C13     -H44     :   1.115616
 C13     -H45     :   1.109234      C13     -H46     :   1.108603
 C14     -C15     :   1.367399      C14     -C16     :   1.509280
 C15     -C17     :   1.505632      C15     -C23     :   1.499432
 C16     -H47     :   1.111580      C16     -H48     :   1.116036
 C16     -H49     :   1.112466      C17     -C18     :   1.418749
 C17     -C22     :   1.406101      C18     -C19     :   1.401705
 C18     -H50     :   1.095519      C19     -C20     :   1.401534
 C19     -H51     :   1.101510      C20     -C21     :   1.396152
 C20     -H52     :   1.102227      C21     -C22     :   1.408036
 C21     -H53     :   1.101392      C22     -H54     :   1.085776
 C23     -C24     :   1.418096      C23     -C28     :   1.411453
 C24     -C25     :   1.406043      C24     -H55     :   1.102543
 C25     -C26     :   1.401035      C25     -H56     :   1.105197
 C26     -C27     :   1.402106      C26     -H57     :   1.097862
 C27     -C28     :   1.404208      C27     -H58     :   1.103359
 C28     -H59     :   1.102497
 
  bond angles:
 
 C7      -P1      -Pd2     :  97.342638  C10     -P1      -Pd2     : 129.553898
 C10     -P1      -C7      : 111.744572  C14     -P1      -Pd2     : 101.958762
 C14     -P1      -C7      : 116.460285  C14     -P1      -C10     : 100.536212
 Br3     -Pd2     -P1      : 102.723983  C76     -Pd2     -P1      : 169.885589
 C76     -Pd2     -Br3     :  87.277873  H32     -Br3     -Pd2     :  78.935552
 C78     -C73     -C74     : 122.098525  F79     -C73     -C74     : 118.990092
 F79     -C73     -C78     : 118.910051  C75     -C74     -C73     : 118.552117
 H80     -C74     -C73     : 119.634489  H80     -C74     -C75     : 121.810823
 C76     -C75     -C74     : 121.003524  H81     -C75     -C74     : 118.868929
 H81     -C75     -C76     : 120.127545  C75     -C76     -Pd2     : 120.371939
 C77     -C76     -Pd2     : 120.180024  C77     -C76     -C75     : 118.669095
 C78     -C77     -C76     : 121.077373  H82     -C77     -C76     : 120.131815
 H82     -C77     -C78     : 118.790726  C77     -C78     -C73     : 118.558919
 H83     -C78     -C73     : 119.592635  H83     -C78     -C77     : 121.847482
 H29     -C6      -C7      : 114.667671  H30     -C6      -C7      : 113.216762
 H30     -C6      -H29     : 107.893773  H31     -C6      -C7      : 111.616907
 H31     -C6      -H29     : 104.199965  H31     -C6      -H30     : 104.370416
 C6      -C7      -P1      : 119.685427  C8      -C7      -P1      : 110.848869
 C8      -C7      -C6      : 103.768090  C9      -C7      -P1      : 109.788049
 C9      -C7      -C6      : 106.222348  C9      -C7      -C8      : 105.505012
 H32     -C8      -C7      : 112.359211  H33     -C8      -C7      : 112.002951
 H33     -C8      -H32     : 105.472016  H34     -C8      -C7      : 110.670603
 H34     -C8      -H32     : 109.198763  H34     -C8      -H33     : 106.858970
 H35     -C9      -C7      : 112.683762  H36     -C9      -C7      : 112.328328
 H36     -C9      -H35     : 106.680106  H37     -C9      -C7      : 111.715700
 H37     -C9      -H35     : 107.669515  H37     -C9      -H36     : 105.320351
 C11     -C10     -P1      : 112.616616  C12     -C10     -P1      : 113.259062
 C12     -C10     -C11     : 106.764108  C13     -C10     -P1      : 114.874709
 C13     -C10     -C11     : 104.714106  C13     -C10     -C12     : 103.736378
 H38     -C11     -C10     : 111.557046  H39     -C11     -C10     : 112.772054
 H39     -C11     -H38     : 109.159948  H40     -C11     -C10     : 111.619353
 H40     -C11     -H38     : 106.587826  H40     -C11     -H39     : 104.748381
 H41     -C12     -C10     : 114.256512  H42     -C12     -C10     : 112.174739
 H42     -C12     -H41     : 106.942602  H43     -C12     -C10     : 111.609504
 H43     -C12     -H41     : 105.107199  H43     -C12     -H42     : 106.163418
 H44     -C13     -C10     : 112.336163  H45     -C13     -C10     : 112.308433
 H45     -C13     -H44     : 104.182669  H46     -C13     -C10     : 112.739674
 H46     -C13     -H44     : 109.468348  H46     -C13     -H45     : 105.237954
 C15     -C14     -P1      : 128.684936  C16     -C14     -P1      : 109.889446
 C16     -C14     -C15     : 121.292777  C17     -C15     -C14     : 124.475500
 C23     -C15     -C14     : 119.240168  C23     -C15     -C17     : 116.275301
 H47     -C16     -C14     : 114.496636  H48     -C16     -C14     : 111.637587
 H48     -C16     -H47     : 111.150763  H49     -C16     -C14     : 110.856140
 H49     -C16     -H47     : 101.064513  H49     -C16     -H48     : 106.904158
 C18     -C17     -C15     : 121.503772  C22     -C17     -C15     : 125.914389
 C22     -C17     -C18     : 112.497504  C19     -C18     -C17     : 124.362798
 H50     -C18     -C17     : 121.891101  H50     -C18     -C19     : 113.660382
 C20     -C19     -C18     : 120.478961  H51     -C19     -C18     : 120.316905
 H51     -C19     -C20     : 119.192149  C21     -C20     -C19     : 117.611883
 H52     -C20     -C19     : 121.252466  H52     -C20     -C21     : 121.132845
 C22     -C21     -C20     : 120.095366  H53     -C21     -C20     : 119.971301
 H53     -C21     -C22     : 119.933325  C21     -C22     -C17     : 124.924857
 H54     -C22     -C17     : 121.057891  H54     -C22     -C21     : 114.010856
 C24     -C23     -C15     : 121.072537  C28     -C23     -C15     : 125.285237
 C28     -C23     -C24     : 113.635329  C25     -C24     -C23     : 123.838833
 H55     -C24     -C23     : 121.055335  H55     -C24     -C25     : 115.004393
 C26     -C25     -C24     : 120.112978  H56     -C25     -C24     : 120.263401
 H56     -C25     -C26     : 119.623423  C27     -C26     -C25     : 118.220572
 H57     -C26     -C25     : 120.956461  H57     -C26     -C27     : 120.821812
 C28     -C27     -C26     : 120.140430  H58     -C27     -C26     : 119.219895
 H58     -C27     -C28     : 120.639506  C27     -C28     -C23     : 124.048634
 H59     -C28     -C23     : 121.695734  H59     -C28     -C27     : 114.183109
 C8      -H32     -Br3     : 168.768471
 
  torsional angles:
 
 P1      -Pd2     -Br3     -H32     : -18.326452
 P1      -Pd2     -C76     -C75     : -94.452095
 P1      -Pd2     -C76     -C77     :  75.306101
 P1      -C7      -C6      -H29     :  60.423601
 P1      -C7      -C6      -H30     : -63.971781
 P1      -C7      -C6      -H31     : 178.610880
 P1      -C7      -C8      -H32     : -61.557565
 P1      -C7      -C8      -H33     : 179.931233
 P1      -C7      -C8      -H34     :  60.802319
 P1      -C7      -C9      -H35     : -59.094664
 P1      -C7      -C9      -H36     :-179.623589
 P1      -C7      -C9      -H37     :  62.275757
 P1      -C10     -C11     -H38     :  58.116114
 P1      -C10     -C11     -H39     : -65.152471
 P1      -C10     -C11     -H40     : 177.243530
 P1      -C10     -C12     -H41     :  59.561348
 P1      -C10     -C12     -H42     : -62.364252
 P1      -C10     -C12     -H43     : 178.637193
 P1      -C10     -C13     -H44     : -64.845351
 P1      -C10     -C13     -H45     : 178.096263
 P1      -C10     -C13     -H46     :  59.410745
 P1      -C14     -C15     -C17     :   6.457709
 P1      -C14     -C15     -C23     :-172.406568
 P1      -C14     -C16     -H47     :-151.247671
 P1      -C14     -C16     -H48     :  81.355884
 P1      -C14     -C16     -H49     : -37.714256
 Pd2     -P1      -C7      -C6      : 164.064689
 Pd2     -P1      -C7      -C8      :  43.384917
 Pd2     -P1      -C7      -C9      : -72.784384
 Pd2     -P1      -C10     -C11     :  26.616122
 Pd2     -P1      -C10     -C12     : -94.660115
 Pd2     -P1      -C10     -C13     : 146.381420
 Pd2     -P1      -C14     -C15     :  40.002308
 Pd2     -P1      -C14     -C16     :-144.206813
 Pd2     -Br3     -H32     -C8      : 147.556062
 Pd2     -C76     -C75     -C74     : 167.622400
 Pd2     -C76     -C75     -H81     : -12.357611
 Pd2     -C76     -C77     -C78     :-167.803463
 Pd2     -C76     -C77     -H82     :  12.088620
 Br3     -Pd2     -P1      -C7      :  -8.552539
 Br3     -Pd2     -P1      -C10     :-134.772660
 Br3     -Pd2     -P1      -C14     : 110.559641
 Br3     -Pd2     -C76     -C75     :  94.023527
 Br3     -Pd2     -C76     -C77     : -96.218277
 Br3     -H32     -C8      -C7      :-102.497506
 Br3     -H32     -C8      -H33     :  19.792335
 Br3     -H32     -C8      -H34     : 134.313462
 C73     -C74     -C75     -C76     :   0.978288
 C73     -C74     -C75     -H81     :-179.041455
 C73     -C78     -C77     -C76     :  -0.660408
 C73     -C78     -C77     -H82     : 179.446091
 C74     -C73     -C78     -C77     :  -0.712150
 C74     -C73     -C78     -H83     : 178.937316
 C74     -C75     -C76     -C77     :  -2.288612
 C75     -C74     -C73     -C78     :   0.554537
 C75     -C74     -C73     -F79     :-179.870066
 C75     -C76     -C77     -C78     :   2.127464
 C75     -C76     -C77     -H82     :-177.980453
 C76     -Pd2     -P1      -C7      :-179.871788
 C76     -Pd2     -P1      -C10     :  53.908092
 C76     -Pd2     -P1      -C14     : -60.759607
 C76     -Pd2     -Br3     -H32     : 160.153016
 C76     -C75     -C74     -H80     :-179.607446
 C76     -C77     -C78     -H83     : 179.698421
 C77     -C76     -C75     -H81     : 177.731377
 C77     -C78     -C73     -F79     : 179.712125
 C78     -C73     -C74     -H80     :-178.872806
 F79     -C73     -C74     -H80     :   0.702591
 F79     -C73     -C78     -H83     :  -0.638409
 H80     -C74     -C75     -H81     :   0.372812
 H82     -C77     -C78     -H83     :  -0.195079
 C6      -C7      -P1      -C10     : -57.977571
 C6      -C7      -P1      -C14     :  56.756994
 C6      -C7      -C8      -H32     : 168.730180
 C6      -C7      -C8      -H33     :  50.218977
 C6      -C7      -C8      -H34     : -68.909937
 C6      -C7      -C9      -H35     :  71.659901
 C6      -C7      -C9      -H36     : -48.869024
 C6      -C7      -C9      -H37     :-166.969678
 C7      -P1      -C10     -C11     : -93.906048
 C7      -P1      -C10     -C12     : 144.817715
 C7      -P1      -C10     -C13     :  25.859250
 C7      -P1      -C14     -C15     : 144.559309
 C7      -P1      -C14     -C16     : -39.649812
 C8      -C7      -P1      -C10     :-178.657343
 C8      -C7      -P1      -C14     : -63.922778
 C8      -C7      -C6      -H29     :-175.418780
 C8      -C7      -C6      -H30     :  60.185837
 C8      -C7      -C6      -H31     : -57.231501
 C8      -C7      -C9      -H35     :-178.588850
 C8      -C7      -C9      -H36     :  60.882225
 C8      -C7      -C9      -H37     : -57.218429
 C9      -C7      -P1      -C10     :  65.173356
 C9      -C7      -P1      -C14     : 179.907921
 C9      -C7      -C6      -H29     : -64.445286
 C9      -C7      -C6      -H30     : 171.159331
 C9      -C7      -C6      -H31     :  53.741993
 C9      -C7      -C8      -H32     :  57.232106
 C9      -C7      -C8      -H33     : -61.279096
 C9      -C7      -C8      -H34     : 179.591989
 C10     -P1      -C14     -C15     : -94.544224
 C10     -P1      -C14     -C16     :  81.246655
 C11     -C10     -P1      -C14     : 141.891313
 C11     -C10     -C12     -H41     : -64.954754
 C11     -C10     -C12     -H42     : 173.119646
 C11     -C10     -C12     -H43     :  54.121091
 C11     -C10     -C13     -H44     :  59.211664
 C11     -C10     -C13     -H45     : -57.846722
 C11     -C10     -C13     -H46     :-176.532241
 C12     -C10     -P1      -C14     :  20.615076
 C12     -C10     -C11     -H38     :-176.975318
 C12     -C10     -C11     -H39     :  59.756098
 C12     -C10     -C11     -H40     : -57.847901
 C12     -C10     -C13     -H44     : 171.000437
 C12     -C10     -C13     -H45     :  53.942051
 C12     -C10     -C13     -H46     : -64.743467
 C13     -C10     -P1      -C14     : -98.343389
 C13     -C10     -C11     -H38     : -67.371767
 C13     -C10     -C11     -H39     : 169.359648
 C13     -C10     -C11     -H40     :  51.755650
 C13     -C10     -C12     -H41     :-175.241344
 C13     -C10     -C12     -H42     :  62.833056
 C13     -C10     -C12     -H43     : -56.165499
 C14     -C15     -C17     -C18     :-160.235098
 C14     -C15     -C17     -C22     :  16.168980
 C14     -C15     -C23     -C24     :-149.696363
 C14     -C15     -C23     -C28     :  29.285990
 C15     -C14     -C16     -H47     :  24.907935
 C15     -C14     -C16     -H48     :-102.488509
 C15     -C14     -C16     -H49     : 138.441351
 C15     -C17     -C18     -C19     : 178.726145
 C15     -C17     -C18     -H50     :   2.308983
 C15     -C17     -C22     -C21     :-178.439997
 C15     -C17     -C22     -H54     :   2.536328
 C15     -C23     -C24     -C25     : 179.109877
 C15     -C23     -C24     -H55     :   2.957507
 C15     -C23     -C28     -C27     :-179.550474
 C15     -C23     -C28     -H59     :   3.728784
 C16     -C14     -C15     -C17     :-168.909534
 C16     -C14     -C15     -C23     :  12.226189
 C17     -C15     -C23     -C24     :  31.347763
 C17     -C15     -C23     -C28     :-149.669883
 C17     -C18     -C19     -C20     :  -0.866591
 C17     -C18     -C19     -H51     :-179.597121
 C17     -C22     -C21     -C20     :   0.617818
 C17     -C22     -C21     -H53     :-179.415086
 C18     -C17     -C15     -C23     :  18.659704
 C18     -C17     -C22     -C21     :  -1.758124
 C18     -C17     -C22     -H54     : 179.218201
 C18     -C19     -C20     -C21     :  -0.456317
 C18     -C19     -C20     -H52     :-179.853482
 C19     -C18     -C17     -C22     :   1.877878
 C19     -C20     -C21     -C22     :   0.577604
 C19     -C20     -C21     -H53     :-179.389480
 C20     -C19     -C18     -H50     : 175.812513
 C20     -C21     -C22     -H54     : 179.702229
 C21     -C20     -C19     -H51     : 178.288383
 C22     -C17     -C15     -C23     :-164.936218
 C22     -C17     -C18     -H50     :-174.539284
 C22     -C21     -C20     -H52     : 179.975530
 C23     -C24     -C25     -C26     :   0.421801
 C23     -C24     -C25     -H56     :-179.740833
 C23     -C28     -C27     -C26     :   0.549223
 C23     -C28     -C27     -H58     :-179.299700
 C24     -C23     -C28     -C27     :  -0.501907
 C24     -C23     -C28     -H59     :-177.222650
 C24     -C25     -C26     -C27     :  -0.381911
 C24     -C25     -C26     -H57     : 179.230315
 C25     -C24     -C23     -C28     :   0.016620
 C25     -C26     -C27     -C28     :  -0.075670
 C25     -C26     -C27     -H58     : 179.775393
 C26     -C25     -C24     -H55     : 176.785067
 C26     -C27     -C28     -H59     : 177.490866
 C27     -C26     -C25     -H56     : 179.779681
 C28     -C23     -C24     -H55     :-176.135750
 C28     -C27     -C26     -H57     :-179.688441
 H50     -C18     -C19     -H51     :  -2.918018
 H51     -C19     -C20     -H52     :  -1.108782
 H52     -C20     -C21     -H53     :   0.008447
 H53     -C21     -C22     -H54     :  -0.330674
 H55     -C24     -C25     -H56     :  -3.377567
 H56     -C25     -C26     -H57     :  -0.608094
 H57     -C26     -C27     -H58     :   0.162623
 H58     -C27     -C28     -H59     :  -2.358057
 
  nuclear repulsion energy.......          4002.935313449 hartrees
  
  Detected an organometallic with only one TM atom. 
  
  Formal charge on ligand        1 is    -1
  Formal multiplet on ligand     1 is     1
  Oxidation state on metal       2 is     2
  Formal multiplet on metal      2 is     1
  Formal charge on ligand        3 is    -1
  Formal multiplet on ligand     3 is     1
  
 
  Will use High-Quality Initial guess for organometallics
       including d-d repulsion (iguess=30)
 
 Non-default options chosen:
   SCF calculation type: DFT(b3pw91-d3)              
   DFT=Becke_3_Parameter/HF+Slater+Becke88+PW91+PW-GGAIIC (B3PW91-D3)
   Geometry will be optimized in redundant internal coordinates
   Solvation energy will be computed using PBF
     -solute cavity energy will not be included
     -surface area terms will not be included
   Vibrational frequencies and related properties will be computed
      from analytic second derivatives
   IR intensities will be computed
   Thermochemical properties will be computed
   Maximum number of geometry steps: 100
   Scaling standard convergence criteria by a factor of   5.00
   Solvent: benzene                                                         
   Internal dielectric constant:    1.000
   Continuum dielectric constant:   2.283
   Solvent probe molecule radius:   2.600
  
 Non-default print settings:
     11=  2
  
 Temporary integer options set:
     21= -1  73=  2
  
  atom       vdw   vdw2    cov     mass  grid  daf  charge   basis
  P1        2.147  2.074  1.060   30.974    Y    Y      Y    ps_6-31g*
  Pd2       1.450  1.450  1.280  105.903    Y    Y      Y    lacv3p*
  Br3       2.095  2.095  1.140   78.918    Y    Y      Y    lav3p*
  C73       1.949  1.900  0.770   12.000    Y    Y      Y    ps_6-31g*
  C74       1.949  1.900  0.770   12.000    Y    Y      Y    ps_6-31g*
  C75       1.949  1.900  0.770   12.000    Y    Y      Y    ps_6-31g*
  C76       1.949  1.900  0.770   12.000    Y    Y      Y    ps_6-31g*
  C77       1.949  1.900  0.770   12.000    Y    Y      Y    ps_6-31g*
  C78       1.949  1.900  0.770   12.000    Y    Y      Y    ps_6-31g*
  F79       1.736  1.682  0.720   18.998    Y    Y      Y    ps_6-31g*
  H80       1.597  1.150  0.320    1.008    Y    Y      Y    ps_6-31g*
  H81       1.597  1.150  0.320    1.008    Y    Y      Y    ps_6-31g*
  H82       1.597  1.150  0.320    1.008    Y    Y      Y    ps_6-31g*
  H83       1.597  1.150  0.320    1.008    Y    Y      Y    ps_6-31g*
  C6        1.949  1.900  0.770   12.000    Y    Y      Y    ps_6-31g*
  C7        1.949  1.900  0.770   12.000    Y    Y      Y    ps_6-31g*
  C8        1.949  1.900  0.770   12.000    Y    Y      Y    ps_6-31g*
  C9        1.949  1.900  0.770   12.000    Y    Y      Y    ps_6-31g*
  C10       1.949  1.900  0.770   12.000    Y    Y      Y    ps_6-31g*
  C11       1.949  1.900  0.770   12.000    Y    Y      Y    ps_6-31g*
  C12       1.949  1.900  0.770   12.000    Y    Y      Y    ps_6-31g*
  C13       1.949  1.900  0.770   12.000    Y    Y      Y    ps_6-31g*
  C14       1.949  1.900  0.770   12.000    Y    Y      Y    ps_6-31g*
  C15       1.949  1.900  0.770   12.000    Y    Y      Y    ps_6-31g*
  C16       1.949  1.900  0.770   12.000    Y    Y      Y    ps_6-31g*
  C17       1.949  1.900  0.770   12.000    Y    Y      Y    ps_6-31g*
  C18       1.949  1.900  0.770   12.000    Y    Y      Y    ps_6-31g*
  C19       1.949  1.900  0.770   12.000    Y    Y      Y    ps_6-31g*
  C20       1.949  1.900  0.770   12.000    Y    Y      Y    ps_6-31g*
  C21       1.949  1.900  0.770   12.000    Y    Y      Y    ps_6-31g*
  C22       1.949  1.900  0.770   12.000    Y    Y      Y    ps_6-31g*
  C23       1.949  1.900  0.770   12.000    Y    Y      Y    ps_6-31g*
  C24       1.949  1.900  0.770   12.000    Y    Y      Y    ps_6-31g*
  C25       1.949  1.900  0.770   12.000    Y    Y      Y    ps_6-31g*
  C26       1.949  1.900  0.770   12.000    Y    Y      Y    ps_6-31g*
  C27       1.949  1.900  0.770   12.000    Y    Y      Y    ps_6-31g*
  C28       1.949  1.900  0.770   12.000    Y    Y      Y    ps_6-31g*
  H29       1.597  1.150  0.320    1.008    Y    Y      Y    ps_6-31g*
  H30       1.597  1.150  0.320    1.008    Y    Y      Y    ps_6-31g*
  H31       1.597  1.150  0.320    1.008    Y    Y      Y    ps_6-31g*
  H32       1.597  1.150  0.320    1.008    Y    Y      Y    ps_6-31g*
  H33       1.597  1.150  0.320    1.008    Y    Y      Y    ps_6-31g*
  H34       1.597  1.150  0.320    1.008    Y    Y      Y    ps_6-31g*
  H35       1.597  1.150  0.320    1.008    Y    Y      Y    ps_6-31g*
  H36       1.597  1.150  0.320    1.008    Y    Y      Y    ps_6-31g*
  H37       1.597  1.150  0.320    1.008    Y    Y      Y    ps_6-31g*
  H38       1.597  1.150  0.320    1.008    Y    Y      Y    ps_6-31g*
  H39       1.597  1.150  0.320    1.008    Y    Y      Y    ps_6-31g*
  H40       1.597  1.150  0.320    1.008    Y    Y      Y    ps_6-31g*
  H41       1.597  1.150  0.320    1.008    Y    Y      Y    ps_6-31g*
  H42       1.597  1.150  0.320    1.008    Y    Y      Y    ps_6-31g*
  H43       1.597  1.150  0.320    1.008    Y    Y      Y    ps_6-31g*
  H44       1.597  1.150  0.320    1.008    Y    Y      Y    ps_6-31g*
  H45       1.597  1.150  0.320    1.008    Y    Y      Y    ps_6-31g*
  H46       1.597  1.150  0.320    1.008    Y    Y      Y    ps_6-31g*
  H47       1.597  1.150  0.320    1.008    Y    Y      Y    ps_6-31g*
  H48       1.597  1.150  0.320    1.008    Y    Y      Y    ps_6-31g*
  H49       1.597  1.150  0.320    1.008    Y    Y      Y    ps_6-31g*
  H50       1.597  1.150  0.320    1.008    Y    Y      Y    ps_6-31g*
  H51       1.597  1.150  0.320    1.008    Y    Y      Y    ps_6-31g*
  H52       1.597  1.150  0.320    1.008    Y    Y      Y    ps_6-31g*
  H53       1.597  1.150  0.320    1.008    Y    Y      Y    ps_6-31g*
  H54       1.597  1.150  0.320    1.008    Y    Y      Y    ps_6-31g*
  H55       1.597  1.150  0.320    1.008    Y    Y      Y    ps_6-31g*
  H56       1.597  1.150  0.320    1.008    Y    Y      Y    ps_6-31g*
  H57       1.597  1.150  0.320    1.008    Y    Y      Y    ps_6-31g*
  H58       1.597  1.150  0.320    1.008    Y    Y      Y    ps_6-31g*
  H59       1.597  1.150  0.320    1.008    Y    Y      Y    ps_6-31g*
 
  atom      formal  2spin      esp    mulk    frag
  P1          -1       0        Y    0.000       0
  Pd2          2       0        Y    0.000       0
  C73         -1       0        Y    0.000       0
  
  end of program pre
   
 Time(pre)  user:       1.024  user+sys:       1.024  wallclock:       1.234
  
  start of program onee
  
  smallest eigenvalue of S:    4.225E-04
  number of canonical orbitals.....          546
  end of program onee
   
 Time(onee)  user:       6.545  user+sys:       6.545  wallclock:       5.029
  
  start of program hfig
  
  initial wavefunction generated automatically from atomic wavefunctions
  Only one state below 0.010000
  Skip d-d repulsion considerations 
 
  Irreducible     Total no   No of occupied orbitals 
  representation  orbitals   Shell_1  Shell_2    ...
  No Symm          546        129
  ------------------------
  Orbital occupation/shell    1.000
 
  end of program hfig
   
 Time(hfig)  user:       0.974  user+sys:       0.974  wallclock:       1.147
  
  start of program probe
  
  end of program probe
   
 Time(probe)  user:       0.456  user+sys:       0.456  wallclock:       0.444
  
  start of program grid
  
   grid     grid set  grid #  grid sym
  ------    --------  ------  --------
  coarse        0        0        1
  medium        2        1        1
  fine          0        0        1
  ultrafine     4        2        1
  charge       -1        3        1
  gradient      4        2        1
  density       0        0        1
  DFT-fine    -11        4        1
  DFT-med.    -10        5        1
  DFT-grad    -12        6        1
  DFT-der2     -8        7        1
  DFT-cphf     -9        8        1
  LMP2-enrg     4        2        1
  LMP2-grad     2        1        1
  DFT-cphf2   -15        9        1
  PBF-dens      0        0        1
  plotting      0        0        1
  Rel-grad    -17        0        1
  
  number of gridpoints: 
     atom           P1         Pd2         Br3         C73         C74         C75         C76
  grid # 1         611         356         456          80          94          96         100
  grid # 2         427         318         378         337         323         325         400
  grid # 3           8         249         253          46          43          30          16
  grid # 4        8714        8714        8714        8714        8714        8714        8714
  grid # 5        1192        1192        1192        1192        1192        1192        1192
  grid # 6        9132        9132        9132        5922        5922        5922        5922
  grid # 7       23034       32968       11582       13950       13950       13950       13950
  grid # 8         722        1150         694         748         748         748         748
  grid # 9         366        2198         358         394         394         394         394
   
  number of gridpoints: 
     atom          C77         C78         F79         H80         H81         H82         H83
  grid # 1          96          94         584         115         117         117         114
  grid # 2         324         323         566         464         465         462         464
  grid # 3          28          40         361         413         315         283         393
  grid # 4        8714        8714        8714        8714        8714        8714        8714
  grid # 5        1192        1192        1192        1192        1192        1192        1192
  grid # 6        5922        5922        5922        5922        5922        5922        5922
  grid # 7       13950       13950       23190       15206       15206       15206       15206
  grid # 8         748         748         770         786         786         786         786
  grid # 9         394         394         420         420         420         420         420
   
  number of gridpoints: 
     atom           C6          C7          C8          C9         C10         C11         C12
  grid # 1          82          88          80          82          88          80          82
  grid # 2         245         367         244         240         371         247         246
  grid # 3           6           6           6           6           6           6           6
  grid # 4        8714        8714        8714        8714        8714        8714        8714
  grid # 5        1192        1192        1192        1192        1192        1192        1192
  grid # 6        5922        5922        5922        5922        5922        5922        5922
  grid # 7       13950       13950       13950       13950       13950       13950       13950
  grid # 8         748         748         748         748         748         748         748
  grid # 9         394         394         394         394         394         394         394
   
  number of gridpoints: 
     atom          C13         C14         C15         C16         C17         C18         C19
  grid # 1          82          87          99          79          97          93          96
  grid # 2         245         389         362         241         364         323         324
  grid # 3           6           9          22           6          16          16          30
  grid # 4        8714        8714        8714        8714        8714        8714        8714
  grid # 5        1192        1192        1192        1192        1192        1192        1192
  grid # 6        5922        5922        5922        5922        5922        5922        5922
  grid # 7       13950       13950       13950       13950       13950       13950       13950
  grid # 8         748         748         748         748         748         748         748
  grid # 9         394         394         394         394         394         394         394
   
  number of gridpoints: 
     atom          C20         C21         C22         C23         C24         C25         C26
  grid # 1          96          96          93          97          94          96          97
  grid # 2         322         325         322         361         320         327         325
  grid # 3          36          28          14          20          25          44          52
  grid # 4        8714        8714        8714        8714        8714        8714        8714
  grid # 5        1192        1192        1192        1192        1192        1192        1192
  grid # 6        5922        5922        5922        5922        5922        5922        5922
  grid # 7       13950       13950       13950       13950       13950       13950       13950
  grid # 8         748         748         748         748         748         748         748
  grid # 9         394         394         394         394         394         394         394
   
  number of gridpoints: 
     atom          C27         C28         H29         H30         H31         H32         H33
  grid # 1          96          94         103         104         107          80         107
  grid # 2         327         324         431         430         440         404         445
  grid # 3          45          25         154         170         254          35         247
  grid # 4        8714        8714        8714        8714        8714        8714        8714
  grid # 5        1192        1192        1192        1192        1192        1192        1192
  grid # 6        5922        5922        5922        5922        5922        5922        5922
  grid # 7       13950       13950       15206       15206       15206       15206       15206
  grid # 8         748         748         786         786         786         786         786
  grid # 9         394         394         420         420         420         420         420
   
  number of gridpoints: 
     atom          H34         H35         H36         H37         H38         H39         H40
  grid # 1         105         101         107         103         106         104         107
  grid # 2         442         428         445         437         440         436         443
  grid # 3         207         145         264         168         205         184         269
  grid # 4        8714        8714        8714        8714        8714        8714        8714
  grid # 5        1192        1192        1192        1192        1192        1192        1192
  grid # 6        5922        5922        5922        5922        5922        5922        5922
  grid # 7       15206       15206       15206       15206       15206       15206       15206
  grid # 8         786         786         786         786         786         786         786
  grid # 9         420         420         420         420         420         420         420
   
  number of gridpoints: 
     atom          H41         H42         H43         H44         H45         H46         H47
  grid # 1         103         104         107         104         107         101         106
  grid # 2         433         432         444         426         443         425         437
  grid # 3         166         174         270         152         262         155         226
  grid # 4        8714        8714        8714        8714        8714        8714        8714
  grid # 5        1192        1192        1192        1192        1192        1192        1192
  grid # 6        5922        5922        5922        5922        5922        5922        5922
  grid # 7       15206       15206       15206       15206       15206       15206       15206
  grid # 8         786         786         786         786         786         786         786
  grid # 9         420         420         420         420         420         420         420
   
  number of gridpoints: 
     atom          H48         H49         H50         H51         H52         H53         H54
  grid # 1         100         100         108         117         117         116          93
  grid # 2         420         417         439         465         468         459         416
  grid # 3         131          92         217         388         397         310          21
  grid # 4        8714        8714        8714        8714        8714        8714        8714
  grid # 5        1192        1192        1192        1192        1192        1192        1192
  grid # 6        5922        5922        5922        5922        5922        5922        5922
  grid # 7       15206       15206       15206       15206       15206       15206       15206
  grid # 8         786         786         786         786         786         786         786
  grid # 9         420         420         420         420         420         420         420
   
  number of gridpoints: 
     atom          H55         H56         H57         H58         H59       total
  grid # 1         109         118         118         118         108        8392
  grid # 2         446         465         467         466         439       26365
  grid # 3         250         416         431         416         206        9896
  grid # 4        8714        8714        8714        8714        8714      592552
  grid # 5        1192        1192        1192        1192        1192       81056
  grid # 6        5922        5922        5922        5922        5922      412326
  grid # 7       15206       15206       15206       15206       15206     1027534
  grid # 8         786         786         786         786         786       52538
  grid # 9         420         420         420         420         420       29468
   
  end of program grid
   
 Time(grid)  user:     227.778  user+sys:     227.778  wallclock:     116.500
  
  start of program rwr
  
  end of program rwr
   
 Time(rwr)  user:      13.233  user+sys:      13.233  wallclock:      17.364
  
  start of program scf
  
 number of electrons..........        258
 number of alpha electrons....        129
 number of beta electrons.....        129
 number of orbitals, total....        546
 number of doubly-occ'd orbs..        129
 number of open shell orbs....          0
 number of occupied orbitals..        129
 number of virtual orbitals...        417
 number of hamiltonians.......          1
 number of shells.............          1
 SCF type: DFT=Becke_3_Parameter/HF+Slater+Becke88+PW91+PW-GGAIIC (B3PW91-D3)
 Energy computed using pseudospectral method.
 Convergence Criterion:
    Energy (econv):       1.00E-05
    RMS density (dconv):  5.00E-06
  
       i  u  d  i  g                   
       t  p  i  c  r                                 RMS    maximum
       e  d  i  u  i                       energy  density   DIIS  
       r  t  s  t  d       total energy    change  change    error 
  
etot    1  N  N  5  M   -1702.49271881502           2.3E-03  2.9E-01
etot    2  Y  Y  6  M   -1705.22743531875  2.7E+00  3.7E-03  1.6E-01
etot    3  Y  Y  6  M   -1706.15014961015  9.2E-01  1.4E-03  8.1E-02
etot    4  N  Y  2  U   -1706.43545975740  2.9E-01  1.1E-03  4.6E-02
etot    5  Y  Y  6  M   -1706.48489245415  4.9E-02  6.9E-04  2.3E-02
etot    6  N  Y  2  U   -1706.48946099585  4.6E-03  4.2E-04  7.9E-03
etot    7  Y  Y  6  M   -1706.49345136278  4.0E-03  1.2E-04  3.5E-03
etot    8  Y  Y  6  M   -1706.49636484875  2.9E-03  6.0E-05  9.9E-04
etot    9  N  Y  2  U   -1706.49717850994  8.1E-04  4.8E-05  4.7E-04
etot   10  N  Y  2  U   -1706.49728167395  1.0E-04  4.4E-05  2.2E-04
etot   11  N  Y  2  U   -1706.49732875887  4.7E-05  2.9E-05  2.1E-04
etot   12  N  Y  2  U   -1706.49735926101  3.1E-05  1.7E-05  7.5E-05
etot   13  N  Y  2  U   -1706.49736753991  8.3E-06  1.0E-05  6.0E-05
etot   14  N  Y  2  U   -1706.49737017509  2.6E-06  5.4E-06  5.4E-05
etot   15  N  Y  2  U   -1706.49737109429  9.2E-07  3.6E-06  1.7E-05
etot   16  N  N  2  U   -1706.49737137369  2.8E-07  0.0E+00  0.0E+00
 
  Computing the dispersion energy correction and its gradients...
  
  
 Energy components, in hartrees:
   (A)  Nuclear repulsion............    4002.93531344922
   (E)  Total one-electron terms.....  -10350.46554001401
   (F)    Electron-nuclear...........  -11959.04398792575
   (H)    Kinetic....................    1608.57844791174
   (I)  Total two-electron terms.....    4641.03285519110
   (J)    Coulomb....................    4860.16940126621
   (K)    Exchange+Correlation.......    -219.13654607511
   (L)  Electronic energy............   -5709.43268482291  (E+I)
   (N0) D3 correction................      -0.11746979517
   (N)  Total energy.................   -1706.61484116886  (A+L+N0)
   (O)  Gas phase energy.............   -1706.61484116886
  
 SCFE: SCF energy: DFT(b3pw91-d3)     -1706.61484116886 hartrees   iterations:  16
  
 
 HOMO energy:    -0.12874
 LUMO energy:    -0.09791
 
  Orbital energies (hartrees): 
   -77.07832   -24.66570   -10.23030   -10.22036   -10.21772   -10.21010
   -10.20666   -10.20534   -10.20418   -10.19306   -10.19098   -10.18909
   -10.18860   -10.18809   -10.18774   -10.18763   -10.18701   -10.18688
   -10.18674   -10.17995   -10.17777   -10.17774   -10.17503   -10.16497
   -10.16066   -10.15821   -10.15722   -10.15659   -10.15611   -10.15476
   -10.12036    -6.58007    -4.73825    -4.73758    -4.73433    -3.33422
    -2.07204    -2.05907    -2.03666    -1.19722    -0.88485    -0.86506
    -0.86381    -0.83986    -0.83845    -0.82414    -0.79985    -0.77491
    -0.76393    -0.75462    -0.75098    -0.73530    -0.71911    -0.70341
    -0.69921    -0.69785    -0.68641    -0.67099    -0.65324    -0.62781
    -0.61805    -0.60842    -0.60529    -0.60079    -0.58047    -0.56752
    -0.56052    -0.53935    -0.52216    -0.52059    -0.50500    -0.48653
    -0.47866    -0.47542    -0.46962    -0.46387    -0.46264    -0.46161
    -0.45627    -0.45172    -0.45076    -0.44156    -0.44024    -0.43735
    -0.43346    -0.42955    -0.42830    -0.42288    -0.41764    -0.41358
    -0.40834    -0.40597    -0.40218    -0.39928    -0.39445    -0.38815
    -0.38265    -0.37725    -0.37705    -0.37553    -0.37391    -0.37066
    -0.36313    -0.35666    -0.35184    -0.34812    -0.34621    -0.34228
    -0.34141    -0.33754    -0.32791    -0.32630    -0.32499    -0.32140
    -0.31571    -0.30711    -0.29372    -0.28451    -0.26978    -0.26594
    -0.26238    -0.25945    -0.24402    -0.23833    -0.23654    -0.22839
    -0.22776    -0.21006    -0.12874    -0.09791    -0.06805    -0.02680
    -0.01668    -0.01185     0.00799     0.01347     0.02816     0.03366
     0.04141
 
  end of program scf
   
 Time(scf)  user:     503.897  user+sys:     503.897  wallclock:     270.902
  
  start of program der1a
  
  end of program der1a
   
 Time(der1a)  user:      20.698  user+sys:      20.698  wallclock:      10.963
  
  start of program rwr
  
  end of program rwr
   
 Time(rwr)  user:      14.625  user+sys:      14.625  wallclock:      20.591
  
  start of program der1b
  
   
  forces (hartrees/bohr) : total     
   
 atom  label           x              y              z
 ---- --------   -------------  -------------  -------------
    1 P1         -8.324796E-03   2.176881E-03   1.642851E-02
    2 Pd2        -2.485854E-02   5.907058E-03   3.635006E-03
    3 Br3        -7.178777E-03   1.343882E-01   4.490570E-01
    4 C73        -7.560663E-04  -6.381925E-04   2.273014E-03
    5 C74         8.199449E-04  -9.378277E-04  -1.967941E-03
    6 C75         1.374192E-03  -2.318034E-04  -3.144000E-03
    7 C76        -7.102509E-03  -2.853007E-03   8.411493E-03
    8 C77         8.682994E-04  -8.986700E-04  -2.096279E-03
    9 C78         4.461876E-04   1.150882E-03  -9.920937E-04
   10 F79         9.054624E-04   2.208799E-04  -2.284438E-03
   11 H80        -3.262755E-05  -3.879504E-04  -4.077279E-04
   12 H81         2.627209E-04   3.942056E-04   2.080171E-04
   13 H82        -5.203974E-04  -3.348579E-04  -2.046804E-04
   14 H83         3.729845E-05   6.192742E-04  -4.811916E-04
   15 C6          4.295856E-03  -7.704848E-03  -2.083118E-02
   16 C7          4.829396E-02  -1.342776E-02  -2.518535E-02
   17 C8         -1.142476E-02  -5.152126E-02  -1.541420E-01
   18 C9         -1.411715E-02   2.182048E-02   8.829028E-03
   19 C10        -1.849495E-02   1.961244E-02  -2.236807E-02
   20 C11        -2.322090E-03   6.791357E-03   1.172326E-02
   21 C12        -8.883739E-03  -1.589374E-02   5.618873E-03
   22 C13         1.902785E-02   3.948870E-03  -1.016298E-02
   23 C14         1.314988E-02  -1.457683E-03  -1.810124E-02
   24 C15        -1.114913E-03   1.443722E-03   1.089397E-02
   25 C16         4.068674E-03   1.093527E-03  -2.271090E-02
   26 C17        -2.315344E-03  -1.187341E-02   1.724937E-02
   27 C18        -4.036248E-04  -1.343555E-02   1.262267E-02
   28 C19         1.302817E-03   6.271712E-03  -6.895430E-05
   29 C20        -7.016671E-04   1.216615E-03  -4.557577E-04
   30 C21        -1.274066E-03  -3.445744E-03   2.919619E-03
   31 C22         5.368689E-03   2.120816E-02   4.999321E-04
   32 C23        -1.574008E-02  -1.369267E-02  -5.476538E-03
   33 C24        -1.812317E-02  -2.800265E-04  -8.897433E-03
   34 C25         3.267594E-03   5.181219E-04   7.042822E-04
   35 C26         1.430544E-03   2.896556E-03   1.308485E-03
   36 C27        -6.901859E-03  -2.256554E-04   1.018284E-03
   37 C28         2.251765E-02  -7.136508E-03   3.224469E-03
   38 H29        -6.543183E-04  -3.671181E-03   3.529637E-03
   39 H30        -1.907494E-03   1.393525E-02   4.953734E-03
   40 H31        -9.675384E-03  -3.626820E-04   6.926566E-03
   41 H32         1.207808E-02  -9.523138E-02  -2.805777E-01
   42 H33        -7.772606E-03   4.705569E-03   5.043902E-04
   43 H34         3.816180E-06   4.168931E-03   8.686891E-04
   44 H35         4.848820E-03  -5.642378E-03   4.744947E-03
   45 H36        -7.168608E-03  -7.940204E-03  -2.012512E-03
   46 H37        -9.541954E-04   5.409267E-04  -1.340931E-02
   47 H38        -6.934653E-03  -4.824601E-03   8.812638E-04
   48 H39         8.999957E-03  -8.538411E-05  -3.443305E-03
   49 H40         7.208174E-03  -9.668088E-03   3.462178E-03
   50 H41         9.081766E-03   1.715899E-03  -6.210984E-03
   51 H42        -1.097237E-03   7.540936E-03   5.284493E-03
   52 H43         9.081159E-03   6.758773E-04   4.806374E-03
   53 H44        -7.359421E-03  -1.108973E-02  -1.566282E-03
   54 H45        -1.886497E-03  -4.732904E-03   9.091310E-03
   55 H46         1.344212E-04   7.408032E-03   6.029922E-03
   56 H47         7.174883E-03   4.204011E-04   1.234837E-02
   57 H48        -1.187415E-02   2.891156E-03  -6.443170E-03
   58 H49         3.134427E-03  -2.796868E-03   1.178153E-02
   59 H50         4.054394E-03   8.609427E-03  -3.401278E-03
   60 H51         6.153545E-03   4.184362E-03  -7.285544E-03
   61 H52         6.413107E-03  -3.543586E-03  -7.732655E-03
   62 H53         3.173399E-03  -9.876711E-03  -2.933914E-03
   63 H54        -3.407890E-03  -2.802014E-03  -4.131428E-03
   64 H55         1.154307E-02  -2.887087E-03  -3.989830E-03
   65 H56         1.047156E-02   6.508772E-03  -5.309911E-04
   66 H57         1.197201E-03   7.052244E-03   1.444424E-03
   67 H58        -6.063736E-03   8.997532E-03   4.207243E-03
   68 H59        -1.354311E-02   3.890521E-04   4.539237E-03
 -------------   -------------  -------------  -------------
     total        1.298974E-03  -1.086302E-04  -1.618199E-03
   
  end of program der1b
   
 Time(der1b)  user:     111.926  user+sys:     111.926  wallclock:      59.654
  
  start of program geopt
  
 ----------------------------------------------------------------------------
  Geometry optimization step  1
  Total energy:     -1706.61484116886 hartrees
 ----------------------------------------------------------------------------
  
  
  Level shifts adjusted to satisfy step-size constraints
   Step size:    0.3000329
   Cos(theta):   0.9975790
   Final level shift:  -1.3143077E+00
  
  gradient maximum:        4.5431E-01 .  (  2.2500E-03 )
  gradient rms:            3.4605E-02 .  (  1.5000E-03 )
  displacement maximum:    2.5680E-01 .  (  9.0000E-03 )
  displacement rms:        1.9697E-02 .  (  6.0000E-03 )
  
  predicted energy change:  -1.3803E-01
  step size:     0.30002
  trust radius:  0.30000
  
  molecular structure not yet converged...
  
  center of mass moved by:
     x:    -4.1167E-02     y:    -1.4986E-02     z:     2.2362E-02
  
  new geometry: 
                                   angstroms
  atom               x                 y                 z
  P1            0.0248400811      0.0110260829     -0.0236952668 
  Pd2          -0.0302664769     -0.0096438640      2.3747901353 
  Br3           2.3860502529      0.0033611542      3.0294036686 
  C73          -1.4659356685     -0.2108177080      6.9121272625 
  C74          -1.2168429380      1.0298226756      6.3417810848 
  C75          -0.6884152361      1.0773656467      5.0488251811 
  C76          -0.4338041099     -0.0980142726      4.3308153607 
  C77          -0.6716054462     -1.3304597002      4.9507415951 
  C78          -1.1961088983     -1.3968087249      6.2436131488 
  F79          -1.9799724030     -0.2662045672      8.1625169043 
  H80          -1.4263024496      1.9335373569      6.9081008949 
  H81          -0.4761984598      2.0480474662      4.6032912278 
  H82          -0.4493033498     -2.2577693674      4.4266311045 
  H83          -1.3909595512     -2.3466159348      6.7353073177 
  C6            2.4435642571      0.0066105766     -1.7320853721 
  C7            1.8550052692      0.2932649509     -0.3267202068 
  C8            2.6624676569     -0.6190753286      0.6337066402 
  C9            2.1887728847      1.7611446725      0.0003489035 
  C10          -1.0095755071      1.0812008914     -1.2385283635 
  C11          -1.4532356183      2.4092198428     -0.5813122569 
  C12          -2.2855126825      0.3494198521     -1.7367805905 
  C13          -0.2618202077      1.4811341801     -2.5241682451 
  C14          -0.5717311905     -1.6942997861     -0.3992363161 
  C15          -1.5476969379     -2.3921161663      0.2604577858 
  C16           0.1320804407     -2.2273029389     -1.6252031538 
  C17          -2.4002155106     -1.8092028298      1.3544643911 
  C18          -3.0998576176     -2.6339502566      2.2699238088 
  C19          -3.8832207618     -2.1455229340      3.3205306914 
  C20          -4.0034190787     -0.7682572666      3.5386889938 
  C21          -3.3062783204      0.0873431027      2.6865531600 
  C22          -2.5321852681     -0.4363926274      1.6373507798 
  C23          -1.8228508126     -3.8204283357     -0.1029122498 
  C24          -3.1269182060     -4.3677458835     -0.0256421379 
  C25          -3.4317361097     -5.6922047747     -0.3716374505 
  C26          -2.4213972562     -6.5542991561     -0.8120332695 
  C27          -1.1181251898     -6.0525983096     -0.9027248040 
  C28          -0.8441910455     -4.7236544131     -0.5613574825 
  H29           2.0045361458      0.6063534214     -2.5439901071 
  H30           2.3759103532     -1.0640310018     -2.0224847181 
  H31           3.5276711096      0.2416568936     -1.7663578521 
  H32           2.4496794193     -0.3862093483      1.7471844986 
  H33           3.7531929308     -0.4893486302      0.5007852707 
  H34           2.4360106295     -1.6881840494      0.4403064232 
  H35           1.6114511176      2.4786269920     -0.6159536850 
  H36           3.2593245531      1.9850878637     -0.1630914654 
  H37           1.9887067676      2.0034273655      1.0645612295 
  H38          -0.5870605637      3.0011692760     -0.2337307647 
  H39          -2.1468114557      2.2551600150      0.2686863011 
  H40          -2.0093394434      3.0485534927     -1.3014414220 
  H41          -2.9821289653      0.0534015277     -0.9280653709 
  H42          -2.0442651295     -0.5669416818     -2.3082763060 
  H43          -2.8755368713      0.9951155936     -2.4139366269 
  H44           0.6046419705      2.1465311241     -2.3194603470 
  H45          -0.9063589495      2.0664309032     -3.2078155607 
  H46           0.0787517931      0.6077344489     -3.1104189796 
  H47          -0.4594868472     -2.9615490795     -2.2072834394 
  H48           1.1399158954     -2.6295940766     -1.3834933391 
  H49           0.2833714058     -1.4187755803     -2.3695819611 
  H50          -3.0143382639     -3.7231527058      2.2377479218 
  H51          -4.3933583692     -2.8437390533      3.9976857955 
  H52          -4.6140666036     -0.3728340070      4.3621697011 
  H53          -3.3631019414      1.1745935600      2.8292247372 
  H54          -2.0375192273      0.3094651176      1.0234577173 
  H55          -3.9839995001     -3.7411678151      0.2573190770 
  H56          -4.4674930802     -6.0584508996     -0.2946635553 
  H57          -2.6429518793     -7.5947260886     -1.0739237991 
  H58          -0.3071923861     -6.7132105927     -1.2424963330 
  H59           0.2145443511     -4.4378523100     -0.6207625705 
   
 
  bond lengths (angstroms):
 
 P1      -Pd2     :   2.399207      P1      -C7      :   1.876429
 P1      -C10     :   1.921226      P1      -C14     :   1.845282
 Pd2     -Br3     :   2.503453      Pd2     -C76     :   1.999171
 Br3     -H32     :   1.341603      C73     -C74     :   1.387995
 C73     -C78     :   1.387909      C73     -F79     :   1.353062
 C74     -C75     :   1.397580      C74     -H80     :   1.086872
 C75     -C76     :   1.400672      C75     -H81     :   1.088926
 C76     -C77     :   1.399921      C77     -C78     :   1.396790
 C77     -H82     :   1.088124      C78     -H83     :   1.087136
 C6      -C7      :   1.550362      C6      -H29     :   1.100739
 C6      -H30     :   1.111388      C6      -H31     :   1.109824
 C7      -C8      :   1.551380      C7      -C9      :   1.540469
 C8      -H32     :   1.157298      C8      -H33     :   1.106426
 C8      -H34     :   1.109811      C9      -H35     :   1.108111
 C9      -H36     :   1.105868      C9      -H37     :   1.109628
 C10     -C11     :   1.546739      C10     -C12     :   1.552989
 C10     -C13     :   1.540115      C11     -H38     :   1.105204
 C11     -H39     :   1.107826      C11     -H40     :   1.112018
 C12     -H41     :   1.107665      C12     -H42     :   1.106583
 C12     -H43     :   1.106161      C13     -H44     :   1.111492
 C13     -H45     :   1.106967      C13     -H46     :   1.105670
 C14     -C15     :   1.369180      C14     -C16     :   1.510774
 C15     -C17     :   1.504469      C15     -C23     :   1.499274
 C16     -H47     :   1.108100      C16     -H48     :   1.111753
 C16     -H49     :   1.109372      C17     -C18     :   1.416959
 C17     -C22     :   1.407852      C18     -C19     :   1.398569
 C18     -H50     :   1.093028      C19     -C20     :   1.399608
 C19     -H51     :   1.098310      C20     -C21     :   1.394343
 C20     -H52     :   1.098804      C21     -C22     :   1.405114
 C21     -H53     :   1.098043      C22     -H54     :   1.085294
 C23     -C24     :   1.416375      C23     -C28     :   1.408462
 C24     -C25     :   1.402433      C24     -H55     :   1.098752
 C25     -C26     :   1.399264      C25     -H56     :   1.101296
 C26     -C27     :   1.399445      C26     -H57     :   1.095519
 C27     -C28     :   1.399165      C27     -H58     :   1.099757
 C28     -H59     :   1.098241
 
  bond angles:
 
 C7      -P1      -Pd2     : 100.669282  C10     -P1      -Pd2     : 128.650182
 C10     -P1      -C7      : 109.830684  C14     -P1      -Pd2     : 100.839905
 C14     -P1      -C7      : 114.927024  C14     -P1      -C10     : 102.241095
 Br3     -Pd2     -P1      : 103.838836  C76     -Pd2     -P1      : 169.464119
 C76     -Pd2     -Br3     :  86.515151  H32     -Br3     -Pd2     :  78.132941
 C78     -C73     -C74     : 122.071906  F79     -C73     -C74     : 118.979759
 F79     -C73     -C78     : 118.946944  C75     -C74     -C73     : 118.581853
 H80     -C74     -C73     : 119.637750  H80     -C74     -C75     : 121.777990
 C76     -C75     -C74     : 120.959157  H81     -C75     -C74     : 118.850866
 H81     -C75     -C76     : 120.189965  C75     -C76     -Pd2     : 120.076335
 C77     -C76     -Pd2     : 120.429362  C77     -C76     -C75     : 118.743132
 C78     -C77     -C76     : 121.030106  H82     -C77     -C76     : 120.149570
 H82     -C77     -C78     : 118.820290  C77     -C78     -C73     : 118.570983
 H83     -C78     -C73     : 119.595651  H83     -C78     -C77     : 121.832570
 H29     -C6      -C7      : 114.611377  H30     -C6      -C7      : 113.070543
 H30     -C6      -H29     : 107.930865  H31     -C6      -C7      : 111.079589
 H31     -C6      -H29     : 104.562463  H31     -C6      -H30     : 104.798250
 C6      -C7      -P1      : 119.264571  C8      -C7      -P1      : 108.615580
 C8      -C7      -C6      : 104.765173  C9      -C7      -P1      : 108.684815
 C9      -C7      -C6      : 106.642018  C9      -C7      -C8      : 108.430830
 H32     -C8      -C7      : 112.433327  H33     -C8      -C7      : 111.701360
 H33     -C8      -H32     : 105.857875  H34     -C8      -C7      : 110.635891
 H34     -C8      -H32     : 108.904005  H34     -C8      -H33     : 107.047687
 H35     -C9      -C7      : 112.706075  H36     -C9      -C7      : 111.797645
 H36     -C9      -H35     : 106.920287  H37     -C9      -C7      : 111.877282
 H37     -C9      -H35     : 107.343496  H37     -C9      -H36     : 105.787529
 C11     -C10     -P1      : 111.347260  C12     -C10     -P1      : 112.504540
 C12     -C10     -C11     : 107.772319  C13     -C10     -P1      : 114.272661
 C13     -C10     -C11     : 105.724010  C13     -C10     -C12     : 104.681324
 H38     -C11     -C10     : 111.635108  H39     -C11     -C10     : 112.717877
 H39     -C11     -H38     : 108.895734  H40     -C11     -C10     : 111.217605
 H40     -C11     -H38     : 106.717787  H40     -C11     -H39     : 105.291939
 H41     -C12     -C10     : 114.103963  H42     -C12     -C10     : 112.134644
 H42     -C12     -H41     : 107.029705  H43     -C12     -C10     : 111.074902
 H43     -C12     -H41     : 105.514967  H43     -C12     -H42     : 106.470191
 H44     -C13     -C10     : 112.346041  H45     -C13     -C10     : 111.724649
 H45     -C13     -H44     : 104.543193  H46     -C13     -C10     : 112.770284
 H46     -C13     -H44     : 109.294631  H46     -C13     -H45     : 105.637879
 C15     -C14     -P1      : 127.113557  C16     -C14     -P1      : 109.912237
 C16     -C14     -C15     : 122.905048  C17     -C15     -C14     : 123.835669
 C23     -C15     -C14     : 119.972267  C23     -C15     -C17     : 116.190717
 H47     -C16     -C14     : 114.288844  H48     -C16     -C14     : 111.934845
 H48     -C16     -H47     : 111.001531  H49     -C16     -C14     : 110.542543
 H49     -C16     -H47     : 101.727761  H49     -C16     -H48     : 106.617346
 C18     -C17     -C15     : 121.606386  C22     -C17     -C15     : 125.242768
 C22     -C17     -C18     : 113.045608  C19     -C18     -C17     : 123.960669
 H50     -C18     -C17     : 121.491096  H50     -C18     -C19     : 114.453135
 C20     -C19     -C18     : 120.587421  H51     -C19     -C18     : 120.085662
 H51     -C19     -C20     : 119.312999  C21     -C20     -C19     : 117.751034
 H52     -C20     -C19     : 121.242691  H52     -C20     -C21     : 121.000239
 C22     -C21     -C20     : 120.202849  H53     -C21     -C20     : 120.153009
 H53     -C21     -C22     : 119.643554  C21     -C22     -C17     : 124.411864
 H54     -C22     -C17     : 120.914036  H54     -C22     -C21     : 114.664937
 C24     -C23     -C15     : 121.593015  C28     -C23     -C15     : 124.215003
 C28     -C23     -C24     : 114.185870  C25     -C24     -C23     : 123.476336
 H55     -C24     -C23     : 120.789498  H55     -C24     -C25     : 115.629459
 C26     -C25     -C24     : 120.169630  H56     -C25     -C24     : 120.082084
 H56     -C25     -C26     : 119.748028  C27     -C26     -C25     : 118.161075
 H57     -C26     -C25     : 120.953106  H57     -C26     -C27     : 120.885116
 C28     -C27     -C26     : 120.465903  H58     -C27     -C26     : 119.431008
 H58     -C27     -C28     : 120.102836  C27     -C28     -C23     : 123.536989
 H59     -C28     -C23     : 121.370433  H59     -C28     -C27     : 115.006420
 C8      -H32     -Br3     : 170.643849
 
  torsional angles:
 
 P1      -Pd2     -Br3     -H32     : -17.777087
 P1      -Pd2     -C76     -C75     : -96.060219
 P1      -Pd2     -C76     -C77     :  73.887948
 P1      -C7      -C6      -H29     :  60.418632
 P1      -C7      -C6      -H30     : -63.857203
 P1      -C7      -C6      -H31     : 178.645459
 P1      -C7      -C8      -H32     : -60.881562
 P1      -C7      -C8      -H33     :-179.729016
 P1      -C7      -C8      -H34     :  61.124911
 P1      -C7      -C9      -H35     : -59.417828
 P1      -C7      -C9      -H36     :-179.890577
 P1      -C7      -C9      -H37     :  61.662429
 P1      -C10     -C11     -H38     :  58.163219
 P1      -C10     -C11     -H39     : -64.776439
 P1      -C10     -C11     -H40     : 177.237781
 P1      -C10     -C12     -H41     :  59.482223
 P1      -C10     -C12     -H42     : -62.412329
 P1      -C10     -C12     -H43     : 178.590515
 P1      -C10     -C13     -H44     : -64.799130
 P1      -C10     -C13     -H45     : 178.068673
 P1      -C10     -C13     -H46     :  59.256469
 P1      -C14     -C15     -C17     :   5.931284
 P1      -C14     -C15     -C23     :-174.507417
 P1      -C14     -C16     -H47     :-151.308337
 P1      -C14     -C16     -H48     :  81.418479
 P1      -C14     -C16     -H49     : -37.275888
 Pd2     -P1      -C7      -C6      : 163.698318
 Pd2     -P1      -C7      -C8      :  43.895007
 Pd2     -P1      -C7      -C9      : -73.885751
 Pd2     -P1      -C10     -C11     :  26.437633
 Pd2     -P1      -C10     -C12     : -94.670711
 Pd2     -P1      -C10     -C13     : 146.135514
 Pd2     -P1      -C14     -C15     :  38.150209
 Pd2     -P1      -C14     -C16     :-144.828488
 Pd2     -Br3     -H32     -C8      : 143.411252
 Pd2     -C76     -C75     -C74     : 167.754292
 Pd2     -C76     -C75     -H81     : -12.205612
 Pd2     -C76     -C77     -C78     :-167.897068
 Pd2     -C76     -C77     -H82     :  12.034764
 Br3     -Pd2     -P1      -C7      :  -8.282301
 Br3     -Pd2     -P1      -C10     :-134.630445
 Br3     -Pd2     -P1      -C14     : 109.930279
 Br3     -Pd2     -C76     -C75     :  94.482878
 Br3     -Pd2     -C76     -C77     : -95.568954
 Br3     -H32     -C8      -C7      : -97.530785
 Br3     -H32     -C8      -H33     :  24.687402
 Br3     -H32     -C8      -H34     : 139.485393
 C73     -C74     -C75     -C76     :   1.019209
 C73     -C74     -C75     -H81     :-179.020359
 C73     -C78     -C77     -C76     :  -0.666370
 C73     -C78     -C77     -H82     : 179.400910
 C74     -C73     -C78     -C77     :  -0.737543
 C74     -C73     -C78     -H83     : 178.943928
 C74     -C75     -C76     -C77     :  -2.362142
 C75     -C74     -C73     -C78     :   0.562921
 C75     -C74     -C73     -F79     :-179.870833
 C75     -C76     -C77     -C78     :   2.183425
 C75     -C76     -C77     -H82     :-177.884743
 C76     -Pd2     -P1      -C7      :-177.440569
 C76     -Pd2     -P1      -C10     :  56.211287
 C76     -Pd2     -P1      -C14     : -59.227989
 C76     -Pd2     -Br3     -H32     : 160.248257
 C76     -C75     -C74     -H80     :-179.547437
 C76     -C77     -C78     -H83     : 179.659635
 C77     -C76     -C75     -H81     : 177.677953
 C77     -C78     -C73     -F79     : 179.696074
 C78     -C73     -C74     -H80     :-178.882868
 F79     -C73     -C74     -H80     :   0.683378
 F79     -C73     -C78     -H83     :  -0.622456
 H80     -C74     -C75     -H81     :   0.412994
 H82     -C77     -C78     -H83     :  -0.273085
 C6      -C7      -P1      -C10     : -58.266405
 C6      -C7      -P1      -C14     :  56.325300
 C6      -C7      -C8      -H32     : 170.639738
 C6      -C7      -C8      -H33     :  51.792284
 C6      -C7      -C8      -H34     : -67.353788
 C6      -C7      -C9      -H35     :  70.350817
 C6      -C7      -C9      -H36     : -50.121932
 C6      -C7      -C9      -H37     :-168.568926
 C7      -P1      -C10     -C11     : -96.273879
 C7      -P1      -C10     -C12     : 142.617777
 C7      -P1      -C10     -C13     :  23.424003
 C7      -P1      -C14     -C15     : 145.419312
 C7      -P1      -C14     -C16     : -37.559385
 C8      -C7      -P1      -C10     :-178.069716
 C8      -C7      -P1      -C14     : -63.478011
 C8      -C7      -C6      -H29     :-177.838785
 C8      -C7      -C6      -H30     :  57.885380
 C8      -C7      -C6      -H31     : -59.611958
 C8      -C7      -C9      -H35     :-177.315794
 C8      -C7      -C9      -H36     :  62.211458
 C8      -C7      -C9      -H37     : -56.235537
 C9      -C7      -P1      -C10     :  64.149526
 C9      -C7      -P1      -C14     : 178.741231
 C9      -C7      -C6      -H29     : -63.002197
 C9      -C7      -C6      -H30     : 172.721968
 C9      -C7      -C6      -H31     :  55.224630
 C9      -C7      -C8      -H32     :  57.060500
 C9      -C7      -C8      -H33     : -61.786954
 C9      -C7      -C8      -H34     : 179.066973
 C10     -P1      -C14     -C15     : -95.658175
 C10     -P1      -C14     -C16     :  81.363128
 C11     -C10     -P1      -C14     : 141.267064
 C11     -C10     -C12     -H41     : -63.649782
 C11     -C10     -C12     -H42     : 174.455666
 C11     -C10     -C12     -H43     :  55.458511
 C11     -C10     -C13     -H44     :  58.007271
 C11     -C10     -C13     -H45     : -59.124926
 C11     -C10     -C13     -H46     :-177.937130
 C12     -C10     -P1      -C14     :  20.158720
 C12     -C10     -C11     -H38     :-178.000544
 C12     -C10     -C11     -H39     :  59.059799
 C12     -C10     -C11     -H40     : -58.925981
 C12     -C10     -C13     -H44     : 171.683440
 C12     -C10     -C13     -H45     :  54.551243
 C12     -C10     -C13     -H46     : -64.260961
 C13     -C10     -P1      -C14     : -99.035055
 C13     -C10     -C11     -H38     : -66.486269
 C13     -C10     -C11     -H39     : 170.574074
 C13     -C10     -C11     -H40     :  52.588294
 C13     -C10     -C12     -H41     :-175.870071
 C13     -C10     -C12     -H42     :  62.235376
 C13     -C10     -C12     -H43     : -56.761779
 C14     -C15     -C17     -C18     :-160.801266
 C14     -C15     -C17     -C22     :  15.204496
 C14     -C15     -C23     -C24     :-146.852107
 C14     -C15     -C23     -C28     :  32.195530
 C15     -C14     -C16     -H47     :  25.862566
 C15     -C14     -C16     -H48     :-101.410618
 C15     -C14     -C16     -H49     : 139.895014
 C15     -C17     -C18     -C19     : 178.648696
 C15     -C17     -C18     -H50     :   2.393799
 C15     -C17     -C22     -C21     :-178.239936
 C15     -C17     -C22     -H54     :   2.921117
 C15     -C23     -C24     -C25     : 179.164671
 C15     -C23     -C24     -H55     :   3.050095
 C15     -C23     -C28     -C27     :-179.683521
 C15     -C23     -C28     -H59     :   3.862163
 C16     -C14     -C15     -C17     :-170.732566
 C16     -C14     -C15     -C23     :   8.828732
 C17     -C15     -C23     -C24     :  32.741798
 C17     -C15     -C23     -C28     :-148.210565
 C17     -C18     -C19     -C20     :  -0.952842
 C17     -C18     -C19     -H51     :-179.586491
 C17     -C22     -C21     -C20     :   0.428256
 C17     -C22     -C21     -H53     :-179.293054
 C18     -C17     -C15     -C23     :  19.622249
 C18     -C17     -C22     -C21     :  -1.936301
 C18     -C17     -C22     -H54     : 179.224753
 C18     -C19     -C20     -C21     :  -0.742349
 C18     -C19     -C20     -H52     :-179.857138
 C19     -C18     -C17     -C22     :   2.193157
 C19     -C20     -C21     -C22     :   0.991815
 C19     -C20     -C21     -H53     :-179.288304
 C20     -C19     -C18     -H50     : 175.539249
 C20     -C21     -C22     -H54     : 179.332145
 C21     -C20     -C19     -H51     : 177.901772
 C22     -C17     -C15     -C23     :-164.371989
 C22     -C17     -C18     -H50     :-174.061740
 C22     -C21     -C20     -H52     :-179.891137
 C23     -C24     -C25     -C26     :   0.481314
 C23     -C24     -C25     -H56     :-179.703971
 C23     -C28     -C27     -C26     :   0.612175
 C23     -C28     -C27     -H58     :-179.203877
 C24     -C23     -C28     -C27     :  -0.572789
 C24     -C23     -C28     -H59     :-177.027105
 C24     -C25     -C26     -C27     :  -0.451127
 C24     -C25     -C26     -H57     : 179.246600
 C25     -C24     -C23     -C28     :   0.027986
 C25     -C26     -C27     -C28     :  -0.067873
 C25     -C26     -C27     -H58     : 179.749408
 C26     -C25     -C24     -H55     : 176.779547
 C26     -C27     -C28     -H59     : 177.271902
 C27     -C26     -C25     -H56     : 179.733538
 C28     -C23     -C24     -H55     :-176.086590
 C28     -C27     -C26     -H57     :-179.765814
 H50     -C18     -C19     -H51     :  -3.094401
 H51     -C19     -C20     -H52     :  -1.213018
 H52     -C20     -C21     -H53     :  -0.171256
 H53     -C21     -C22     -H54     :  -0.389165
 H55     -C24     -C25     -H56     :  -3.405739
 H56     -C25     -C26     -H57     :  -0.568735
 H57     -C26     -C27     -H58     :   0.051467
 H58     -C27     -C28     -H59     :  -2.544149
 
  nuclear repulsion energy.......          4029.454750946 hartrees
 -------------------------------------------------
   end of geometry optimization iteration  1
 -------------------------------------------------
   
  end of program geopt
   
 Time(geopt)  user:       0.654  user+sys:       0.654  wallclock:       0.815
  
  start of program onee
  
  smallest eigenvalue of S:    4.161E-04
  number of canonical orbitals.....          546
  end of program onee
   
 Time(onee)  user:       6.761  user+sys:       6.761  wallclock:       5.461
  
  start of program probe
  
  end of program probe
   
 Time(probe)  user:       0.451  user+sys:       0.451  wallclock:       0.442
  
  start of program grid
  
  end of program grid
   
 Time(grid)  user:     234.714  user+sys:     234.714  wallclock:     119.584
  
  start of program rwr
  
  end of program rwr
   
 Time(rwr)  user:      14.055  user+sys:      14.055  wallclock:      19.778
  
  start of program scf
  
 Energy computed using pseudospectral method.
 Convergence Criterion:
    Energy (econv):       1.00E-05
    RMS density (dconv):  5.00E-06
  
       i  u  d  i  g                   
       t  p  i  c  r                                 RMS    maximum
       e  d  i  u  i                       energy  density   DIIS  
       r  t  s  t  d       total energy    change  change    error 
  
etot    1  N  N  2  U   -1706.59600931243           4.9E-04  2.0E-02
etot    2  Y  Y  6  M   -1706.61811325712  2.2E-02  2.0E-04  1.3E-03
etot    3  N  Y  2  U   -1706.61944077566  1.3E-03  1.0E-04  1.5E-03
etot    4  Y  Y  6  M   -1706.62039331418  9.5E-04  6.5E-05  6.2E-04
etot    5  Y  Y  6  M   -1706.62068165385  2.9E-04  6.1E-05  4.7E-04
etot    6  Y  Y  6  M   -1706.62084410980  1.6E-04  5.3E-05  2.7E-04
etot    7  Y  Y  6  M   -1706.62095085012  1.1E-04  4.1E-05  1.8E-04
etot    8  N  Y  2  U   -1706.62109591637  1.5E-04  3.6E-05  1.4E-04
etot    9  N  Y  2  U   -1706.62113614641  4.0E-05  2.4E-05  1.1E-04
etot   10  N  Y  2  U   -1706.62115609361  2.0E-05  2.7E-05  6.8E-05
etot   11  N  Y  2  U   -1706.62116919597  1.3E-05  1.5E-05  6.4E-05
etot   12  N  Y  2  U   -1706.62117525311  6.1E-06  1.1E-05  4.2E-05
etot   13  N  Y  2  U   -1706.62117834124  3.1E-06  9.5E-06  2.9E-05
etot   14  N  Y  2  U   -1706.62117993353  1.6E-06  5.3E-06  1.9E-05
etot   15  N  Y  2  U   -1706.62118058109  6.5E-07  3.2E-06  1.1E-05
etot   16  N  N  2  U   -1706.62118080354  2.2E-07  0.0E+00  0.0E+00
 
  Computing the dispersion energy correction and its gradients...
  
  
 Energy components, in hartrees:
   (A)  Nuclear repulsion............    4029.45475094579
   (E)  Total one-electron terms.....  -10403.41143787058
   (F)    Electron-nuclear...........  -12011.91990087985
   (H)    Kinetic....................    1608.50846300927
   (I)  Total two-electron terms.....    4667.33550612126
   (J)    Coulomb....................    4886.48191411367
   (K)    Exchange+Correlation.......    -219.14640799241
   (L)  Electronic energy............   -5736.07593174932  (E+I)
   (N0) D3 correction................      -0.12037714559
   (N)  Total energy.................   -1706.74155794912  (A+L+N0)
   (O)  Gas phase energy.............   -1706.74155794912
  
 SCFE: SCF energy: DFT(b3pw91-d3)     -1706.74155794912 hartrees   iterations:  16
  
 
 HOMO energy:    -0.13947
 LUMO energy:    -0.09866
 
  Orbital energies (hartrees): 
   -77.07397   -24.67245   -10.23798   -10.21996   -10.21883   -10.21810
   -10.20930   -10.20518   -10.19995   -10.19918   -10.19647   -10.19310
   -10.19307   -10.19303   -10.18966   -10.18902   -10.18866   -10.18792
   -10.18707   -10.17901   -10.17754   -10.17515   -10.17498   -10.16939
   -10.16610   -10.16467   -10.16449   -10.16386   -10.15737   -10.14976
   -10.09156    -6.57629    -4.73445    -4.73363    -4.73063    -3.34478
    -2.08307    -2.06965    -2.04607    -1.20415    -0.89065    -0.87051
    -0.84709    -0.84313    -0.82631    -0.81079    -0.77947    -0.77175
    -0.76853    -0.75865    -0.75535    -0.74327    -0.72772    -0.70607
    -0.70158    -0.69950    -0.67953    -0.66921    -0.64282    -0.63129
    -0.62404    -0.61073    -0.61025    -0.60869    -0.58839    -0.56614
    -0.55794    -0.54222    -0.52785    -0.52269    -0.50615    -0.48785
    -0.48182    -0.47207    -0.47053    -0.46978    -0.46569    -0.45968
    -0.45778    -0.45445    -0.45054    -0.44428    -0.44118    -0.43762
    -0.43212    -0.43001    -0.42922    -0.42513    -0.42153    -0.41588
    -0.41498    -0.40389    -0.40131    -0.39747    -0.39540    -0.38722
    -0.38161    -0.38054    -0.37910    -0.37429    -0.37140    -0.36925
    -0.36522    -0.36020    -0.35339    -0.34948    -0.34852    -0.34453
    -0.34253    -0.33428    -0.32935    -0.32640    -0.32370    -0.31621
    -0.31548    -0.30079    -0.29680    -0.28628    -0.27665    -0.27087
    -0.27005    -0.26261    -0.24604    -0.24463    -0.23934    -0.23167
    -0.22910    -0.21761    -0.13947    -0.09866    -0.06736    -0.03155
    -0.02058    -0.01403     0.00334     0.01457     0.02092     0.03349
     0.04095
 
  end of program scf
   
 Time(scf)  user:     536.099  user+sys:     536.099  wallclock:     286.609
  
  start of program der1a
  
  end of program der1a
   
 Time(der1a)  user:      20.833  user+sys:      20.833  wallclock:      11.044
  
  start of program rwr
  
  end of program rwr
   
[...]
    H81      Y    -0.10042   0.19378  -0.00222   0.01924  -0.00178   0.00956
    H81      Z     0.10542  -0.20154   0.00232  -0.01952   0.00184  -0.00968
    H82      X     0.28987   0.19965   0.00525  -0.01764  -0.00013   0.00346
    H82      Y    -0.20036  -0.13810  -0.00357   0.01175   0.00013  -0.00226
    H82      Z    -0.11876  -0.08099  -0.00211   0.00699   0.00008  -0.00138
    H83      X     0.35215   0.20603   0.00488  -0.01261  -0.00056   0.00318
    H83      Y    -0.41172  -0.24058  -0.00569   0.01458   0.00068  -0.00362
    H83      Z     0.46366   0.26998   0.00643  -0.01669  -0.00075   0.00427
    C6       X    -0.00001  -0.00001  -0.00007   0.00000   0.00003  -0.00003
    C6       Y     0.00002   0.00003  -0.00013  -0.00002  -0.00000  -0.00001
    C6       Z    -0.00001   0.00001   0.00000   0.00001  -0.00001  -0.00001
    C7       X    -0.00000  -0.00002   0.00000   0.00002   0.00001  -0.00001
    C7       Y    -0.00000  -0.00001  -0.00001  -0.00000  -0.00003   0.00002
    C7       Z    -0.00002  -0.00005   0.00001   0.00002   0.00000   0.00001
    C8       X    -0.00002  -0.00004  -0.00005  -0.00009   0.00000  -0.00000
    C8       Y     0.00003   0.00003  -0.00012  -0.00008  -0.00003  -0.00002
    C8       Z     0.00001   0.00001  -0.00006  -0.00002  -0.00000  -0.00002
    C9       X    -0.00002  -0.00003  -0.00000   0.00000   0.00001  -0.00001
    C9       Y     0.00001   0.00000   0.00000   0.00000   0.00001  -0.00001
    C9       Z    -0.00002   0.00001   0.00003   0.00004  -0.00003   0.00000
    C10      X     0.00000   0.00003   0.00000  -0.00001  -0.00002  -0.00000
    C10      Y    -0.00000  -0.00004   0.00000   0.00001  -0.00001   0.00001
    C10      Z    -0.00001  -0.00004   0.00001  -0.00002  -0.00002  -0.00001
    C11      X    -0.00002  -0.00001   0.00001   0.00003   0.00001  -0.00002
    C11      Y    -0.00000  -0.00004   0.00000   0.00001   0.00002  -0.00001
    C11      Z    -0.00001   0.00004  -0.00002  -0.00005   0.00000  -0.00001
    C12      X     0.00003   0.00002   0.00001   0.00011  -0.00002   0.00004
    C12      Y    -0.00005  -0.00003  -0.00003  -0.00023   0.00003  -0.00019
    C12      Z    -0.00015  -0.00000  -0.00007  -0.00062   0.00003  -0.00028
    C13      X    -0.00001  -0.00001   0.00001   0.00000  -0.00000  -0.00001
    C13      Y     0.00001  -0.00000  -0.00000   0.00001   0.00003  -0.00001
    C13      Z     0.00001   0.00003   0.00001   0.00000  -0.00001   0.00001
    C14      X     0.00001   0.00002  -0.00005  -0.00004  -0.00007  -0.00000
    C14      Y     0.00001   0.00001  -0.00001   0.00006  -0.00019  -0.00001
    C14      Z    -0.00004  -0.00005   0.00001  -0.00001  -0.00007  -0.00010
    C15      X     0.00001   0.00000   0.00034   0.00010  -0.00005   0.00004
    C15      Y    -0.00001   0.00001  -0.00002  -0.00026   0.00010   0.00012
    C15      Z     0.00002  -0.00001  -0.00026   0.00012   0.00006   0.00005
    C16      X     0.00001   0.00001  -0.00025  -0.00001  -0.00025   0.00000
    C16      Y     0.00005   0.00001  -0.00103  -0.00005  -0.00050   0.00009
    C16      Z    -0.00000   0.00002   0.00001  -0.00005  -0.00005   0.00002
    C17      X    -0.00022  -0.00002  -0.00010  -0.00131   0.00015  -0.00071
    C17      Y     0.00017   0.00000  -0.00010   0.00165  -0.00019  -0.00008
    C17      Z     0.00012   0.00008   0.00003  -0.00078   0.00012   0.00095
    C18      X    -0.00181  -0.00260  -0.00179   0.03296  -0.00334  -0.01781
    C18      Y     0.00143   0.00197   0.00126  -0.02332   0.00239   0.01231
    C18      Z     0.00024   0.00042   0.00037  -0.00670   0.00062   0.00397
    C19      X     0.00024  -0.00009  -0.00035   0.00995  -0.00093  -0.01053
    C19      Y    -0.00004   0.00069   0.00126  -0.02923   0.00267   0.02535
    C19      Z    -0.00014  -0.00095  -0.00158   0.03499  -0.00316  -0.02815
    C20      X    -0.00383  -0.00293  -0.00113  -0.00407   0.00083   0.03070
    C20      Y    -0.00064  -0.00061  -0.00031   0.00224  -0.00011   0.00627
    C20      Z     0.00519   0.00415   0.00170   0.00119  -0.00073  -0.04308
    C21      X     0.00130   0.00019  -0.00173   0.03434  -0.00230   0.03707
    C21      Y    -0.00060   0.00001   0.00130  -0.02298   0.00149  -0.02659
    C21      Z    -0.00059  -0.00019   0.00006  -0.00463   0.00037  -0.00235
    C22      X     0.00303   0.00032   0.00032   0.01145  -0.00097   0.00654
    C22      Y    -0.00513  -0.00048  -0.00063  -0.02100   0.00185  -0.01303
    C22      Z     0.00731   0.00066   0.00082   0.03128  -0.00272   0.01966
    C23      X     0.00005   0.00001  -0.00262  -0.00008   0.00062  -0.00001
    C23      Y    -0.00002   0.00001   0.00059   0.00015   0.00176  -0.00003
    C23      Z    -0.00003  -0.00000   0.00143   0.00006   0.00017  -0.00003
    C24      X    -0.00048  -0.00022   0.03014  -0.00042  -0.02285   0.00053
    C24      Y     0.00049   0.00019  -0.02895   0.00057   0.02250  -0.00055
    C24      Z     0.00038   0.00016  -0.02309   0.00034   0.01763  -0.00042
    C25      X    -0.00078  -0.00014   0.02835  -0.00294  -0.03863   0.00070
    C25      Y    -0.00035  -0.00007   0.01381  -0.00106  -0.01565   0.00030
    C25      Z     0.00026   0.00005  -0.00900   0.00104   0.01322  -0.00023
    C26      X     0.00001  -0.00001  -0.00382  -0.00104  -0.00935   0.00008
    C26      Y    -0.00022  -0.00005  -0.00405  -0.00412  -0.04036   0.00043
    C26      Z    -0.00007  -0.00001   0.00057  -0.00071  -0.00731   0.00009
    C27      X    -0.00038   0.00002   0.02426   0.00298   0.02612  -0.00019
    C27      Y     0.00040  -0.00002  -0.02380  -0.00259  -0.02229   0.00015
    C27      Z     0.00028  -0.00002  -0.01752  -0.00206  -0.01792   0.00013
    C28      X    -0.00083   0.00011   0.04275   0.00340   0.02718  -0.00011
    C28      Y    -0.00037   0.00004   0.01922   0.00159   0.01247  -0.00006
    C28      Z     0.00025  -0.00003  -0.01281  -0.00100  -0.00804   0.00003
    H29      X     0.00003  -0.00003  -0.00011  -0.00004   0.00001   0.00002
    H29      Y    -0.00007  -0.00000   0.00000   0.00012  -0.00012  -0.00008
    H29      Z     0.00013   0.00004  -0.00018  -0.00022   0.00006   0.00015
    H30      X    -0.00009  -0.00014   0.00077   0.00010   0.00020   0.00002
    H30      Y    -0.00018  -0.00026   0.00183   0.00015   0.00035   0.00015
    H30      Z    -0.00001  -0.00001   0.00007   0.00003  -0.00001  -0.00000
    H31      X     0.00022   0.00058   0.00020  -0.00020  -0.00041   0.00028
    H31      Y    -0.00004  -0.00012  -0.00007   0.00002  -0.00001  -0.00002
    H31      Z    -0.00004  -0.00009   0.00004   0.00004  -0.00000   0.00001
    H32      X     0.00003  -0.00003  -0.00005  -0.00007   0.00001  -0.00004
    H32      Y    -0.00013  -0.00009   0.00053  -0.00012   0.00007   0.00025
    H32      Z    -0.00030  -0.00021   0.00079   0.00012   0.00006   0.00033
    H33      X     0.00028   0.00055  -0.00012   0.00031  -0.00027   0.00002
    H33      Y    -0.00009  -0.00019   0.00002   0.00000   0.00007  -0.00003
    H33      Z    -0.00000  -0.00001  -0.00000  -0.00003   0.00000   0.00002
    H34      X    -0.00006  -0.00002   0.00070   0.00060   0.00022   0.00006
    H34      Y    -0.00008   0.00001   0.00081   0.00113   0.00016   0.00002
    H34      Z    -0.00001  -0.00001  -0.00015   0.00026  -0.00004  -0.00009
    H35      X     0.00001  -0.00002  -0.00001  -0.00002   0.00003  -0.00002
    H35      Y    -0.00013   0.00004   0.00016   0.00020  -0.00011   0.00001
    H35      Z     0.00019  -0.00006  -0.00019  -0.00024   0.00017  -0.00002
    H36      X     0.00024   0.00048  -0.00003  -0.00021  -0.00027   0.00018
    H36      Y    -0.00005  -0.00011  -0.00001   0.00003   0.00001  -0.00001
    H36      Z     0.00001   0.00004   0.00001  -0.00000  -0.00002   0.00002
    H37      X    -0.00005  -0.00003   0.00009   0.00013  -0.00004  -0.00003
    H37      Y     0.00007  -0.00003  -0.00016  -0.00020   0.00008   0.00002
    H37      Z     0.00007  -0.00006  -0.00023  -0.00031   0.00014   0.00003
    H38      X     0.00022   0.00012  -0.00007  -0.00015  -0.00015   0.00025
    H38      Y     0.00003  -0.00001  -0.00002   0.00000   0.00000   0.00004
    H38      Z     0.00002   0.00003  -0.00002   0.00000  -0.00002   0.00005
    H39      X    -0.00005   0.00014  -0.00009  -0.00023   0.00001  -0.00002
    H39      Y     0.00001  -0.00008   0.00002   0.00006   0.00002  -0.00001
    H39      Z     0.00011  -0.00027   0.00018   0.00055  -0.00002   0.00006
    H40      X     0.00002  -0.00021   0.00001   0.00005   0.00010  -0.00004
    H40      Y    -0.00004   0.00049   0.00003  -0.00012  -0.00029   0.00009
    H40      Z     0.00004  -0.00035   0.00001   0.00007   0.00014  -0.00006
    H41      X    -0.00078  -0.00006  -0.00029  -0.00319   0.00022  -0.00148
    H41      Y    -0.00019  -0.00006   0.00003  -0.00079   0.00009  -0.00064
    H41      Z     0.00162   0.00026   0.00069   0.00661  -0.00047   0.00298
    H42      X     0.00023   0.00002   0.00021   0.00100  -0.00008   0.00069
    H42      Y     0.00067   0.00002   0.00039   0.00286  -0.00007   0.00191
    H42      Z     0.00038   0.00002   0.00016   0.00163  -0.00010   0.00120
    H43      X     0.00008  -0.00019  -0.00001   0.00033   0.00010   0.00003
    H43      Y    -0.00015   0.00038  -0.00000  -0.00056  -0.00027   0.00021
    H43      Z     0.00006  -0.00028  -0.00000   0.00016   0.00018  -0.00025
    H44      X     0.00012   0.00019  -0.00010  -0.00000  -0.00007   0.00025
    H44      Y     0.00002   0.00000  -0.00001  -0.00001   0.00000   0.00003
    H44      Z    -0.00000   0.00003   0.00000  -0.00003  -0.00001  -0.00001
    H45      X    -0.00000  -0.00016  -0.00004   0.00004   0.00013  -0.00004
    H45      Y     0.00001   0.00044   0.00008  -0.00012  -0.00029   0.00005
    H45      Z    -0.00002  -0.00041  -0.00003   0.00010   0.00020  -0.00002
    H46      X    -0.00002  -0.00002  -0.00003  -0.00002  -0.00004  -0.00002
    H46      Y    -0.00008  -0.00013  -0.00011  -0.00003  -0.00012  -0.00002
    H46      Z    -0.00005  -0.00004  -0.00003  -0.00003  -0.00011   0.00001
    H47      X    -0.00031  -0.00030   0.00645   0.00050   0.00371  -0.00039
    H47      Y    -0.00047  -0.00049   0.00888   0.00062   0.00549  -0.00062
    H47      Z    -0.00013  -0.00020   0.00183   0.00014   0.00088  -0.00011
    H48      X     0.00001   0.00008  -0.00122  -0.00055  -0.00033   0.00045
    H48      Y     0.00002   0.00003  -0.00041   0.00002  -0.00015  -0.00007
    H48      Z     0.00001  -0.00001   0.00052   0.00036   0.00020  -0.00033
    H49      X     0.00016  -0.00000  -0.00256   0.00009  -0.00065   0.00010
    H49      Y    -0.00023   0.00006   0.00429  -0.00005   0.00094  -0.00023
    H49      Z     0.00014   0.00000  -0.00221   0.00006  -0.00032   0.00001
    H50      X     0.02128   0.02981   0.02020  -0.36269   0.03676   0.18908
    H50      Y    -0.01623  -0.02249  -0.01506   0.27133  -0.02749  -0.14104
    H50      Z    -0.00303  -0.00427  -0.00302   0.05306  -0.00527  -0.02831
    H51      X    -0.00023   0.00285   0.00567  -0.12702   0.01142   0.10793
    H51      Y    -0.00069  -0.00845  -0.01474   0.33015  -0.02980  -0.27382
    H51      Z     0.00075   0.00979   0.01708  -0.37922   0.03413   0.31159
    H52      X     0.04333   0.03417   0.01339   0.02460  -0.00721  -0.34017
    H52      Y     0.00775   0.00617   0.00257   0.00059  -0.00099  -0.06095
    H52      Z    -0.05966  -0.04702  -0.01870  -0.02801   0.00941   0.46957
    H53      X    -0.01337  -0.00246   0.02003  -0.38258   0.02532  -0.40851
    H53      Y     0.00880   0.00133  -0.01390   0.26269  -0.01731   0.28302
    H53      Z     0.00212   0.00031  -0.00200   0.04249  -0.00290   0.04199
    H54      X    -0.03497  -0.00324  -0.00420  -0.14310   0.01242  -0.08539
    H54      Y     0.05818   0.00535   0.00694   0.24033  -0.02092   0.14499
    H54      Z    -0.08386  -0.00774  -0.00978  -0.34826   0.03021  -0.21089
    H55      X     0.00567   0.00247  -0.34920   0.00522   0.26233  -0.00613
    H55      Y    -0.00518  -0.00219   0.31539  -0.00508  -0.23758   0.00592
    H55      Z    -0.00424  -0.00183   0.26207  -0.00386  -0.19711   0.00502
    H56      X     0.00876   0.00154  -0.31919   0.03179   0.42111  -0.00771
    H56      Y     0.00366   0.00065  -0.13500   0.01293   0.17381  -0.00324
    H56      Z    -0.00297  -0.00052   0.10784  -0.01083  -0.14341   0.00257
    H57      X     0.00046   0.00011   0.01532   0.01064   0.10256  -0.00106
    H57      Y     0.00232   0.00051   0.04874   0.04512   0.43801  -0.00466
    H57      Z     0.00045   0.00010   0.00693   0.00805   0.07858  -0.00087
    H58      X     0.00455  -0.00024  -0.27859  -0.03234  -0.28027   0.00198
    H58      Y    -0.00412   0.00021   0.25035   0.02863   0.24748  -0.00175
    H58      Z    -0.00319   0.00016   0.19424   0.02241   0.19407  -0.00138
    H59      X     0.00947  -0.00131  -0.48675  -0.03843  -0.30386   0.00102
    H59      Y     0.00394  -0.00051  -0.20244  -0.01605  -0.12690   0.00047
    H59      Z    -0.00295   0.00041   0.15080   0.01189   0.09390  -0.00034
  
  Number of imaginary frequencies:   0
   
  Writing vibrational animation data to ox_add_Br_trans_L1_PL747.vib
  Writing IR vibrational spectrum data to ox_add_Br_trans_L1_PL747_vib.spm
  rotational symmetry number:  1

  rotational temperatures (K):      0.006109      0.004686      0.003167
   
  The Quasi-Harmonic approximation will be applied to compute
  vibrational constributions to thermodynamic properties.
  Frequencies will be adjusted to a minimum value of  100.00 cm^-1.

  vibrational temperatures:
       mode:      1        2        3        4        5        6
  temp. (K):   143.88   143.88   143.88   143.88   143.88   143.88
   
       mode:      7        8        9       10       11       12
  temp. (K):   143.88   143.88   143.88   143.88   149.60   157.12
   
       mode:     13       14       15       16       17       18
  temp. (K):   177.68   179.82   187.22   193.10   202.09   216.93
   
       mode:     19       20       21       22       23       24
  temp. (K):   254.25   260.37   280.94   297.48   310.36   323.35
   
       mode:     25       26       27       28       29       30
  temp. (K):   329.50   339.21   353.55   357.34   367.55   380.68
   
       mode:     31       32       33       34       35       36
  temp. (K):   385.37   400.61   424.59   436.19   437.39   452.87
   
       mode:     37       38       39       40       41       42
  temp. (K):   465.30   486.95   511.58   529.81   534.57   559.74
   
       mode:     43       44       45       46       47       48
  temp. (K):   573.81   578.38   588.92   593.44   595.66   598.57
   
       mode:     49       50       51       52       53       54
  temp. (K):   605.34   614.34   670.34   681.98   712.81   745.78
   
       mode:     55       56       57       58       59       60
  temp. (K):   755.92   787.23   832.36   847.80   883.76   894.94
   
       mode:     61       62       63       64       65       66
  temp. (K):   901.76   908.87   918.11   948.58   991.17  1023.22
   
       mode:     67       68       69       70       71       72
  temp. (K):  1027.56  1041.22  1097.45  1113.42  1155.87  1177.78
   
       mode:     73       74       75       76       77       78
  temp. (K):  1192.68  1196.36  1198.73  1205.14  1239.00  1253.74
   
       mode:     79       80       81       82       83       84
  temp. (K):  1326.59  1350.73  1356.09  1372.45  1374.17  1375.64
   
       mode:     85       86       87       88       89       90
  temp. (K):  1381.26  1384.80  1390.36  1410.75  1413.23  1419.25
   
       mode:     91       92       93       94       95       96
  temp. (K):  1440.88  1445.37  1456.73  1464.34  1467.71  1472.27
   
       mode:     97       98       99      100      101      102
  temp. (K):  1478.15  1502.92  1512.56  1519.82  1522.26  1523.13
   
       mode:    103      104      105      106      107      108
  temp. (K):  1528.67  1535.93  1554.89  1598.12  1616.08  1618.22
   
       mode:    109      110      111      112      113      114
  temp. (K):  1677.66  1717.54  1721.33  1733.97  1738.12  1748.54
   
       mode:    115      116      117      118      119      120
  temp. (K):  1755.23  1760.20  1765.82  1773.37  1784.47  1795.10
   
       mode:    121      122      123      124      125      126
  temp. (K):  1799.94  1833.91  1863.51  1900.23  1917.16  1936.39
   
       mode:    127      128      129      130      131      132
  temp. (K):  1945.22  1984.93  1997.90  2044.14  2050.12  2050.52
   
       mode:    133      134      135      136      137      138
  temp. (K):  2053.09  2057.83  2072.97  2094.54  2108.73  2114.49
   
       mode:    139      140      141      142      143      144
  temp. (K):  2144.80  2159.25  2162.27  2165.45  2169.93  2172.89
   
       mode:    145      146      147      148      149      150
  temp. (K):  2179.80  2180.64  2185.96  2195.20  2198.83  2200.26
   
       mode:    151      152      153      154      155      156
  temp. (K):  2209.54  2214.29  2216.28  2217.23  2230.46  2237.19
   
       mode:    157      158      159      160      161      162
  temp. (K):  2308.63  2361.05  2365.35  2369.17  2377.74  2385.06
   
       mode:    163      164      165      166      167      168
  temp. (K):  2401.16  4370.76  4379.47  4384.09  4386.99  4387.18
   
       mode:    169      170      171      172      173      174
  temp. (K):  4394.29  4420.90  4473.33  4484.90  4487.48  4490.11
   
       mode:    175      176      177      178      179      180
  temp. (K):  4502.75  4512.96  4516.32  4522.74  4527.15  4541.67
   
       mode:    181      182      183      184      185      186
  temp. (K):  4552.17  4555.61  4566.94  4576.62  4587.16  4587.51
   
       mode:    187      188      189      190      191      192
  temp. (K):  4593.31  4599.89  4599.91  4608.28  4612.30  4620.32
   
       mode:    193      194      195      196      197      198
  temp. (K):  4621.37  4622.19  4623.10  4629.44  4631.14  4641.14
   
   
  Thermodynamic properties calculated assuming an ideal gas

  In the table below, the units for temperature
  are kelvins, the units for U, H, and G are
  kcal/mol and the units for Cv and S are cal/(mol K)

  The zero point energy (ZPE):    357.463 kcal/mol
  is not included in U, H, or G in the table below
  
 
  =============================================================================
  Thermodynamic properties for P = 1.00E+00 atm, calculated at   1 temperatures


  T =   298.15 K, P = 1.00E+00 atm
   
                  U         Cv          S          H          G        ln(Q)
              =========  =========  =========  =========  =========  =========
  trans.          0.889      2.981     45.147      1.481    -11.979   20.21902
  rot.            0.889      2.981     37.214      0.889    -10.207   17.22685
  vib.           19.706    129.237    118.968     19.706    -15.765   26.60748
  elec.           0.000      0.000      0.000      0.000      0.000    0.00000
  ----------------------------------------------------------------------------
  total          21.483    135.199    201.330     22.076    -37.951   64.05335
   
   Total internal energy, Utot(SCFE + ZPE + U):   -1706.386106 hartrees
   Total enthalpy, Htot (Utot + nRT), with n=1:   -1706.385161 hartrees
    Total Gibbs free energy, Gtot (Htot - T*S):   -1706.480820 hartrees
   
  end of program freq
   
 Time(freq)  user:       0.355  user+sys:       0.355  wallclock:       0.677
  
  start of program post
  
  Writing input files for PBF
  end of program post
   
 Time(post)  user:       0.187  user+sys:       0.187  wallclock:       0.165

 Total cpu seconds     user:   79219.943   user+sys:   79219.943
  
 Total elapsed time:    46077 seconds

Job ox_add_Br_trans_L1_PL747 completed on bp1-compute087 at Wed Mar 19 06:36:31 2025
