Job PL747 started on bp1-compute050.data.bp.acrc.priv at Mon Mar 31 14:41:28 2025
jobid: bp1-compute050-0-67ea9b77

  +--------------------------------------------------------------------+
  |  Jaguar version 12.5, release 138                                  |
  |                                                                    |
  |  Copyright Schrodinger, Inc.                                       |
  |  All Rights Reserved.                                              |
  |                                                                    |
  |  The following have contributed to Jaguar (listed alphabetically): |
  |  Ty Balduf, Mike Beachy, Chandler Bennett, Art Bochevarov,         |
  |  Dale Braden, Yixiang Cao, Alan Chien, Chris Cortis,               |
  |  Rich Friesner, Jim Furness, Bill Goddard, Hod Greeley,            |
  |  Tom Hughes, Leif Jacobson, Jean-Marc Langlois, Daniel Levine,     |
  |  Rob Murphy, Dean Philipp, Tom Pollard, Murco Ringnalda,           |
  |  Daniel Mainz, Pablo Videla, Mark Watson, Haoyu Yu.                |
  |                                                                    |
  |  Use of this program should be acknowledged in publications as:    |
  |                                                                    |
  |  Jaguar, version 12.5, Schrodinger, Inc., New York, NY, 2024.      |
  |                                                                    |
  |  A. D. Bochevarov, E. Harder, T. F. Hughes, J. R. Greenwood,       |
  |  D. A. Braden, D. M. Philipp, D. Rinaldo, M. D. Halls,             |
  |  J. Zhang, R. A. Friesner, "Jaguar: A High-Performance Quantum     |
  |  Chemistry Software Program with Strengths in Life and Materials   |
  |  Sciences", Int. J. Quantum Chem., 2013, 113(18), 2110-2142.       |
  +--------------------------------------------------------------------+
  
  start of program pre
  
  Job name: PL747
  Executables used: /software/local/apps/schrodinger2024-3/jaguar-v12.5/bin/Linux-x86_64
  Temporary files : /tmp/ar21627/PL747#bp1-compute050-0-67ea9b77
  Basis file : using default basis file from /software/local/apps/schrodinger2024-3
  Maestro file (input):  PL747.mae
  Maestro file (output): PL747.01.mae
  
 Contents of input file: &gen and (if present) &atomic sections only
 ----------------Contents start----------------
&gen
dftname=b3pw91-d3
basis=6-31G*
numd=5
ip11=2
iaccg=3
isolv=2
igeopt=1
solvent=benzene
ifreq=1
&
 -----------------Contents end-----------------
 
  PS calculation requested. Using PS version of 6-31g*
  basis set:               6-31g*                          
  net molecular charge:    0
  multiplicity:            1
  
  Using up to   4 threads per process
  
  number of basis functions....          402
  
 Input geometry:
                                   angstroms
  atom               x                 y                 z
  P1            0.0000000000      0.0000000000      0.0000000000 
  C6            2.4859719890      0.0000000000     -1.6223129383 
  C7            1.8417756257      0.2769820460     -0.2399989394 
  C8            2.6663087097     -0.6082138621      0.7365118888 
  C9            2.2012755100      1.7300295336      0.1185451052 
  C10          -1.0442422168      1.0525620250     -1.2245682407 
  C11          -1.4860189141      2.4068635562     -0.6186336630 
  C12          -2.3367912708      0.3331721453     -1.7052096288 
  C13          -0.3250889897      1.4259492335     -2.5340722034 
  C14          -0.6347117209     -1.6922415293     -0.3828062666 
  C15          -1.6302748092     -2.3927843535      0.2399897583 
  C16           0.0498481859     -2.2307293172     -1.6154187915 
  C17          -2.5205641274     -1.8331540020      1.3175461603 
  C18          -3.2361967390     -2.6805096353      2.2022542455 
  C19          -4.0600273760     -2.2250561135      3.2408307573 
  C20          -4.2109305406     -0.8520848934      3.4784760050 
  C21          -3.5076587701      0.0284255940      2.6542490346 
  C22          -2.6925367435     -0.4708665801      1.6203982685 
  C23          -1.8623523873     -3.8259187935     -0.1349257984 
  C24          -3.1554951512     -4.4027058888     -0.0568525067 
  C25          -3.4421022397     -5.7330231762     -0.4105038771 
  C26          -2.4188354248     -6.5759441177     -0.8636145833 
  C27          -1.1216326943     -6.0523033683     -0.9583005987 
  C28          -0.8732314023     -4.7159716000     -0.6057184053 
  H29           2.0813719627      0.6072601128     -2.4483495804 
  H30           2.4311175010     -1.0725477374     -1.9263398058 
  H31           3.5745669595      0.2314293317     -1.6211068800 
  H32           2.4573412261     -0.3720653966      1.7972151899 
  H33           3.7578638055     -0.4604751279      0.6100969397 
  H34           2.4638157099     -1.6856423925      0.5552817953 
  H35           1.6519446043      2.4722168973     -0.4992230335 
  H36           3.2811668996      1.9419156510     -0.0149459428 
  H37           1.9871346933      1.9556400374      1.1879195070 
  H38          -0.6157427779      3.0122505336     -0.2973626647 
  H39          -2.1831377681      2.2877233763      0.2375526023 
  H40          -2.0479247989      3.0245050227     -1.3585909559 
  H41          -3.0368992754      0.0578162296     -0.8875143619 
  H42          -2.1139318149     -0.5972890217     -2.2671034618 
  H43          -2.9294144919      0.9726865205     -2.3898585036 
  H44           0.5506695379      2.0950297279     -2.3609297955 
  H45          -0.9761293915      2.0030120040     -3.2222182302 
  H46          -0.0026444036      0.5379374497     -3.1141278566 
  H47          -0.5594442697     -2.9507240190     -2.2036197206 
  H48           1.0543217752     -2.6543280660     -1.3763938799 
  H49           0.2089887201     -1.4238140282     -2.3645129156 
  H50          -3.1419181795     -3.7712210074      2.1619894233 
  H51          -4.5804963435     -2.9436655974      3.8935462111 
  H52          -4.8535231849     -0.4799595536      4.2930319729 
  H53          -3.5899332507      1.1152026592      2.8130272456 
  H54          -2.1961053731      0.2994317511      1.0380707185 
  H55          -4.0307812875     -3.7991870334      0.2351071833 
  H56          -4.4739698759     -6.1207038115     -0.3304170105 
  H57          -2.6247252347     -7.6205234697     -1.1315014316 
  H58          -0.3025493460     -6.7027232928     -1.3096642141 
  H59           0.1864454950     -4.4198743842     -0.6757991606 
   
  principal moments of inertia:
        amu*angstrom^2:              1768.07687              2994.59695              3866.63478
                g*cm^2:          2.93596035E-37          4.97264461E-37          6.42069731E-37
   
  rotational constants:
               cm^(-1):      0.00953444      0.00562935      0.00435977
                   GHz:      0.28583543      0.16876361      0.13070255
   
  Molecular weight:     338.22 amu
   
  Stoichiometry: C23PH31
  Molecular Point Group: C1      
  Point Group used: C1
  
 
Number of optimization coordinates:   177
Number of independent coordinates:    177
Number of non-redundant coordinates:  159
Number of frozen coordinates:           0
Number of harmonic constraints:         0
 
Number of geometric degrees of freedom:   159
Maximum geometric degrees of freedom:     159
 " " " " " excluding dummy atoms:         159
 
 
  bond lengths (angstroms):
 
 P1      -C7      :   1.877886      P1      -C10     :   1.922991
 P1      -C14     :   1.847453      C6      -C7      :   1.550000
 C6      -H29     :   1.102181      C6      -H30     :   1.116154
 C6      -H31     :   1.112924      C7      -C8      :   1.554670
 C7      -C9      :   1.539201      C8      -H32     :   1.106583
 C8      -H33     :   1.108738      C8      -H34     :   1.111171
 C9      -H35     :   1.110965      C9      -H36     :   1.108549
 C9      -H37     :   1.113696      C10     -C11     :   1.548049
 C10     -C12     :   1.555385      C10     -C13     :   1.539935
 C11     -H38     :   1.107740      C11     -H39     :   1.110506
 C11     -H40     :   1.115686      C12     -H41     :   1.111124
 C12     -H42     :   1.109572      C12     -H43     :   1.108569
 C13     -H44     :   1.115616      C13     -H45     :   1.109234
 C13     -H46     :   1.108603      C14     -C15     :   1.367399
 C14     -C16     :   1.509280      C15     -C17     :   1.505632
 C15     -C23     :   1.499432      C16     -H47     :   1.111580
 C16     -H48     :   1.116036      C16     -H49     :   1.112466
 C17     -C18     :   1.418749      C17     -C22     :   1.406101
 C18     -C19     :   1.401705      C18     -H50     :   1.095519
 C19     -C20     :   1.401534      C19     -H51     :   1.101510
 C20     -C21     :   1.396152      C20     -H52     :   1.102227
 C21     -C22     :   1.408036      C21     -H53     :   1.101392
 C22     -H54     :   1.085776      C23     -C24     :   1.418096
 C23     -C28     :   1.411453      C24     -C25     :   1.406043
 C24     -H55     :   1.102543      C25     -C26     :   1.401035
 C25     -H56     :   1.105197      C26     -C27     :   1.402106
 C26     -H57     :   1.097862      C27     -C28     :   1.404208
 C27     -H58     :   1.103359      C28     -H59     :   1.102497
 
  bond angles:
 
 C10     -P1      -C7      : 111.744572  C14     -P1      -C7      : 116.460285
 C14     -P1      -C10     : 100.536212  H29     -C6      -C7      : 114.667671
 H30     -C6      -C7      : 113.216762  H30     -C6      -H29     : 107.893773
 H31     -C6      -C7      : 111.616907  H31     -C6      -H29     : 104.199965
 H31     -C6      -H30     : 104.370416  C6      -C7      -P1      : 119.685427
 C8      -C7      -P1      : 110.848869  C8      -C7      -C6      : 103.768090
 C9      -C7      -P1      : 109.788049  C9      -C7      -C6      : 106.222348
 C9      -C7      -C8      : 105.505012  H32     -C8      -C7      : 112.359211
 H33     -C8      -C7      : 112.002951  H33     -C8      -H32     : 105.472016
 H34     -C8      -C7      : 110.670603  H34     -C8      -H32     : 109.198763
 H34     -C8      -H33     : 106.858970  H35     -C9      -C7      : 112.683762
 H36     -C9      -C7      : 112.328328  H36     -C9      -H35     : 106.680106
 H37     -C9      -C7      : 111.715700  H37     -C9      -H35     : 107.669515
 H37     -C9      -H36     : 105.320351  C11     -C10     -P1      : 112.616616
 C12     -C10     -P1      : 113.259062  C12     -C10     -C11     : 106.764108
 C13     -C10     -P1      : 114.874709  C13     -C10     -C11     : 104.714106
 C13     -C10     -C12     : 103.736378  H38     -C11     -C10     : 111.557046
 H39     -C11     -C10     : 112.772054  H39     -C11     -H38     : 109.159948
 H40     -C11     -C10     : 111.619353  H40     -C11     -H38     : 106.587826
 H40     -C11     -H39     : 104.748381  H41     -C12     -C10     : 114.256512
 H42     -C12     -C10     : 112.174739  H42     -C12     -H41     : 106.942602
 H43     -C12     -C10     : 111.609504  H43     -C12     -H41     : 105.107199
 H43     -C12     -H42     : 106.163418  H44     -C13     -C10     : 112.336163
 H45     -C13     -C10     : 112.308433  H45     -C13     -H44     : 104.182669
 H46     -C13     -C10     : 112.739674  H46     -C13     -H44     : 109.468348
 H46     -C13     -H45     : 105.237954  C15     -C14     -P1      : 128.684936
 C16     -C14     -P1      : 109.889446  C16     -C14     -C15     : 121.292777
 C17     -C15     -C14     : 124.475500  C23     -C15     -C14     : 119.240168
 C23     -C15     -C17     : 116.275301  H47     -C16     -C14     : 114.496636
 H48     -C16     -C14     : 111.637587  H48     -C16     -H47     : 111.150763
 H49     -C16     -C14     : 110.856140  H49     -C16     -H47     : 101.064513
 H49     -C16     -H48     : 106.904158  C18     -C17     -C15     : 121.503772
 C22     -C17     -C15     : 125.914389  C22     -C17     -C18     : 112.497504
 C19     -C18     -C17     : 124.362798  H50     -C18     -C17     : 121.891101
 H50     -C18     -C19     : 113.660382  C20     -C19     -C18     : 120.478961
 H51     -C19     -C18     : 120.316905  H51     -C19     -C20     : 119.192149
 C21     -C20     -C19     : 117.611883  H52     -C20     -C19     : 121.252466
 H52     -C20     -C21     : 121.132845  C22     -C21     -C20     : 120.095366
 H53     -C21     -C20     : 119.971301  H53     -C21     -C22     : 119.933325
 C21     -C22     -C17     : 124.924857  H54     -C22     -C17     : 121.057891
 H54     -C22     -C21     : 114.010856  C24     -C23     -C15     : 121.072537
 C28     -C23     -C15     : 125.285237  C28     -C23     -C24     : 113.635329
 C25     -C24     -C23     : 123.838833  H55     -C24     -C23     : 121.055335
 H55     -C24     -C25     : 115.004393  C26     -C25     -C24     : 120.112978
 H56     -C25     -C24     : 120.263401  H56     -C25     -C26     : 119.623423
 C27     -C26     -C25     : 118.220572  H57     -C26     -C25     : 120.956461
 H57     -C26     -C27     : 120.821812  C28     -C27     -C26     : 120.140430
 H58     -C27     -C26     : 119.219895  H58     -C27     -C28     : 120.639506
 C27     -C28     -C23     : 124.048634  H59     -C28     -C23     : 121.695734
 H59     -C28     -C27     : 114.183109
 
  torsional angles:
 
 P1      -C7      -C6      -H29     :  60.423601
 P1      -C7      -C6      -H30     : -63.971781
 P1      -C7      -C6      -H31     : 178.610880
 P1      -C7      -C8      -H32     : -61.557565
 P1      -C7      -C8      -H33     : 179.931233
 P1      -C7      -C8      -H34     :  60.802319
 P1      -C7      -C9      -H35     : -59.094664
 P1      -C7      -C9      -H36     :-179.623589
 P1      -C7      -C9      -H37     :  62.275757
 P1      -C10     -C11     -H38     :  58.116114
 P1      -C10     -C11     -H39     : -65.152471
 P1      -C10     -C11     -H40     : 177.243530
 P1      -C10     -C12     -H41     :  59.561348
 P1      -C10     -C12     -H42     : -62.364252
 P1      -C10     -C12     -H43     : 178.637193
 P1      -C10     -C13     -H44     : -64.845351
 P1      -C10     -C13     -H45     : 178.096263
 P1      -C10     -C13     -H46     :  59.410745
 P1      -C14     -C15     -C17     :   6.457709
 P1      -C14     -C15     -C23     :-172.406568
 P1      -C14     -C16     -H47     :-151.247671
 P1      -C14     -C16     -H48     :  81.355884
 P1      -C14     -C16     -H49     : -37.714256
 C6      -C7      -P1      -C10     : -57.977571
 C6      -C7      -P1      -C14     :  56.756994
 C6      -C7      -C8      -H32     : 168.730180
 C6      -C7      -C8      -H33     :  50.218977
 C6      -C7      -C8      -H34     : -68.909937
 C6      -C7      -C9      -H35     :  71.659901
 C6      -C7      -C9      -H36     : -48.869024
 C6      -C7      -C9      -H37     :-166.969678
 C7      -P1      -C10     -C11     : -93.906048
 C7      -P1      -C10     -C12     : 144.817715
 C7      -P1      -C10     -C13     :  25.859250
 C7      -P1      -C14     -C15     : 144.559309
 C7      -P1      -C14     -C16     : -39.649812
 C8      -C7      -P1      -C10     :-178.657343
 C8      -C7      -P1      -C14     : -63.922778
 C8      -C7      -C6      -H29     :-175.418780
 C8      -C7      -C6      -H30     :  60.185837
 C8      -C7      -C6      -H31     : -57.231501
 C8      -C7      -C9      -H35     :-178.588850
 C8      -C7      -C9      -H36     :  60.882225
 C8      -C7      -C9      -H37     : -57.218429
 C9      -C7      -P1      -C10     :  65.173356
 C9      -C7      -P1      -C14     : 179.907921
 C9      -C7      -C6      -H29     : -64.445286
 C9      -C7      -C6      -H30     : 171.159331
 C9      -C7      -C6      -H31     :  53.741993
 C9      -C7      -C8      -H32     :  57.232106
 C9      -C7      -C8      -H33     : -61.279096
 C9      -C7      -C8      -H34     : 179.591989
 C10     -P1      -C14     -C15     : -94.544224
 C10     -P1      -C14     -C16     :  81.246655
 C11     -C10     -P1      -C14     : 141.891313
 C11     -C10     -C12     -H41     : -64.954754
 C11     -C10     -C12     -H42     : 173.119646
 C11     -C10     -C12     -H43     :  54.121091
 C11     -C10     -C13     -H44     :  59.211664
 C11     -C10     -C13     -H45     : -57.846722
 C11     -C10     -C13     -H46     :-176.532241
 C12     -C10     -P1      -C14     :  20.615076
 C12     -C10     -C11     -H38     :-176.975318
 C12     -C10     -C11     -H39     :  59.756098
 C12     -C10     -C11     -H40     : -57.847901
 C12     -C10     -C13     -H44     : 171.000437
 C12     -C10     -C13     -H45     :  53.942051
 C12     -C10     -C13     -H46     : -64.743467
 C13     -C10     -P1      -C14     : -98.343389
 C13     -C10     -C11     -H38     : -67.371767
 C13     -C10     -C11     -H39     : 169.359648
 C13     -C10     -C11     -H40     :  51.755650
 C13     -C10     -C12     -H41     :-175.241344
 C13     -C10     -C12     -H42     :  62.833056
 C13     -C10     -C12     -H43     : -56.165499
 C14     -C15     -C17     -C18     :-160.235098
 C14     -C15     -C17     -C22     :  16.168980
 C14     -C15     -C23     -C24     :-149.696363
 C14     -C15     -C23     -C28     :  29.285990
 C15     -C14     -C16     -H47     :  24.907935
 C15     -C14     -C16     -H48     :-102.488509
 C15     -C14     -C16     -H49     : 138.441351
 C15     -C17     -C18     -C19     : 178.726145
 C15     -C17     -C18     -H50     :   2.308983
 C15     -C17     -C22     -C21     :-178.439997
 C15     -C17     -C22     -H54     :   2.536328
 C15     -C23     -C24     -C25     : 179.109877
 C15     -C23     -C24     -H55     :   2.957507
 C15     -C23     -C28     -C27     :-179.550474
 C15     -C23     -C28     -H59     :   3.728784
 C16     -C14     -C15     -C17     :-168.909534
 C16     -C14     -C15     -C23     :  12.226189
 C17     -C15     -C23     -C24     :  31.347763
 C17     -C15     -C23     -C28     :-149.669883
 C17     -C18     -C19     -C20     :  -0.866591
 C17     -C18     -C19     -H51     :-179.597121
 C17     -C22     -C21     -C20     :   0.617818
 C17     -C22     -C21     -H53     :-179.415086
 C18     -C17     -C15     -C23     :  18.659704
 C18     -C17     -C22     -C21     :  -1.758124
 C18     -C17     -C22     -H54     : 179.218201
 C18     -C19     -C20     -C21     :  -0.456317
 C18     -C19     -C20     -H52     :-179.853482
 C19     -C18     -C17     -C22     :   1.877878
 C19     -C20     -C21     -C22     :   0.577604
 C19     -C20     -C21     -H53     :-179.389480
 C20     -C19     -C18     -H50     : 175.812513
 C20     -C21     -C22     -H54     : 179.702229
 C21     -C20     -C19     -H51     : 178.288383
 C22     -C17     -C15     -C23     :-164.936218
 C22     -C17     -C18     -H50     :-174.539284
 C22     -C21     -C20     -H52     : 179.975530
 C23     -C24     -C25     -C26     :   0.421801
 C23     -C24     -C25     -H56     :-179.740833
 C23     -C28     -C27     -C26     :   0.549223
 C23     -C28     -C27     -H58     :-179.299700
 C24     -C23     -C28     -C27     :  -0.501907
 C24     -C23     -C28     -H59     :-177.222650
 C24     -C25     -C26     -C27     :  -0.381911
 C24     -C25     -C26     -H57     : 179.230315
 C25     -C24     -C23     -C28     :   0.016620
 C25     -C26     -C27     -C28     :  -0.075670
 C25     -C26     -C27     -H58     : 179.775393
 C26     -C25     -C24     -H55     : 176.785067
 C26     -C27     -C28     -H59     : 177.490866
 C27     -C26     -C25     -H56     : 179.779681
 C28     -C23     -C24     -H55     :-176.135750
 C28     -C27     -C26     -H57     :-179.688441
 H50     -C18     -C19     -H51     :  -2.918018
 H51     -C19     -C20     -H52     :  -1.108782
 H52     -C20     -C21     -H53     :   0.008447
 H53     -C21     -C22     -H54     :  -0.330674
 H55     -C24     -C25     -H56     :  -3.377567
 H56     -C25     -C26     -H57     :  -0.608094
 H57     -C26     -C27     -H58     :   0.162623
 H58     -C27     -C28     -H59     :  -2.358057
 
  nuclear repulsion energy.......          2271.554208337 hartrees
 
 Non-default options chosen:
   SCF calculation type: DFT(b3pw91-d3)              
   DFT=Becke_3_Parameter/HF+Slater+Becke88+PW91+PW-GGAIIC (B3PW91-D3)
   Geometry will be optimized in redundant internal coordinates
   Solvation energy will be computed using PBF
     -solute cavity energy will not be included
     -surface area terms will not be included
   Vibrational frequencies and related properties will be computed
      from analytic second derivatives
   IR intensities will be computed
   Thermochemical properties will be computed
   Maximum number of geometry steps: 100
   Scaling standard convergence criteria by a factor of   5.00
   Solvent: benzene                                                         
   Internal dielectric constant:    1.000
   Continuum dielectric constant:   2.283
   Solvent probe molecule radius:   2.600
  
 Non-default print settings:
     11=  2
  
 Temporary integer options set:
     73=  2
  
  atom       vdw   vdw2    cov     mass  grid  daf  charge   basis
  P1        2.147  2.074  1.060   30.974    Y    Y      Y    ps_6-31g*
  C6        1.949  1.900  0.770   12.000    Y    Y      Y    ps_6-31g*
  C7        1.949  1.900  0.770   12.000    Y    Y      Y    ps_6-31g*
  C8        1.949  1.900  0.770   12.000    Y    Y      Y    ps_6-31g*
  C9        1.949  1.900  0.770   12.000    Y    Y      Y    ps_6-31g*
  C10       1.949  1.900  0.770   12.000    Y    Y      Y    ps_6-31g*
  C11       1.949  1.900  0.770   12.000    Y    Y      Y    ps_6-31g*
  C12       1.949  1.900  0.770   12.000    Y    Y      Y    ps_6-31g*
  C13       1.949  1.900  0.770   12.000    Y    Y      Y    ps_6-31g*
  C14       1.949  1.900  0.770   12.000    Y    Y      Y    ps_6-31g*
  C15       1.949  1.900  0.770   12.000    Y    Y      Y    ps_6-31g*
  C16       1.949  1.900  0.770   12.000    Y    Y      Y    ps_6-31g*
  C17       1.949  1.900  0.770   12.000    Y    Y      Y    ps_6-31g*
  C18       1.949  1.900  0.770   12.000    Y    Y      Y    ps_6-31g*
  C19       1.949  1.900  0.770   12.000    Y    Y      Y    ps_6-31g*
  C20       1.949  1.900  0.770   12.000    Y    Y      Y    ps_6-31g*
  C21       1.949  1.900  0.770   12.000    Y    Y      Y    ps_6-31g*
  C22       1.949  1.900  0.770   12.000    Y    Y      Y    ps_6-31g*
  C23       1.949  1.900  0.770   12.000    Y    Y      Y    ps_6-31g*
  C24       1.949  1.900  0.770   12.000    Y    Y      Y    ps_6-31g*
  C25       1.949  1.900  0.770   12.000    Y    Y      Y    ps_6-31g*
  C26       1.949  1.900  0.770   12.000    Y    Y      Y    ps_6-31g*
  C27       1.949  1.900  0.770   12.000    Y    Y      Y    ps_6-31g*
  C28       1.949  1.900  0.770   12.000    Y    Y      Y    ps_6-31g*
  H29       1.597  1.150  0.320    1.008    Y    Y      Y    ps_6-31g*
  H30       1.597  1.150  0.320    1.008    Y    Y      Y    ps_6-31g*
  H31       1.597  1.150  0.320    1.008    Y    Y      Y    ps_6-31g*
  H32       1.597  1.150  0.320    1.008    Y    Y      Y    ps_6-31g*
  H33       1.597  1.150  0.320    1.008    Y    Y      Y    ps_6-31g*
  H34       1.597  1.150  0.320    1.008    Y    Y      Y    ps_6-31g*
  H35       1.597  1.150  0.320    1.008    Y    Y      Y    ps_6-31g*
  H36       1.597  1.150  0.320    1.008    Y    Y      Y    ps_6-31g*
  H37       1.597  1.150  0.320    1.008    Y    Y      Y    ps_6-31g*
  H38       1.597  1.150  0.320    1.008    Y    Y      Y    ps_6-31g*
  H39       1.597  1.150  0.320    1.008    Y    Y      Y    ps_6-31g*
  H40       1.597  1.150  0.320    1.008    Y    Y      Y    ps_6-31g*
  H41       1.597  1.150  0.320    1.008    Y    Y      Y    ps_6-31g*
  H42       1.597  1.150  0.320    1.008    Y    Y      Y    ps_6-31g*
  H43       1.597  1.150  0.320    1.008    Y    Y      Y    ps_6-31g*
  H44       1.597  1.150  0.320    1.008    Y    Y      Y    ps_6-31g*
  H45       1.597  1.150  0.320    1.008    Y    Y      Y    ps_6-31g*
  H46       1.597  1.150  0.320    1.008    Y    Y      Y    ps_6-31g*
  H47       1.597  1.150  0.320    1.008    Y    Y      Y    ps_6-31g*
  H48       1.597  1.150  0.320    1.008    Y    Y      Y    ps_6-31g*
  H49       1.597  1.150  0.320    1.008    Y    Y      Y    ps_6-31g*
  H50       1.597  1.150  0.320    1.008    Y    Y      Y    ps_6-31g*
  H51       1.597  1.150  0.320    1.008    Y    Y      Y    ps_6-31g*
  H52       1.597  1.150  0.320    1.008    Y    Y      Y    ps_6-31g*
  H53       1.597  1.150  0.320    1.008    Y    Y      Y    ps_6-31g*
  H54       1.597  1.150  0.320    1.008    Y    Y      Y    ps_6-31g*
  H55       1.597  1.150  0.320    1.008    Y    Y      Y    ps_6-31g*
  H56       1.597  1.150  0.320    1.008    Y    Y      Y    ps_6-31g*
  H57       1.597  1.150  0.320    1.008    Y    Y      Y    ps_6-31g*
  H58       1.597  1.150  0.320    1.008    Y    Y      Y    ps_6-31g*
  H59       1.597  1.150  0.320    1.008    Y    Y      Y    ps_6-31g*
  
  end of program pre
   
 Time(pre)  user:       0.868  user+sys:       0.868  wallclock:       1.292
  
  start of program onee
  
  smallest eigenvalue of S:    4.306E-04
  number of canonical orbitals.....          400
  end of program onee
   
 Time(onee)  user:       0.427  user+sys:       0.427  wallclock:       0.531
  
  start of program hfig
  
  initial wavefunction generated automatically from atomic wavefunctions
 
  Irreducible     Total no   No of occupied orbitals 
  representation  orbitals   Shell_1  Shell_2    ...
  No Symm          400         92
  ------------------------
  Orbital occupation/shell    1.000
 
  end of program hfig
   
 Time(hfig)  user:       0.688  user+sys:       0.688  wallclock:       0.892
  
  start of program probe
  
  end of program probe
   
 Time(probe)  user:       0.341  user+sys:       0.341  wallclock:       0.334
  
  start of program grid
  
   grid     grid set  grid #  grid sym
  ------    --------  ------  --------
  coarse        0        0        1
  medium        2        1        1
  fine          0        0        1
  ultrafine     4        2        1
  charge       -1        3        1
  gradient      4        2        1
  density       0        0        1
  DFT-fine    -11        4        1
  DFT-med.    -10        5        1
  DFT-grad    -12        6        1
  DFT-der2     -8        7        1
  DFT-cphf     -9        8        1
  LMP2-enrg     4        2        1
  LMP2-grad     2        1        1
  DFT-cphf2   -15        9        1
  PBF-dens      0        0        1
  plotting      0        0        1
  Rel-grad    -17        0        1
  
  number of gridpoints: 
     atom           P1          C6          C7          C8          C9         C10         C11
  grid # 1         553          78          97          79          78          96          78
  grid # 2         553         273         346         272         273         346         276
  grid # 3          33           6           6           6           6           6           6
  grid # 4        4304        4304        4304        4304        4304        4304        4304
  grid # 5        1192        1192        1192        1192        1192        1192        1192
  grid # 6        8076        5226        5226        5226        5226        5226        5226
  grid # 7       22092       12650       12650       12650       12650       12650       12650
  grid # 8         634         688         688         688         688         688         688
  grid # 9         340         358         358         358         358         358         358
   
  number of gridpoints: 
     atom          C12         C13         C14         C15         C16         C17         C18
  grid # 1          79          78          98         101          79          98          94
  grid # 2         274         272         363         362         267         365         335
  grid # 3           6           6          11          28           6          33          33
  grid # 4        4304        4304        4304        4304        4304        4304        4304
  grid # 5        1192        1192        1192        1192        1192        1192        1192
  grid # 6        5226        5226        5226        5226        5226        5226        5226
  grid # 7       12650       12650       12650       12650       12650       12650       12650
  grid # 8         688         688         688         688         688         688         688
  grid # 9         358         358         358         358         358         358         358
   
  number of gridpoints: 
     atom          C19         C20         C21         C22         C23         C24         C25
  grid # 1          97          97          97          94          97          94          96
  grid # 2         343         341         341         334         360         334         343
  grid # 3          47          52          49          32          20          25          44
  grid # 4        4304        4304        4304        4304        4304        4304        4304
  grid # 5        1192        1192        1192        1192        1192        1192        1192
  grid # 6        5226        5226        5226        5226        5226        5226        5226
  grid # 7       12650       12650       12650       12650       12650       12650       12650
  grid # 8         688         688         688         688         688         688         688
  grid # 9         358         358         358         358         358         358         358
   
  number of gridpoints: 
     atom          C26         C27         C28         H29         H30         H31         H32
  grid # 1          97          97          94         103         104         107         109
  grid # 2         342         343         334         416         418         428         432
  grid # 3          52          45          25         154         170         254         295
  grid # 4        4304        4304        4304        4304        4304        4304        4304
  grid # 5        1192        1192        1192        1192        1192        1192        1192
  grid # 6        5226        5226        5226        5226        5226        5226        5226
  grid # 7       12650       12650       12650       13718       13718       13718       13718
  grid # 8         688         688         688         744         744         744         744
  grid # 9         358         358         358         382         382         382         382
   
  number of gridpoints: 
     atom          H33         H34         H35         H36         H37         H38         H39
  grid # 1         107         106         103         107         108         106         104
  grid # 2         429         428         413         429         433         424         420
  grid # 3         269         224         145         273         281         217         200
  grid # 4        4304        4304        4304        4304        4304        4304        4304
  grid # 5        1192        1192        1192        1192        1192        1192        1192
  grid # 6        5226        5226        5226        5226        5226        5226        5226
  grid # 7       13718       13718       13718       13718       13718       13718       13718
  grid # 8         744         744         744         744         744         744         744
  grid # 9         382         382         382         382         382         382         382
   
  number of gridpoints: 
     atom          H40         H41         H42         H43         H44         H45         H46
  grid # 1         107         102         104         107         104         107         101
  grid # 2         431         419         416         428         413         427         408
  grid # 3         269         166         174         270         152         262         155
  grid # 4        4304        4304        4304        4304        4304        4304        4304
  grid # 5        1192        1192        1192        1192        1192        1192        1192
  grid # 6        5226        5226        5226        5226        5226        5226        5226
  grid # 7       13718       13718       13718       13718       13718       13718       13718
  grid # 8         744         744         744         744         744         744         744
  grid # 9         382         382         382         382         382         382         382
   
  number of gridpoints: 
     atom          H47         H48         H49         H50         H51         H52         H53
  grid # 1         106         100         102         107         118         118         117
  grid # 2         427         407         405         425         450         454         447
  grid # 3         226         131          92         237         412         434         377
  grid # 4        4304        4304        4304        4304        4304        4304        4304
  grid # 5        1192        1192        1192        1192        1192        1192        1192
  grid # 6        5226        5226        5226        5226        5226        5226        5226
  grid # 7       13718       13718       13718       13718       13718       13718       13718
  grid # 8         744         744         744         744         744         744         744
  grid # 9         382         382         382         382         382         382         382
   
  number of gridpoints: 
     atom          H54         H55         H56         H57         H58         H59       total
  grid # 1         100         108         118         118         118         108        5980
  grid # 2         396         432         449         451         450         423       21220
  grid # 3          58         250         416         431         416         208        8201
  grid # 4        4304        4304        4304        4304        4304        4304      236720
  grid # 5        1192        1192        1192        1192        1192        1192       65560
  grid # 6        5226        5226        5226        5226        5226        5226      290280
  grid # 7       13718       13718       13718       13718       13718       13718      738300
  grid # 8         744         744         744         744         744         744       39522
  grid # 9         382         382         382         382         382         382       20416
   
  end of program grid
   
 Time(grid)  user:      64.011  user+sys:      64.011  wallclock:      33.814
  
  start of program rwr
  
  end of program rwr
   
 Time(rwr)  user:       9.156  user+sys:       9.156  wallclock:      11.684
  
  start of program scf
  
 number of electrons..........        184
 number of alpha electrons....         92
 number of beta electrons.....         92
 number of orbitals, total....        400
 number of doubly-occ'd orbs..         92
 number of open shell orbs....          0
 number of occupied orbitals..         92
 number of virtual orbitals...        308
 number of hamiltonians.......          1
 number of shells.............          1
 SCF type: DFT=Becke_3_Parameter/HF+Slater+Becke88+PW91+PW-GGAIIC (B3PW91-D3)
 Energy computed using pseudospectral method.
 Convergence Criterion:
    Energy (econv):       1.00E-05
    RMS density (dconv):  5.00E-06
  
       i  u  d  i  g                   
       t  p  i  c  r                                 RMS    maximum
       e  d  i  u  i                       energy  density   DIIS  
       r  t  s  t  d       total energy    change  change    error 
  
etot    1  N  N  5  M   -1233.38458981578           3.8E-03  9.9E-02
etot    2  Y  Y  6  M   -1235.65393971298  2.3E+00  3.0E-03  2.9E-02
etot    3  Y  Y  6  M   -1235.80577647769  1.5E-01  1.3E-03  2.6E-02
etot    4  N  Y  2  U   -1235.96287747411  1.6E-01  7.8E-04  1.9E-02
etot    5  Y  Y  6  M   -1235.99339211920  3.1E-02  3.2E-04  1.1E-02
etot    6  N  Y  2  U   -1235.99473942308  1.3E-03  5.8E-04  7.0E-03
etot    7  Y  Y  6  M   -1235.99581517551  1.1E-03  1.0E-04  1.9E-03
etot    8  Y  Y  6  M   -1235.99708044049  1.3E-03  2.4E-05  4.2E-04
etot    9  N  Y  2  U   -1235.99726159904  1.8E-04  9.6E-06  1.3E-04
etot   10  N  Y  2  U   -1235.99726339257  1.8E-06  2.8E-06  4.1E-05
etot   11  N  N  2  U   -1235.99726376310  3.7E-07  0.0E+00  0.0E+00
 
  Computing the dispersion energy correction and its gradients...
  
  
 Energy components, in hartrees:
   (A)  Nuclear repulsion............    2271.55420833738
   (E)  Total one-electron terms.....   -6198.56538067745
   (F)    Electron-nuclear...........   -7427.12965994405
   (H)    Kinetic....................    1228.56427926660
   (I)  Total two-electron terms.....    2691.01390857697
   (J)    Coulomb....................    2850.26529457736
   (K)    Exchange+Correlation.......    -159.25138600040
   (L)  Electronic energy............   -3507.55147210049  (E+I)
   (M)  -V/T.........................       2.00605013887  (-(A+F+I)/H)
   (N0) D3 correction................      -0.07560839139
   (N)  Total energy.................   -1236.07287215449  (A+L+N0)
   (O)  Gas phase energy.............   -1236.07287215449
  
 SCFE: SCF energy: DFT(b3pw91-d3)     -1236.07287215449 hartrees   iterations:  11
  
 
 HOMO energy:    -0.18699
 LUMO energy:    -0.05061
 
  Orbital energies (hartrees): 
   -77.02926   -10.19744   -10.19670   -10.19506   -10.18972   -10.18555
   -10.18547   -10.17634   -10.17589   -10.17525   -10.17486   -10.17431
   -10.17040   -10.16843   -10.16834   -10.16760   -10.16492   -10.16387
   -10.16262   -10.16054   -10.15923   -10.15804   -10.15483   -10.15471
    -6.53322    -4.69147    -4.69115    -4.68572    -0.86633    -0.84721
    -0.82388    -0.80754    -0.80291    -0.75732    -0.74443    -0.73945
    -0.73342    -0.68751    -0.68371    -0.68096    -0.67791    -0.67354
    -0.64124    -0.61013    -0.60094    -0.59172    -0.58722    -0.55322
    -0.54312    -0.51964    -0.50762    -0.48789    -0.46623    -0.46079
    -0.45801    -0.44684    -0.44522    -0.44031    -0.43887    -0.43423
    -0.42552    -0.42301    -0.41826    -0.41289    -0.40994    -0.40086
    -0.39740    -0.38779    -0.38632    -0.37947    -0.37426    -0.36899
    -0.36413    -0.36234    -0.35832    -0.35698    -0.35500    -0.34576
    -0.33539    -0.33059    -0.32886    -0.32533    -0.32203    -0.31978
    -0.30727    -0.30165    -0.28961    -0.25076    -0.24843    -0.24169
    -0.21342    -0.18699    -0.05061    -0.00959    -0.00163     0.00594
     0.04781     0.05793     0.06985     0.07569     0.08557     0.09803
 
  end of program scf
   
 Time(scf)  user:     144.364  user+sys:     144.364  wallclock:      78.833
  
  start of program der1a
  
  end of program der1a
   
 Time(der1a)  user:       0.776  user+sys:       0.776  wallclock:       0.941
  
  start of program rwr
  
  end of program rwr
   
 Time(rwr)  user:       9.604  user+sys:       9.604  wallclock:      13.010
  
  start of program der1b
  
   
  forces (hartrees/bohr) : total     
   
 atom  label           x              y              z
 ---- --------   -------------  -------------  -------------
    1 P1         -2.950775E-02   1.761204E-02   3.685075E-02
    2 C6          8.026155E-03  -8.715001E-03  -1.768712E-02
    3 C7          3.933133E-02  -9.495705E-03  -2.160513E-02
    4 C8         -8.963577E-03  -1.062276E-02   9.071200E-03
    5 C9         -1.259921E-02   1.780780E-02   9.846469E-03
    6 C10        -1.284145E-02   1.442598E-02  -2.972045E-02
    7 C11        -2.628891E-03   5.947613E-03   1.105646E-02
    8 C12        -8.451012E-03  -1.452664E-02   5.023817E-03
    9 C13         1.530717E-02   5.167875E-03  -1.115518E-02
   10 C14         1.609281E-02   1.066153E-03  -1.885041E-02
   11 C15        -1.530222E-03   3.168270E-03   1.149306E-02
   12 C16         3.789561E-03  -1.013873E-03  -2.284741E-02
   13 C17        -2.855999E-03  -6.188504E-03   1.733904E-02
   14 C18        -1.243035E-03  -1.343773E-02   1.384127E-02
   15 C19         4.943877E-04   5.174150E-03   2.335211E-04
   16 C20        -6.830953E-04  -2.188388E-04   1.853420E-04
   17 C21         1.680838E-03  -5.729433E-03  -1.033217E-03
   18 C22        -3.054809E-03   2.015353E-02  -3.657608E-03
   19 C23        -1.559516E-02  -1.329833E-02  -5.729221E-03
   20 C24        -1.819239E-02  -5.755312E-04  -8.963084E-03
   21 C25         3.350772E-03   3.799499E-04   6.941608E-04
   22 C26         1.481803E-03   2.588288E-03   1.237171E-03
   23 C27        -7.033055E-03  -4.671132E-04   9.459431E-04
   24 C28         2.211267E-02  -7.284078E-03   3.225285E-03
   25 H29        -1.044723E-03  -5.075134E-03   6.699780E-03
   26 H30        -2.139680E-03   1.363327E-02   4.478599E-03
   27 H31        -7.861551E-03  -3.267357E-04   5.736119E-03
   28 H32        -3.508482E-03  -3.921984E-03  -6.293407E-03
   29 H33        -8.536891E-03   2.161941E-03  -4.395853E-03
   30 H34         1.602533E-03   7.862687E-03   4.247709E-03
   31 H35         4.897313E-03  -6.052282E-03   5.319591E-03
   32 H36        -6.593119E-03  -7.150793E-03  -2.487469E-03
   33 H37        -2.236169E-03  -2.201389E-03  -1.042933E-02
   34 H38        -6.844420E-03  -4.675484E-03   8.533440E-04
   35 H39         9.250042E-03  -2.046456E-04  -3.649177E-03
   36 H40         6.997731E-03  -9.129018E-03   3.146670E-03
   37 H41         9.194152E-03   1.644055E-03  -6.124709E-03
   38 H42        -9.730475E-04   7.521618E-03   5.237738E-03
   39 H43         8.404725E-03   7.932064E-04   4.399613E-03
   40 H44        -7.123793E-03  -1.057755E-02  -1.518558E-03
   41 H45        -1.322143E-03  -3.992314E-03   7.563864E-03
   42 H46         1.961966E-05   7.056753E-03   5.962160E-03
   43 H47         7.664314E-03  -7.501699E-04   1.182483E-02
   44 H48        -1.117142E-02   1.989339E-03  -6.971729E-03
   45 H49         2.732620E-03  -3.323094E-03   1.203955E-02
   46 H50         3.848820E-03   8.301301E-03  -3.138487E-03
   47 H51         5.823380E-03   3.944753E-03  -7.313956E-03
   48 H52         5.533761E-03  -3.640230E-03  -7.478713E-03
   49 H53         2.391271E-03  -9.302267E-03  -3.414200E-03
   50 H54         1.174554E-03  -6.239152E-03   2.920568E-04
   51 H55         1.175563E-02  -2.562677E-03  -3.878975E-03
   52 H56         1.044948E-02   6.473420E-03  -5.494815E-04
   53 H57         1.201387E-03   7.008360E-03   1.419382E-03
   54 H58        -6.061783E-03   8.914242E-03   4.120225E-03
   55 H59        -1.347691E-02   6.479940E-04   4.437831E-03
 -------------   -------------  -------------  -------------
     total        5.350502E-04   7.461164E-04  -7.032752E-05
   
  end of program der1b
   
 Time(der1b)  user:      58.872  user+sys:      58.872  wallclock:      31.471
  
  start of program geopt
  
 ----------------------------------------------------------------------------
  Geometry optimization step  1
  Total energy:     -1236.07287215449 hartrees
 ----------------------------------------------------------------------------
  
  
  Level shifts adjusted to satisfy step-size constraints
   Step size:    0.3000551
   Cos(theta):   0.9083573
   Final level shift:  -2.2172219E-01
  
  gradient maximum:        4.7520E-02 .  (  2.2500E-03 )
  gradient rms:            1.1041E-02 .  (  1.5000E-03 )
  displacement maximum:    1.0250E-01 .  (  9.0000E-03 )
  displacement rms:        2.2552E-02 .  (  6.0000E-03 )
  
  predicted energy change:  -2.9998E-02
  step size:     0.30004
  trust radius:  0.30000
  
  molecular structure not yet converged...
  
  center of mass moved by:
     x:     9.3599E-03     y:     3.5423E-04     z:     4.2483E-04
  
  new geometry: 
                                   angstroms
  atom               x                 y                 z
  P1           -0.1083844031      0.0320196522      0.0176503361 
  C6            2.4235348732     -0.0682744060     -1.5507990626 
  C7            1.7399911515      0.2853177782     -0.2060150019 
  C8            2.4426863389     -0.5687784663      0.8763374458 
  C9            2.0189122026      1.7675421271      0.0944193026 
  C10          -1.0753920542      1.0551915062     -1.2932070170 
  C11          -1.4871889442      2.4106771208     -0.6825146934 
  C12          -2.3487168779      0.3188837754     -1.7716284832 
  C13          -0.2769221175      1.3730491752     -2.5736295793 
  C14          -0.6187223662     -1.6902597936     -0.4113331790 
  C15          -1.5681349446     -2.4278441430      0.2517131832 
  C16           0.0808213820     -2.1795434113     -1.6655266569 
  C17          -2.4166740353     -1.8769452505      1.3577055324 
  C18          -3.0759632682     -2.7245590502      2.2785166242 
  C19          -3.8458199789     -2.2497623847      3.3357196749 
  C20          -3.9849014447     -0.8776928584      3.5507074054 
  C21          -3.3259302013     -0.0090322153      2.6859327465 
  C22          -2.5630942261     -0.5071558303      1.6301096395 
  C23          -1.8593054679     -3.8418216567     -0.1507690351 
  C24          -3.1833643752     -4.3305899134     -0.1726467586 
  C25          -3.5064530451     -5.6284284846     -0.5593741359 
  C26          -2.5032484551     -6.5144373373     -0.9469559388 
  C27          -1.1810430958     -6.0722045789     -0.9365558828 
  C28          -0.8781370372     -4.7671989967     -0.5513246139 
  H29           2.0385305248      0.4912780714     -2.4096836847 
  H30           2.3677613470     -1.1424107172     -1.7910583290 
  H31           3.5021618299      0.1689120528     -1.5064941455 
  H32           2.1564788086     -0.2640392013      1.8943962631 
  H33           3.5357658769     -0.4530757526      0.8082970636 
  H34           2.2165273722     -1.6408539806      0.7515977394 
  H35           1.4790734519      2.4494166481     -0.5819059670 
  H36           3.0928437815      1.9908436564     -0.0031182871 
  H37           1.7267986098      2.0333968336      1.1251510986 
  H38          -0.6148547110      2.9846178362     -0.3358688296 
  H39          -2.1864485901      2.2996868826      0.1620716281 
  H40          -2.0057677134      3.0314761295     -1.4355172301 
  H41          -3.0590645142      0.0871550585     -0.9634305642 
  H42          -2.1138394584     -0.6283258730     -2.2805688424 
  H43          -2.8966846881      0.9451993826     -2.4939963352 
  H44           0.5922609065      2.0240309429     -2.3771185226 
  H45          -0.8985218861      1.9310051787     -3.2945501459 
  H46           0.0658236808      0.4690807622     -3.0985137320 
  H47          -0.4907680708     -2.9306754036     -2.2339798489 
  H48           1.1024120292     -2.5480690163     -1.4678966554 
  H49           0.1874477336     -1.3494354096     -2.3831948897 
  H50          -2.9524163526     -3.8047516744      2.2322395247 
  H51          -4.3248310113     -2.9579176220      4.0154460577 
  H52          -4.5861011704     -0.4951898208      4.3789914258 
  H53          -3.3992281335      1.0715025387      2.8249999509 
  H54          -2.0801620072      0.2320789895      1.0052620487 
  H55          -4.0188789217     -3.6664385180      0.0546838706 
  H56          -4.5518889216     -5.9491305246     -0.5613331674 
  H57          -2.7440295286     -7.5362307762     -1.2438643308 
  H58          -0.3774723510     -6.7519978560     -1.2299566450 
  H59           0.1800675200     -4.5078085877     -0.5208580264 
   
 
  bond lengths (angstroms):
 
 P1      -C7      :   1.879010      P1      -C10     :   1.923625
 P1      -C14     :   1.846813      C6      -C7      :   1.549420
 C6      -H29     :   1.094993      C6      -H30     :   1.102091
 C6      -H31     :   1.105286      C7      -C8      :   1.547497
 C7      -C9      :   1.537871      C8      -H32     :   1.100556
 C8      -H33     :   1.101290      C8      -H34     :   1.102748
 C9      -H35     :   1.101723      C9      -H36     :   1.101229
 C9      -H37     :   1.103819      C10     -C11     :   1.542680
 C10     -C12     :   1.546736      C10     -C13     :   1.542099
 C11     -H38     :   1.100245      C11     -H39     :   1.102093
 C11     -H40     :   1.105137      C12     -H41     :   1.100671
 C12     -H42     :   1.100633      C12     -H43     :   1.101978
 C13     -H44     :   1.103573      C13     -H45     :   1.103371
 C13     -H46     :   1.100062      C14     -C15     :   1.372970
 C14     -C16     :   1.517156      C15     -C17     :   1.498909
 C15     -C23     :   1.498701      C16     -H47     :   1.101841
 C16     -H48     :   1.103864      C16     -H49     :   1.102495
 C17     -C18     :   1.414569      C17     -C22     :   1.404267
 C18     -C19     :   1.391327      C18     -H50     :   1.088219
 C19     -C20     :   1.395757      C19     -H51     :   1.092229
 C20     -C21     :   1.391636      C20     -H52     :   1.092613
 C21     -C22     :   1.394564      C21     -H53     :   1.091910
 C22     -H54     :   1.081724      C23     -C24     :   1.411561
 C23     -C28     :   1.406933      C24     -C25     :   1.392239
 C24     -H55     :   1.091266      C25     -C26     :   1.393431
 C25     -H56     :   1.093522      C26     -C27     :   1.394240
 C26     -H57     :   1.090959      C27     -C28     :   1.393985
 C27     -H58     :   1.092671      C28     -H59     :   1.089958
 
  bond angles:
 
 C10     -P1      -C7      : 109.979714  C14     -P1      -C7      : 111.709061
 C14     -P1      -C10     : 101.468425  H29     -C6      -C7      : 114.145077
 H30     -C6      -C7      : 112.911314  H30     -C6      -H29     : 108.014552
 H31     -C6      -C7      : 110.289136  H31     -C6      -H29     : 105.361372
 H31     -C6      -H30     : 105.502162  C6      -C7      -P1      : 120.432134
 C8      -C7      -P1      : 106.799651  C8      -C7      -C6      : 106.306085
 C9      -C7      -P1      : 106.563844  C9      -C7      -C6      : 108.028804
 C9      -C7      -C8      : 108.237497  H32     -C8      -C7      : 112.091088
 H33     -C8      -C7      : 110.456873  H33     -C8      -H32     : 106.629312
 H34     -C8      -C7      : 111.366118  H34     -C8      -H32     : 108.693010
 H34     -C8      -H33     : 107.380011  H35     -C9      -C7      : 112.813074
 H36     -C9      -C7      : 110.793868  H36     -C9      -H35     : 107.336061
 H37     -C9      -C7      : 111.503609  H37     -C9      -H35     : 107.127244
 H37     -C9      -H36     : 106.974593  C11     -C10     -P1      : 109.376956
 C12     -C10     -P1      : 111.802955  C12     -C10     -C11     : 108.721569
 C13     -C10     -P1      : 114.529584  C13     -C10     -C11     : 106.606464
 C13     -C10     -C12     : 105.518663  H38     -C11     -C10     : 111.803838
 H39     -C11     -C10     : 112.597060  H39     -C11     -H38     : 108.308916
 H40     -C11     -C10     : 110.432601  H40     -C11     -H38     : 107.078679
 H40     -C11     -H39     : 106.320348  H41     -C12     -C10     : 113.853466
 H42     -C12     -C10     : 112.149788  H42     -C12     -H41     : 107.221907
 H43     -C12     -C10     : 109.971871  H43     -C12     -H41     : 106.264523
 H43     -C12     -H42     : 106.985446  H44     -C13     -C10     : 112.429360
 H45     -C13     -C10     : 110.795954  H45     -C13     -H44     : 105.174593
 H46     -C13     -C10     : 112.837707  H46     -C13     -H44     : 108.923363
 H46     -C13     -H45     : 106.219299  C15     -C14     -P1      : 125.443698
 C16     -C14     -P1      : 111.429839  C16     -C14     -C15     : 123.012083
 C17     -C15     -C14     : 123.391275  C23     -C15     -C14     : 120.763979
 C23     -C15     -C17     : 115.780773  H47     -C16     -C14     : 114.025821
 H48     -C16     -C14     : 112.729847  H48     -C16     -H47     : 110.174018
 H49     -C16     -C14     : 109.870425  H49     -C16     -H47     : 103.156965
 H49     -C16     -H48     : 106.165033  C18     -C17     -C15     : 121.596226
 C22     -C17     -C15     : 124.102119  C22     -C17     -C18     : 114.181096
 C19     -C18     -C17     : 123.232167  H50     -C18     -C17     : 120.943176
 H50     -C18     -C19     : 115.713439  C20     -C19     -C18     : 120.506724
 H51     -C19     -C18     : 119.623063  H51     -C19     -C20     : 119.854327
 C21     -C20     -C19     : 118.080258  H52     -C20     -C19     : 121.046580
 H52     -C20     -C21     : 120.870907  C22     -C21     -C20     : 120.432983
 H53     -C21     -C20     : 120.448798  H53     -C21     -C22     : 119.118218
 C21     -C22     -C17     : 123.526294  H54     -C22     -C17     : 120.531020
 H54     -C22     -C21     : 115.940813  C24     -C23     -C15     : 120.869670
 C28     -C23     -C15     : 124.160552  C28     -C23     -C24     : 114.960491
 C25     -C24     -C23     : 123.008698  H55     -C24     -C23     : 120.278997
 H55     -C24     -C25     : 116.585215  C26     -C25     -C24     : 120.193425
 H56     -C25     -C24     : 119.718966  H56     -C25     -C26     : 120.087233
 C27     -C26     -C25     : 118.620078  H57     -C26     -C25     : 120.819573
 H57     -C26     -C27     : 120.557930  C28     -C27     -C26     : 120.335929
 H58     -C27     -C26     : 119.873484  H58     -C27     -C28     : 119.790490
 C27     -C28     -C23     : 122.880170  H59     -C28     -C23     : 120.835800
 H59     -C28     -C27     : 116.198388
 
  torsional angles:
 
 P1      -C7      -C6      -H29     :  60.217442
 P1      -C7      -C6      -H30     : -63.658399
 P1      -C7      -C6      -H31     : 178.591739
 P1      -C7      -C8      -H32     : -60.463017
 P1      -C7      -C8      -H33     :-179.216623
 P1      -C7      -C8      -H34     :  61.556069
 P1      -C7      -C9      -H35     : -60.427850
 P1      -C7      -C9      -H36     : 179.206466
 P1      -C7      -C9      -H37     :  60.176685
 P1      -C10     -C11     -H38     :  58.392661
 P1      -C10     -C11     -H39     : -63.814368
 P1      -C10     -C11     -H40     : 177.509164
 P1      -C10     -C12     -H41     :  58.938856
 P1      -C10     -C12     -H42     : -63.033662
 P1      -C10     -C12     -H43     : 178.050615
 P1      -C10     -C13     -H44     : -64.508114
 P1      -C10     -C13     -H45     : 178.125292
 P1      -C10     -C13     -H46     :  59.169504
 P1      -C14     -C15     -C17     :   5.685371
 P1      -C14     -C15     -C23     :-177.347870
 P1      -C14     -C16     -H47     :-151.924427
 P1      -C14     -C16     -H48     :  81.482948
 P1      -C14     -C16     -H49     : -36.704571
 C6      -C7      -P1      -C10     : -58.668513
 C6      -C7      -P1      -C14     :  53.198901
 C6      -C7      -C8      -H32     : 169.775490
 C6      -C7      -C8      -H33     :  51.021885
 C6      -C7      -C8      -H34     : -68.205424
 C6      -C7      -C9      -H35     :  70.305329
 C6      -C7      -C9      -H36     : -50.060355
 C6      -C7      -C9      -H37     :-169.090136
 C7      -P1      -C10     -C11     : -95.040395
 C7      -P1      -C10     -C12     : 144.485533
 C7      -P1      -C10     -C13     :  24.531311
 C7      -P1      -C14     -C15     : 141.899620
 C7      -P1      -C14     -C16     : -41.906798
 C8      -C7      -P1      -C10     :-179.833613
 C8      -C7      -P1      -C14     : -67.966199
 C8      -C7      -C6      -H29     :-178.376049
 C8      -C7      -C6      -H30     :  57.748110
 C8      -C7      -C6      -H31     : -60.001752
 C8      -C7      -C9      -H35     :-174.978131
 C8      -C7      -C9      -H36     :  64.656185
 C8      -C7      -C9      -H37     : -54.373596
 C9      -C7      -P1      -C10     :  64.644365
 C9      -C7      -P1      -C14     : 176.511779
 C9      -C7      -C6      -H29     : -62.391904
 C9      -C7      -C6      -H30     : 173.732254
 C9      -C7      -C6      -H31     :  55.982393
 C9      -C7      -C8      -H32     :  53.932011
 C9      -C7      -C8      -H33     : -64.821594
 C9      -C7      -C8      -H34     : 175.951097
 C10     -P1      -C14     -C15     :-100.968726
 C10     -P1      -C14     -C16     :  75.224857
 C11     -C10     -P1      -C14     : 146.576780
 C11     -C10     -C12     -H41     : -61.916881
 C11     -C10     -C12     -H42     : 176.110600
 C11     -C10     -C12     -H43     :  57.194878
 C11     -C10     -C13     -H44     :  56.601035
 C11     -C10     -C13     -H45     : -60.765558
 C11     -C10     -C13     -H46     :-179.721346
 C12     -C10     -P1      -C14     :  26.102708
 C12     -C10     -C11     -H38     :-179.269828
 C12     -C10     -C11     -H39     :  58.523143
 C12     -C10     -C11     -H40     : -60.153325
 C12     -C10     -C13     -H44     : 172.095587
 C12     -C10     -C13     -H45     :  54.728994
 C12     -C10     -C13     -H46     : -64.226794
 C13     -C10     -P1      -C14     : -93.851514
 C13     -C10     -C11     -H38     : -65.949731
 C13     -C10     -C11     -H39     : 171.843240
 C13     -C10     -C11     -H40     :  53.166772
 C13     -C10     -C12     -H41     :-175.951268
 C13     -C10     -C12     -H42     :  62.076213
 C13     -C10     -C12     -H43     : -56.839509
 C14     -C15     -C17     -C18     :-160.460402
 C14     -C15     -C17     -C22     :  15.312462
 C14     -C15     -C23     -C24     :-139.966891
 C14     -C15     -C23     -C28     :  38.867608
 C15     -C14     -C16     -H47     :  24.377660
 C15     -C14     -C16     -H48     :-102.214965
 C15     -C14     -C16     -H49     : 139.597516
 C15     -C17     -C18     -C19     : 178.448889
 C15     -C17     -C18     -H50     :   2.449474
 C15     -C17     -C22     -C21     :-178.123104
 C15     -C17     -C22     -H54     :   2.395315
 C15     -C23     -C24     -C25     : 178.940790
 C15     -C23     -C24     -H55     :   3.181305
 C15     -C23     -C28     -C27     :-179.174231
 C15     -C23     -C28     -H59     :   4.320178
 C16     -C14     -C15     -C17     :-170.088469
 C16     -C14     -C15     -C23     :   6.878289
 C17     -C15     -C23     -C24     :  37.220802
 C17     -C15     -C23     -C28     :-143.944699
 C17     -C18     -C19     -C20     :  -1.113244
 C17     -C18     -C19     -H51     :-179.661345
 C17     -C22     -C21     -C20     :   0.676998
 C17     -C22     -C21     -H53     :-179.323729
 C18     -C17     -C15     -C23     :  22.433992
 C18     -C17     -C22     -C21     :  -2.069469
 C18     -C17     -C22     -H54     : 178.448950
 C18     -C19     -C20     -C21     :  -0.452128
 C18     -C19     -C20     -H52     :-179.910524
 C19     -C18     -C17     -C22     :   2.285179
 C19     -C20     -C21     -C22     :   0.665621
 C19     -C20     -C21     -H53     :-179.333643
 C20     -C19     -C18     -H50     : 175.078716
 C20     -C21     -C22     -H54     :-179.819575
 C21     -C20     -C19     -H51     : 178.092620
 C22     -C17     -C15     -C23     :-161.793144
 C22     -C17     -C18     -H50     :-173.714236
 C22     -C21     -C20     -H52     :-179.874988
 C23     -C24     -C25     -C26     :   0.107901
 C23     -C24     -C25     -H56     :-179.669315
 C23     -C28     -C27     -C26     :   0.440248
 C23     -C28     -C27     -H58     :-179.446292
 C24     -C23     -C28     -C27     :  -0.277678
 C24     -C23     -C28     -H59     :-176.783270
 C24     -C25     -C26     -C27     :   0.045142
 C24     -C25     -C26     -H57     : 179.482391
 C25     -C24     -C23     -C28     :   0.004549
 C25     -C26     -C27     -C28     :  -0.308688
 C25     -C26     -C27     -H58     : 179.577758
 C26     -C25     -C24     -H55     : 176.013163
 C26     -C27     -C28     -H59     : 177.096462
 C27     -C26     -C25     -H56     : 179.821532
 C28     -C23     -C24     -H55     :-175.754936
 C28     -C27     -C26     -H57     :-179.747460
 H50     -C18     -C19     -H51     :  -3.469385
 H51     -C19     -C20     -H52     :  -1.365776
 H52     -C20     -C21     -H53     :   0.125749
 H53     -C21     -C22     -H54     :   0.179698
 H55     -C24     -C25     -H56     :  -3.764053
 H56     -C25     -C26     -H57     :  -0.741219
 H57     -C26     -C27     -H58     :   0.138986
 H58     -C27     -C28     -H59     :  -2.790078
 
  nuclear repulsion energy.......          2289.564623746 hartrees
 -------------------------------------------------
   end of geometry optimization iteration  1
 -------------------------------------------------
   
  end of program geopt
   
 Time(geopt)  user:       0.565  user+sys:       0.565  wallclock:       0.866
  
  start of program onee
  
  smallest eigenvalue of S:    4.218E-04
  number of canonical orbitals.....          400
  end of program onee
   
 Time(onee)  user:       0.447  user+sys:       0.447  wallclock:       0.375
  
  start of program probe
  
  end of program probe
   
 Time(probe)  user:       0.347  user+sys:       0.347  wallclock:       0.302
  
  start of program grid
  
  end of program grid
   
 Time(grid)  user:      65.703  user+sys:      65.703  wallclock:      34.788
  
  start of program rwr
  
  end of program rwr
   
 Time(rwr)  user:       9.591  user+sys:       9.591  wallclock:      12.434
  
  start of program scf
  
 Energy computed using pseudospectral method.
 Convergence Criterion:
    Energy (econv):       1.00E-05
    RMS density (dconv):  5.00E-06
  
       i  u  d  i  g                   
       t  p  i  c  r                                 RMS    maximum
       e  d  i  u  i                       energy  density   DIIS  
       r  t  s  t  d       total energy    change  change    error 
  
etot    1  N  N  2  U   -1235.98540021961           6.0E-04  1.0E-02
etot    2  Y  Y  6  M   -1236.02011665727  3.5E-02  1.5E-04  1.4E-03
etot    3  N  Y  2  U   -1236.02011310335 -3.6E-06  8.9E-05  1.8E-03
etot    4  Y  Y  6  M   -1236.02093707863  8.2E-04  2.6E-05  4.5E-04
etot    5  N  Y  2  U   -1236.02090057362 -3.7E-05  9.9E-06  1.7E-04
etot    6  N  Y  2  U   -1236.02090656259  6.0E-06  3.8E-06  9.1E-05
etot    7  N  N  2  U   -1236.02090788682  1.3E-06  0.0E+00  0.0E+00
 
  Computing the dispersion energy correction and its gradients...
  
  
 Energy components, in hartrees:
   (A)  Nuclear repulsion............    2289.56462374591
   (E)  Total one-electron terms.....   -6234.65578530695
   (F)    Electron-nuclear...........   -7463.85585040984
   (H)    Kinetic....................    1229.20006510289
   (I)  Total two-electron terms.....    2709.07025367422
   (J)    Coulomb....................    2868.48998647083
   (K)    Exchange+Correlation.......    -159.41973279661
   (L)  Electronic energy............   -3525.58553163273  (E+I)
   (M)  -V/T.........................       2.00554900946  (-(A+F+I)/H)
   (N0) D3 correction................      -0.07684844630
   (N)  Total energy.................   -1236.09775633312  (A+L+N0)
   (O)  Gas phase energy.............   -1236.09775633312
  
 SCFE: SCF energy: DFT(b3pw91-d3)     -1236.09775633312 hartrees   iterations:   7
  
 
 HOMO energy:    -0.18868
 LUMO energy:    -0.04660
 
  Orbital energies (hartrees): 
   -77.02299   -10.19345   -10.19196   -10.19038   -10.18620   -10.18317
   -10.18059   -10.17352   -10.17348   -10.17248   -10.17178   -10.17123
   -10.16716   -10.16486   -10.16445   -10.16410   -10.16051   -10.15927
   -10.15767   -10.15732   -10.15555   -10.15499   -10.15253   -10.15098
    -6.52757    -4.68559    -4.68545    -4.68011    -0.86795    -0.85005
    -0.82424    -0.80557    -0.80229    -0.75579    -0.74600    -0.74227
    -0.73607    -0.69105    -0.68712    -0.68239    -0.68007    -0.67580
    -0.64048    -0.60978    -0.60258    -0.59161    -0.58809    -0.54962
    -0.54255    -0.52201    -0.51021    -0.48711    -0.46682    -0.46176
    -0.45871    -0.44868    -0.44631    -0.44203    -0.44034    -0.43343
    -0.42578    -0.42366    -0.41753    -0.41335    -0.41167    -0.40411
    -0.39946    -0.38928    -0.38648    -0.38246    -0.37496    -0.36916
    -0.36506    -0.36325    -0.36111    -0.35824    -0.35541    -0.34633
    -0.33971    -0.33378    -0.33101    -0.32775    -0.32422    -0.32093
    -0.30269    -0.29599    -0.28387    -0.25306    -0.25016    -0.24345
    -0.21184    -0.18868    -0.04660    -0.00838    -0.00146     0.01053
     0.05211     0.06651     0.07441     0.08333     0.08855     0.10247
 
  end of program scf
   
 Time(scf)  user:     122.690  user+sys:     122.690  wallclock:      66.565
  
  start of program der1a
  
  end of program der1a
   
 Time(der1a)  user:       0.807  user+sys:       0.807  wallclock:       0.859
  
  start of program rwr
  
  end of program rwr
   
 Time(rwr)  user:      10.192  user+sys:      10.192  wallclock:      13.544
  
  start of program der1b
  
   
  forces (hartrees/bohr) : total     
   
 atom  label           x              y              z
 ---- --------   -------------  -------------  -------------
    1 P1         -1.083449E-02   9.738226E-03   1.912416E-02
    2 C6          7.707309E-03  -2.996746E-03  -4.949315E-03
    3 C7          1.841771E-02  -8.411453E-03  -1.512519E-02
    4 C8         -3.632168E-03  -1.776426E-03   3.103470E-03
    5 C9         -5.004404E-03   7.456761E-03   5.680220E-03
    6 C10        -2.420812E-03   5.466319E-03  -1.839030E-02
    7 C11        -2.044731E-03   1.821116E-03   4.402344E-03
    8 C12        -3.709394E-03  -5.152439E-03   3.308169E-03
    9 C13         4.803488E-03   4.577998E-03  -4.527366E-03
   10 C14         1.023076E-02  -3.076107E-03  -1.102328E-02
   11 C15        -1.545391E-03   6.202507E-03   1.724631E-03
   12 C16        -4.977548E-03  -1.259550E-03  -1.098644E-02
   13 C17         2.342149E-03  -3.981448E-03   1.221839E-02
   14 C18         4.295211E-03  -8.303670E-03   4.098975E-03
   15 C19        -8.909233E-04   3.151846E-03   2.194767E-03
   16 C20        -8.639927E-04  -2.760515E-05   6.786620E-04
   17 C21         3.864603E-04  -1.588798E-03   1.033861E-03
   18 C22        -8.076166E-03   9.006636E-03  -5.034476E-03
   19 C23        -6.511957E-03  -5.687682E-03  -4.845453E-03
   20 C24        -8.669471E-03   6.592098E-03  -6.186003E-03
   21 C25         6.479492E-05  -1.738821E-03  -4.186661E-04
   22 C26         1.314596E-03  -1.579137E-03   6.034303E-04
   23 C27        -2.806918E-03  -1.349528E-03  -9.323414E-04
   24 C28         1.139384E-02  -3.972949E-04   5.755853E-03
   25 H29        -3.352336E-04  -2.545334E-03   3.773409E-03
   26 H30         4.401012E-04   8.285648E-03   2.317081E-03
   27 H31        -3.251299E-03   4.439540E-04   3.437350E-03
   28 H32        -2.346263E-03  -2.333714E-03  -3.099539E-03
   29 H33        -2.265074E-03   8.114253E-04  -2.146771E-03
   30 H34         4.617145E-04   3.613721E-03   1.416393E-03
   31 H35         4.218881E-03  -3.304276E-03   2.030241E-03
   32 H36        -1.836462E-03  -2.770747E-03  -6.434620E-04
   33 H37        -3.804591E-04  -1.581913E-03  -4.376791E-03
   34 H38        -3.474984E-03  -2.158413E-03   4.114405E-04
   35 H39         4.096345E-03  -8.758451E-04  -1.413831E-03
   36 H40         2.300304E-03  -3.669645E-03   1.149712E-03
   37 H41         4.332424E-03   3.629040E-04  -1.056188E-03
   38 H42        -4.380284E-04   3.742352E-03   1.945169E-03
   39 H43         3.200879E-03   8.077344E-04   1.727788E-03
   40 H44        -3.561412E-03  -5.575320E-03  -8.836271E-04
   41 H45        -1.830217E-03  -1.750638E-03   3.487401E-03
   42 H46        -1.122119E-03   4.061398E-03   2.460854E-03
   43 H47         3.491748E-03  -3.272473E-03   7.693123E-03
   44 H48        -7.356015E-03  -2.460694E-03  -1.626877E-03
   45 H49         1.856608E-03  -2.648854E-03   6.457653E-03
   46 H50         9.688962E-04   1.978592E-03  -4.237797E-03
   47 H51         1.899447E-03   1.304634E-03  -2.796746E-03
   48 H52         1.738452E-03  -1.589624E-03  -2.830853E-03
   49 H53         4.547132E-04  -3.117094E-03  -8.761114E-04
   50 H54        -2.874304E-03  -3.166002E-03   1.182424E-03
   51 H55         4.878655E-03   4.058860E-04   1.705053E-03
   52 H56         3.879805E-03   2.202247E-03  -1.442065E-04
   53 H57         3.884556E-04   2.536318E-03   4.746647E-04
   54 H58        -1.989952E-03   3.194295E-03   1.492603E-03
   55 H59        -3.581825E-03   3.584184E-03   1.143618E-03
 -------------   -------------  -------------  -------------
     total        9.317488E-04   1.201507E-03  -3.187200E-04
   
  end of program der1b
   
 Time(der1b)  user:      60.062  user+sys:      60.062  wallclock:      32.301
  
  start of program geopt
  
 ----------------------------------------------------------------------------
  Geometry optimization step  2
  Total energy:     -1236.09775633312 hartrees
 ----------------------------------------------------------------------------
  
  
  Level shifts adjusted to satisfy step-size constraints
   Step size:    0.3000177
   Cos(theta):   0.7492787
   Final level shift:  -1.3862449E-01
  
  energy change:          -2.4884E-02 .  (  2.5000E-04 )
  gradient maximum:        5.7851E-02 .  (  2.2500E-03 )
  gradient rms:            8.4131E-03 .  (  1.5000E-03 )
  displacement maximum:    8.3733E-02 .  (  9.0000E-03 )
  displacement rms:        2.2550E-02 .  (  6.0000E-03 )
  
  predicted energy change:  -1.8819E-02
  step size:     0.30000
  trust radius:  0.30000
  
  molecular structure not yet converged...
  
  center of mass moved by:
     x:     9.5541E-03     y:     2.4450E-02     z:    -1.4259E-02
  
  new geometry: 
                                   angstroms
  atom               x                 y                 z
  P1           -0.0957869819      0.0567842583     -0.0475755643 
  C6            2.5115296321     -0.0915065414     -1.6128507757 
  C7            1.7825903982      0.2237631607     -0.2875765971 
  C8            2.3489205896     -0.7240512124      0.7849726730 
  C9            2.0968596411      1.6740801809      0.1128548086 
  C10          -1.0944089438      1.1142667742     -1.3233298356 
  C11          -1.4241792176      2.4410413904     -0.6207692367 
  C12          -2.4023888115      0.3942025626     -1.6915442896 
  C13          -0.3756812638      1.4447178007     -2.6459549125 
  C14          -0.6250226874     -1.6810787897     -0.4316667657 
  C15          -1.5694256733     -2.3823077621      0.2790282929 
  C16           0.0170082745     -2.3003524480     -1.6597668665 
  C17          -2.4451852378     -1.8536231759      1.3700222932 
  C18          -3.0185149765     -2.7441088246      2.3019953777 
  C19          -3.8218594297     -2.3099022057      3.3452155790 
  C20          -4.0799345854     -0.9536803895      3.5215713850 
  C21          -3.5105890673     -0.0512174202      2.6319309056 
  C22          -2.7115432385     -0.4923560307      1.5875753483 
  C23          -1.8385099675     -3.7979149596     -0.1019241375 
  C24          -3.1547978600     -4.2748126549     -0.2225345531 
  C25          -3.4251333254     -5.5800275496     -0.6008786674 
  C26          -2.3836899120     -6.4610857103     -0.8747567087 
  C27          -1.0720253424     -6.0151484443     -0.7546140838 
  C28          -0.8059317562     -4.7050325009     -0.3783556466 
  H29           2.1692558528      0.5083459764     -2.4535665439 
  H30           2.4457023642     -1.1408203428     -1.8911888803 
  H31           3.5812252616      0.1291051218     -1.4878860238 
  H32           2.0247979267     -0.4380539494      1.7912856157 
  H33           3.4443769460     -0.6814140500      0.7641223503 
  H34           2.0499662666     -1.7632674896      0.6087049975 
  H35           1.6093584625      2.4085699361     -0.5324238996 
  H36           3.1784452077      1.8443339721      0.0605837601 
  H37           1.7658980924      1.8827652727      1.1361038763 
  H38          -0.5235249853      2.9714933752     -0.2998319958 
  H39          -2.0550255494      2.2952431248      0.2625263853 
  H40          -1.9661070849      3.0973923773     -1.3129793143 
  H41          -3.0356303976      0.1842485957     -0.8257363218 
  H42          -2.2207958566     -0.5519665181     -2.2074072930 
  H43          -2.9783804395      1.0380572584     -2.3679324893 
  H44           0.5116884047      2.0644693342     -2.4988404217 
  H45          -1.0521897895      2.0259252438     -3.2880425877 
  H46          -0.0900150959      0.5543018806     -3.2092216867 
  H47          -0.6147261206     -3.0559599092     -2.1372224498 
  H48           0.9983929688     -2.7375280670     -1.4611529880 
  H49           0.1723774972     -1.5287916033     -2.4170962563 
  H50          -2.7906157073     -3.8022266869      2.2439574219 
  H51          -4.2302802910     -3.0407295894      4.0358500537 
  H52          -4.7073919264     -0.6080015732      4.3368322772 
  H53          -3.6814697050      1.0149063449      2.7396746439 
  H54          -2.2966405464      0.2483866931      0.9235061841 
  H55          -3.9834804773     -3.5916313172     -0.0756367124 
  H56          -4.4564844940     -5.9043280250     -0.6890955643 
  H57          -2.5886690596     -7.4865305121     -1.1668848101 
  H58          -0.2437069575     -6.6869196279     -0.9529193112 
  H59           0.2248217080     -4.4001441987     -0.2473711731 
   
 
  bond lengths (angstroms):
 
 P1      -C7      :   1.900996      P1      -C10     :   1.934700
 P1      -C14     :   1.856821      C6      -C7      :   1.545024
 C6      -H29     :   1.088015      C6      -H30     :   1.087596
 C6      -H31     :   1.099334      C7      -C8      :   1.539300
 C7      -C9      :   1.537052      C8      -H32     :   1.095224
 C8      -H33     :   1.096484      C8      -H34     :   1.095634
 C9      -H35     :   1.092482      C9      -H36     :   1.096151
 C9      -H37     :   1.095502      C10     -C11     :   1.537098
 C10     -C12     :   1.537818      C10     -C13     :   1.541137
 C11     -H38     :   1.093416      C11     -H39     :   1.095187
 C11     -H40     :   1.097104      C12     -H41     :   1.093023
 C12     -H42     :   1.092852      C12     -H43     :   1.097186
 C13     -H44     :   1.092318      C13     -H45     :   1.098973
 C13     -H46     :   1.091657      C14     -C15     :   1.374302
 C14     -C16     :   1.517871      C15     -C17     :   1.495570
 C15     -C23     :   1.490461      C16     -H47     :   1.094529
 C16     -H48     :   1.092559      C16     -H49     :   1.092242
 C17     -C18     :   1.410761      C17     -C22     :   1.404039
 C18     -C19     :   1.386436      C18     -H50     :   1.083937
 C19     -C20     :   1.391776      C19     -H51     :   1.085307
 C20     -C21     :   1.389264      C20     -H52     :   1.085287
 C21     -C22     :   1.386995      C21     -H53     :   1.085094
 C22     -H54     :   1.077883      C23     -C24     :   1.405202
 C23     -C28     :   1.401961      C24     -C25     :   1.385573
 C24     -H55     :   1.083988      C25     -C26     :   1.391358
 C25     -H56     :   1.084730      C26     -C27     :   1.390596
 C26     -H57     :   1.085768      C27     -C28     :   1.388805
 C27     -H58     :   1.084764      C28     -H59     :   1.082851
 
  bond angles:
 
 C10     -P1      -C7      : 112.256972  C14     -P1      -C7      : 109.738398
 C14     -P1      -C10     : 103.182335  H29     -C6      -C7      : 113.695855
 H30     -C6      -C7      : 112.820002  H30     -C6      -H29     : 108.368631
 H31     -C6      -C7      : 108.700650  H31     -C6      -H29     : 106.457324
 H31     -C6      -H30     : 106.355663  C6      -C7      -P1      : 123.817843
 C8      -C7      -P1      : 102.796149  C8      -C7      -C6      : 107.364383
 C9      -C7      -P1      : 104.597076  C9      -C7      -C6      : 108.635138
 C9      -C7      -C8      : 108.920099  H32     -C8      -C7      : 111.749003
 H33     -C8      -C7      : 109.291614  H33     -C8      -H32     : 107.636812
 H34     -C8      -C7      : 111.811199  H34     -C8      -H32     : 108.346054
 H34     -C8      -H33     : 107.844072  H35     -C9      -C7      : 112.908471
 H36     -C9      -C7      : 109.625907  H36     -C9      -H35     : 107.921520
 H37     -C9      -C7      : 111.180675  H37     -C9      -H35     : 106.787088
 H37     -C9      -H36     : 108.243076  C11     -C10     -P1      : 106.328281
 C12     -C10     -P1      : 109.936257  C12     -C10     -C11     : 109.337510
 C13     -C10     -P1      : 116.256611  C13     -C10     -C11     : 107.892743
 C13     -C10     -C12     : 106.951967  H38     -C11     -C10     : 112.097930
 H39     -C11     -C10     : 112.166937  H39     -C11     -H38     : 107.597212
 H40     -C11     -C10     : 109.510980  H40     -C11     -H38     : 107.568073
 H40     -C11     -H39     : 107.697075  H41     -C12     -C10     : 113.143609
 H42     -C12     -C10     : 112.153179  H42     -C12     -H41     : 107.690292
 H43     -C12     -C10     : 108.623414  H43     -C12     -H41     : 107.271669
 H43     -C12     -H42     : 107.715715  H44     -C13     -C10     : 112.639442
 H45     -C13     -C10     : 109.131423  H45     -C13     -H44     : 106.183120
 H46     -C13     -C10     : 112.952081  H46     -C13     -H44     : 108.644159
 H46     -C13     -H45     : 106.917435  C15     -C14     -P1      : 124.502880
 C16     -C14     -P1      : 115.382270  C16     -C14     -C15     : 120.059676
 C17     -C15     -C14     : 126.817154  C23     -C15     -C14     : 118.457434
 C23     -C15     -C17     : 114.612616  H47     -C16     -C14     : 112.983325
 H48     -C16     -C14     : 113.335152  H48     -C16     -H47     : 108.754096
 H49     -C16     -C14     : 109.448972  H49     -C16     -H47     : 105.503822
 H49     -C16     -H48     : 106.315809  C18     -C17     -C15     : 119.785258
 C22     -C17     -C15     : 124.530936  C22     -C17     -C18     : 115.627753
 C19     -C18     -C17     : 122.335490  H50     -C18     -C17     : 119.693274
 H50     -C18     -C19     : 117.893965  C20     -C19     -C18     : 120.528633
 H51     -C19     -C18     : 119.076591  H51     -C19     -C20     : 120.382263
 C21     -C20     -C19     : 118.415905  H52     -C20     -C19     : 120.848399
 H52     -C20     -C21     : 120.735188  C22     -C21     -C20     : 120.774603
 H53     -C21     -C20     : 120.671706  H53     -C21     -C22     : 118.553687
 C21     -C22     -C17     : 122.298171  H54     -C22     -C17     : 119.854582
 H54     -C22     -C21     : 117.844356  C24     -C23     -C15     : 120.889761
 C28     -C23     -C15     : 122.138367  C28     -C23     -C24     : 116.962432
 C25     -C24     -C23     : 121.728623  H55     -C24     -C23     : 119.378602
 H55     -C24     -C25     : 118.786368  C26     -C25     -C24     : 120.279660
 H56     -C25     -C24     : 119.297422  H56     -C25     -C26     : 120.420936
 C27     -C26     -C25     : 119.074693  H57     -C26     -C25     : 120.644292
 H57     -C26     -C27     : 120.276985  C28     -C27     -C26     : 120.440361
 H58     -C27     -C26     : 120.388860  H58     -C27     -C28     : 119.170759
 C27     -C28     -C23     : 121.511916  H59     -C28     -C23     : 119.673613
 H59     -C28     -C27     : 118.735039
 
  torsional angles:
 
 P1      -C7      -C6      -H29     :  59.288986
 P1      -C7      -C6      -H30     : -64.631218
 P1      -C7      -C6      -H31     : 177.660571
 P1      -C7      -C8      -H32     : -58.921852
 P1      -C7      -C8      -H33     :-177.950696
 P1      -C7      -C8      -H34     :  62.723693
 P1      -C7      -C9      -H35     : -62.948411
 P1      -C7      -C9      -H36     : 176.696372
 P1      -C7      -C9      -H37     :  57.052267
 P1      -C10     -C11     -H38     :  58.898225
 P1      -C10     -C11     -H39     : -62.283387
 P1      -C10     -C11     -H40     : 178.204657
 P1      -C10     -C12     -H41     :  57.668985
 P1      -C10     -C12     -H42     : -64.392745
 P1      -C10     -C12     -H43     : 176.666505
 P1      -C10     -C13     -H44     : -63.579425
 P1      -C10     -C13     -H45     : 178.755056
 P1      -C10     -C13     -H46     :  59.978733
 P1      -C14     -C15     -C17     :   7.357623
 P1      -C14     -C15     -C23     :-176.728408
 P1      -C14     -C16     -H47     :-151.867913
 P1      -C14     -C16     -H48     :  83.847183
 P1      -C14     -C16     -H49     : -34.629799
 C6      -C7      -P1      -C10     : -56.770267
 C6      -C7      -P1      -C14     :  57.348819
[...]
    H34      X     0.00037  -0.00174   0.00127   0.00095  -0.00184  -0.00048
    H34      Y     0.00089  -0.00488   0.00303   0.00301  -0.00469  -0.00073
    H34      Z     0.00004  -0.00110   0.00045   0.00086  -0.00091   0.00005
    H35      X     0.00004  -0.00008   0.00007   0.00009  -0.00015  -0.00004
    H35      Y     0.00020  -0.00031   0.00029   0.00033  -0.00057  -0.00012
    H35      Z    -0.00031   0.00040  -0.00039  -0.00047   0.00081   0.00018
    H36      X     0.00018   0.00030  -0.00010  -0.00013   0.00023   0.00005
    H36      Y     0.00000   0.00000  -0.00001   0.00002   0.00002   0.00002
    H36      Z     0.00009   0.00013  -0.00003  -0.00005   0.00007   0.00002
    H37      X    -0.00001  -0.00010  -0.00001  -0.00003   0.00008   0.00013
    H37      Y    -0.00003   0.00007   0.00000   0.00004  -0.00006  -0.00011
    H37      Z    -0.00001   0.00007   0.00002   0.00005  -0.00011  -0.00014
    H38      X     0.00022  -0.00015   0.00001  -0.00024   0.00009   0.00016
    H38      Y     0.00005  -0.00004  -0.00000  -0.00008   0.00004   0.00006
    H38      Z     0.00008  -0.00004   0.00000  -0.00008   0.00002   0.00005
    H39      X     0.00009   0.00004  -0.00005  -0.00009   0.00007   0.00008
    H39      Y    -0.00002  -0.00003   0.00002  -0.00000   0.00000  -0.00001
    H39      Z    -0.00010  -0.00002   0.00005   0.00012  -0.00010  -0.00013
    H40      X    -0.00005  -0.00006  -0.00000  -0.00006   0.00005   0.00004
    H40      Y     0.00014   0.00019  -0.00001   0.00018  -0.00011  -0.00014
    H40      Z    -0.00014  -0.00018   0.00001  -0.00016   0.00014   0.00013
    H41      X    -0.00001   0.00100  -0.00065   0.00069  -0.00050   0.00025
    H41      Y    -0.00001  -0.00009   0.00010  -0.00002   0.00003  -0.00008
    H41      Z     0.00003  -0.00115   0.00078  -0.00079   0.00057  -0.00034
    H42      X     0.00010   0.00003   0.00008  -0.00013  -0.00008  -0.00010
    H42      Y     0.00044   0.00015   0.00004  -0.00073  -0.00055  -0.00014
    H42      Z     0.00024   0.00015  -0.00004  -0.00031  -0.00031  -0.00004
    H43      X    -0.00009  -0.00017   0.00006  -0.00010   0.00016   0.00004
    H43      Y     0.00031   0.00052  -0.00022   0.00018  -0.00043  -0.00008
    H43      Z    -0.00029  -0.00048   0.00020  -0.00018   0.00042   0.00007
    H44      X    -0.00002   0.00001  -0.00018  -0.00021   0.00004   0.00014
    H44      Y     0.00001   0.00001  -0.00003  -0.00007   0.00003   0.00004
    H44      Z     0.00000   0.00002  -0.00005  -0.00005  -0.00001   0.00003
    H45      X    -0.00003  -0.00006   0.00003  -0.00007   0.00010   0.00005
    H45      Y     0.00010   0.00021  -0.00007   0.00019  -0.00025  -0.00014
    H45      Z    -0.00009  -0.00023   0.00011  -0.00023   0.00027   0.00012
    H46      X    -0.00002  -0.00001  -0.00001   0.00002   0.00001   0.00001
    H46      Y    -0.00062  -0.00005  -0.00077   0.00033  -0.00017   0.00014
    H46      Z    -0.00025   0.00001  -0.00033   0.00015  -0.00012   0.00002
    H47      X     0.00290   0.00150   0.00426  -0.00289  -0.00369  -0.00394
    H47      Y     0.00576   0.00271   0.00799  -0.00542  -0.00716  -0.00696
    H47      Z     0.00141   0.00068   0.00204  -0.00130  -0.00169  -0.00177
    H48      X    -0.00092  -0.00057  -0.00310   0.00137   0.00217   0.00341
    H48      Y    -0.00028  -0.00018  -0.00033   0.00028   0.00023   0.00039
    H48      Z     0.00018   0.00007   0.00070  -0.00021  -0.00060  -0.00064
    H49      X    -0.00206  -0.00119  -0.00298   0.00148   0.00190   0.00266
    H49      Y     0.00341   0.00201   0.00517  -0.00234  -0.00305  -0.00461
    H49      Z    -0.00317  -0.00187  -0.00464   0.00208   0.00263   0.00402
    H50      X    -0.00873   0.31943  -0.13992  -0.31986   0.30826  -0.00186
    H50      Y     0.00861  -0.31499   0.13816   0.31501  -0.30361   0.00159
    H50      Z     0.00066  -0.02683   0.01159   0.02866  -0.02763   0.00035
    H51      X     0.00716  -0.12363   0.05572  -0.06135   0.05900  -0.00361
    H51      Y    -0.01041   0.17883  -0.08061   0.09091  -0.08740   0.00517
    H51      Z     0.01843  -0.31167   0.14047  -0.16520   0.15874  -0.00903
    H52      X     0.01011   0.09353  -0.04240  -0.13872   0.12983   0.00583
    H52      Y    -0.00544  -0.05152   0.02334   0.07391  -0.06916  -0.00317
    H52      Z    -0.02193  -0.19676   0.08918   0.30469  -0.28524  -0.01253
    H53      X    -0.01291  -0.41991   0.18811  -0.22231   0.21149   0.00171
    H53      Y     0.01186   0.38634  -0.17306   0.20504  -0.19502  -0.00164
    H53      Z     0.00099   0.03014  -0.01352   0.01378  -0.01315  -0.00001
    H54      X     0.00158   0.06348  -0.02778   0.05263  -0.04829  -0.00331
    H54      Y    -0.00222  -0.08926   0.03910  -0.07345   0.06754   0.00463
    H54      Z     0.00384   0.15995  -0.06993   0.13106  -0.12014  -0.00851
    H55      X     0.19914  -0.13397  -0.29622  -0.28636  -0.30488   0.43976
    H55      Y    -0.13073   0.08877   0.19569   0.18985   0.20225  -0.29605
    H55      Z    -0.07025   0.04739   0.10485   0.10143   0.10798  -0.15658
    H56      X    -0.43731   0.19690   0.44276   0.03560   0.03302   0.36172
    H56      Y    -0.22027   0.09844   0.22131   0.01441   0.01297   0.18459
    H56      Z     0.05733  -0.02591  -0.05826  -0.00522  -0.00494  -0.04720
    H57      X     0.04345  -0.00247  -0.00501   0.03330   0.03480  -0.00602
    H57      Y     0.51162  -0.01217  -0.02046   0.39566   0.41290  -0.01946
    H57      Z     0.07654  -0.00151  -0.00237   0.05907   0.06162  -0.00190
    H58      X     0.41475   0.16892   0.38408   0.00410   0.00012   0.33535
    H58      Y    -0.27429  -0.11081  -0.25200  -0.00668  -0.00423  -0.22408
    H58      Z    -0.12839  -0.05212  -0.11850  -0.00189  -0.00071  -0.10428
    H59      X    -0.24379  -0.15494  -0.34422   0.33356   0.34910   0.45052
    H59      Y    -0.12173  -0.07782  -0.17281   0.16854   0.17631   0.23090
    H59      Z     0.02714   0.01718   0.03834  -0.03675  -0.03862  -0.04943
  
  vibration #          157       158       159
                 --------- --------- ---------
  frequencies      3208.68   3213.11   3218.84
  intensities        25.61     16.43      5.78
  reduc. mass         0.25      0.22      0.56
  force const         1.53      1.33      3.41
    P1       X     0.00001  -0.00000  -0.00002
    P1       Y     0.00001  -0.00002  -0.00002
    P1       Z    -0.00003  -0.00001  -0.00005
    C6       X     0.00004  -0.00004  -0.00003
    C6       Y    -0.00004  -0.00001  -0.00005
    C6       Z     0.00004   0.00001  -0.00002
    C7       X     0.00002  -0.00001  -0.00001
    C7       Y     0.00001   0.00002   0.00005
    C7       Z     0.00007  -0.00001   0.00008
    C8       X    -0.00007  -0.00002  -0.00008
    C8       Y    -0.00024   0.00002  -0.00008
    C8       Z    -0.00009  -0.00001  -0.00000
    C9       X     0.00004  -0.00002   0.00002
    C9       Y    -0.00000  -0.00002  -0.00001
    C9       Z     0.00005   0.00001   0.00002
    C10      X    -0.00001   0.00001  -0.00001
    C10      Y     0.00001   0.00001   0.00001
    C10      Z    -0.00001   0.00002  -0.00001
    C11      X     0.00007  -0.00002   0.00003
    C11      Y     0.00003  -0.00003   0.00000
    C11      Z    -0.00005   0.00002  -0.00006
    C12      X     0.00011   0.00000   0.00017
    C12      Y     0.00005  -0.00001  -0.00010
    C12      Z    -0.00021   0.00005  -0.00028
    C13      X     0.00003  -0.00000  -0.00002
    C13      Y     0.00005  -0.00003   0.00000
    C13      Z    -0.00001   0.00002  -0.00001
    C14      X    -0.00003   0.00002   0.00001
    C14      Y     0.00006   0.00018   0.00002
    C14      Z     0.00001   0.00006  -0.00017
    C15      X     0.00012   0.00003   0.00005
    C15      Y    -0.00024  -0.00008  -0.00013
    C15      Z     0.00004  -0.00005   0.00010
    C16      X     0.00003   0.00004   0.00001
    C16      Y    -0.00006   0.00033   0.00005
    C16      Z    -0.00005   0.00006   0.00003
    C17      X    -0.00107   0.00002  -0.00209
    C17      Y     0.00126   0.00004   0.00163
    C17      Z    -0.00103  -0.00003   0.00124
    C18      X     0.02525  -0.00009  -0.00522
    C18      Y    -0.02443   0.00006   0.00506
    C18      Z    -0.00453   0.00006   0.00046
    C19      X     0.01671  -0.00015  -0.00437
    C19      Y    -0.02399   0.00021   0.00612
    C19      Z     0.04141  -0.00035  -0.00987
    C20      X    -0.02118   0.00015   0.00733
    C20      Y     0.01201  -0.00010  -0.00356
    C20      Z     0.04290  -0.00027  -0.01824
    C21      X    -0.01067  -0.00020   0.02662
    C21      Y     0.01036   0.00016  -0.02426
    C21      Z    -0.00226   0.00006  -0.00366
    C22      X     0.01000  -0.00043   0.02292
    C22      Y    -0.01377   0.00060  -0.03250
    C22      Z     0.02433  -0.00109   0.06147
    C23      X    -0.00011  -0.00016   0.00002
    C23      Y    -0.00004  -0.00161  -0.00004
    C23      Z    -0.00000  -0.00019  -0.00011
    C24      X     0.00144   0.02229   0.00053
    C24      Y    -0.00096  -0.01676  -0.00039
    C24      Z    -0.00054  -0.00819  -0.00020
    C25      X     0.00081   0.03661   0.00054
    C25      Y     0.00048   0.01738   0.00028
    C25      Z    -0.00010  -0.00496  -0.00007
    C26      X    -0.00003   0.00426   0.00004
    C26      Y     0.00027   0.04937   0.00053
    C26      Z     0.00005   0.00739   0.00008
    C27      X     0.00016  -0.03393  -0.00040
    C27      Y    -0.00014   0.02117   0.00025
    C27      Z    -0.00006   0.01034   0.00014
    C28      X     0.00035  -0.02476  -0.00028
    C28      Y     0.00022  -0.01420  -0.00016
    C28      Z    -0.00003   0.00240   0.00003
    H29      X     0.00005  -0.00001   0.00002
    H29      Y     0.00026   0.00016  -0.00002
    H29      Z    -0.00060  -0.00019   0.00001
    H30      X     0.00014  -0.00017   0.00014
    H30      Y     0.00019  -0.00028   0.00055
    H30      Z     0.00008  -0.00001   0.00005
    H31      X    -0.00107   0.00064  -0.00030
    H31      Y     0.00007   0.00003   0.00009
    H31      Z    -0.00020   0.00018   0.00007
    H32      X    -0.00019  -0.00003   0.00002
    H32      Y     0.00008  -0.00003  -0.00021
    H32      Z     0.00044  -0.00002  -0.00014
    H33      X    -0.00023   0.00045   0.00042
    H33      Y     0.00009  -0.00005  -0.00000
    H33      Z    -0.00008   0.00016   0.00007
    H34      X     0.00103  -0.00013   0.00038
    H34      Y     0.00265  -0.00011   0.00110
    H34      Z     0.00067  -0.00003   0.00018
    H35      X     0.00009   0.00001   0.00003
    H35      Y     0.00026   0.00009   0.00016
    H35      Z    -0.00035  -0.00018  -0.00024
    H36      X    -0.00081   0.00042  -0.00019
    H36      Y     0.00004   0.00000   0.00005
    H36      Z    -0.00033   0.00018  -0.00008
    H37      X     0.00017  -0.00004   0.00001
    H37      Y    -0.00009   0.00002   0.00002
    H37      Z    -0.00006   0.00001   0.00004
    H38      X    -0.00059   0.00025   0.00001
    H38      Y    -0.00014   0.00004   0.00003
    H38      Z    -0.00020   0.00009   0.00003
    H39      X    -0.00038   0.00010  -0.00043
    H39      Y     0.00014  -0.00005   0.00014
    H39      Z     0.00047  -0.00011   0.00054
    H40      X     0.00015  -0.00014   0.00002
    H40      Y    -0.00039   0.00040  -0.00006
    H40      Z     0.00038  -0.00035   0.00011
    H41      X    -0.00174   0.00017  -0.00273
    H41      Y     0.00016  -0.00004  -0.00012
    H41      Z     0.00199  -0.00015   0.00321
    H42      X     0.00001   0.00001   0.00024
    H42      Y    -0.00001  -0.00023   0.00119
    H42      Z    -0.00016  -0.00004   0.00049
    H43      X     0.00028  -0.00013   0.00023
    H43      Y    -0.00091   0.00041  -0.00038
    H43      Z     0.00083  -0.00037   0.00029
    H44      X    -0.00040   0.00011   0.00024
    H44      Y    -0.00009   0.00001   0.00006
    H44      Z    -0.00014   0.00005   0.00004
    H45      X     0.00014  -0.00012   0.00006
    H45      Y    -0.00041   0.00033  -0.00019
    H45      Z     0.00048  -0.00036   0.00022
    H46      X     0.00002  -0.00000  -0.00003
    H46      Y    -0.00015   0.00002   0.00002
    H46      Z    -0.00011   0.00005   0.00004
    H47      X     0.00036  -0.00202  -0.00012
    H47      Y     0.00069  -0.00388  -0.00030
    H47      Z     0.00020  -0.00070   0.00006
    H48      X    -0.00107   0.00155   0.00056
    H48      Y     0.00006   0.00009  -0.00011
    H48      Z     0.00035  -0.00034  -0.00026
    H49      X     0.00010   0.00036  -0.00015
    H49      Y    -0.00005  -0.00044   0.00023
    H49      Z     0.00014   0.00023  -0.00052
    H50      X    -0.27845   0.00084   0.05547
    H50      Y     0.27372  -0.00086  -0.05459
    H50      Z     0.02785  -0.00026  -0.00485
    H51      X    -0.17921   0.00158   0.04345
    H51      Y     0.26050  -0.00227  -0.06273
    H51      Z    -0.45688   0.00402   0.10907
    H52      X     0.22396  -0.00153  -0.08607
    H52      Y    -0.12161   0.00085   0.04588
    H52      Z    -0.48117   0.00324   0.18977
    H53      X     0.11877   0.00200  -0.28529
    H53      Y    -0.10991  -0.00182   0.26249
    H53      Z    -0.00411  -0.00020   0.02240
    H54      X    -0.11172   0.00494  -0.26541
    H54      Y     0.15794  -0.00693   0.37625
    H54      Z    -0.28605   0.01265  -0.68785
    H55      X    -0.01616  -0.25405  -0.00583
    H55      Y     0.01054   0.17191   0.00392
    H55      Z     0.00577   0.09058   0.00229
    H56      X    -0.00908  -0.39487  -0.00598
    H56      Y    -0.00465  -0.19663  -0.00303
    H56      Z     0.00121   0.05222   0.00078
    H57      X    -0.00018  -0.04594  -0.00050
    H57      Y    -0.00278  -0.54056  -0.00581
    H57      Z    -0.00043  -0.08081  -0.00088
    H58      X    -0.00200   0.36411   0.00435
    H58      Y     0.00139  -0.23845  -0.00288
    H58      Z     0.00065  -0.11230  -0.00134
    H59      X    -0.00412   0.27902   0.00286
    H59      Y    -0.00213   0.14393   0.00151
    H59      Z     0.00049  -0.03032  -0.00035
  
  Number of imaginary frequencies:   0
   
  Writing vibrational animation data to PL747.vib
  Writing IR vibrational spectrum data to PL747_vib.spm
  rotational symmetry number:  1

  rotational temperatures (K):      0.014288      0.008290      0.006992
   
  The Quasi-Harmonic approximation will be applied to compute
  vibrational constributions to thermodynamic properties.
  Frequencies will be adjusted to a minimum value of  100.00 cm^-1.

  vibrational temperatures:
       mode:      1        2        3        4        5        6
  temp. (K):   143.88   143.88   143.88   143.88   143.88   143.88
   
       mode:      7        8        9       10       11       12
  temp. (K):   143.88   143.88   188.42   211.66   262.76   267.77
   
       mode:     13       14       15       16       17       18
  temp. (K):   290.95   306.05   333.51   357.03   359.29   368.09
   
       mode:     19       20       21       22       23       24
  temp. (K):   376.55   399.74   420.24   424.30   430.43   446.46
   
       mode:     25       26       27       28       29       30
  temp. (K):   455.96   497.81   513.56   521.40   539.38   564.47
   
       mode:     31       32       33       34       35       36
  temp. (K):   584.05   588.85   602.19   605.75   609.89   662.48
   
       mode:     37       38       39       40       41       42
  temp. (K):   680.73   714.36   721.55   786.29   835.08   874.79
   
       mode:     43       44       45       46       47       48
  temp. (K):   897.90   903.07   905.08   965.07   990.09  1039.77
   
       mode:     49       50       51       52       53       54
  temp. (K):  1044.03  1094.21  1134.03  1156.27  1199.05  1199.58
   
       mode:     55       56       57       58       59       60
  temp. (K):  1246.45  1256.06  1330.83  1356.57  1370.26  1372.19
   
       mode:     61       62       63       64       65       66
  temp. (K):  1377.28  1381.94  1388.32  1404.87  1409.46  1431.37
   
       mode:     67       68       69       70       71       72
  temp. (K):  1440.02  1455.94  1461.82  1464.05  1466.35  1475.66
   
       mode:     73       74       75       76       77       78
  temp. (K):  1498.33  1510.28  1513.62  1521.81  1526.90  1533.24
   
       mode:     79       80       81       82       83       84
  temp. (K):  1535.36  1611.45  1611.83  1661.64  1730.35  1731.29
   
       mode:     85       86       87       88       89       90
  temp. (K):  1742.82  1748.19  1756.75  1759.67  1760.89  1767.97
   
       mode:     91       92       93       94       95       96
  temp. (K):  1780.74  1795.75  1799.66  1887.49  1940.51  1944.25
   
       mode:     97       98       99      100      101      102
  temp. (K):  1980.70  1983.95  2042.76  2047.05  2048.02  2054.18
   
       mode:    103      104      105      106      107      108
  temp. (K):  2068.67  2090.54  2102.76  2142.81  2145.92  2157.89
   
       mode:    109      110      111      112      113      114
  temp. (K):  2162.89  2167.82  2173.33  2174.40  2180.55  2184.90
   
       mode:    115      116      117      118      119      120
  temp. (K):  2192.54  2200.39  2212.42  2213.53  2215.50  2219.30
   
       mode:    121      122      123      124      125      126
  temp. (K):  2220.68  2230.31  2235.54  2344.21  2364.70  2370.57
   
       mode:    127      128      129      130      131      132
  temp. (K):  2400.92  2404.82  4362.43  4363.41  4365.83  4369.37
   
       mode:    133      134      135      136      137      138
  temp. (K):  4370.95  4376.97  4420.71  4466.00  4468.17  4475.13
   
       mode:    139      140      141      142      143      144
  temp. (K):  4479.34  4480.27  4483.37  4510.92  4513.95  4519.27
   
       mode:    145      146      147      148      149      150
  temp. (K):  4530.07  4534.87  4539.19  4540.46  4557.27  4575.74
   
       mode:    151      152      153      154      155      156
  temp. (K):  4577.49  4588.45  4588.64  4603.11  4603.24  4612.31
   
       mode:    157      158      159
  temp. (K):  4616.57  4622.94  4631.19
   
   
  Thermodynamic properties calculated assuming an ideal gas

  In the table below, the units for temperature
  are kelvins, the units for U, H, and G are
  kcal/mol and the units for Cv and S are cal/(mol K)

  The zero point energy (ZPE):    303.768 kcal/mol
  is not included in U, H, or G in the table below
  
 
  =============================================================================
  Thermodynamic properties for P = 1.00E+00 atm, calculated at   1 temperatures


  T =   298.15 K, P = 1.00E+00 atm
   
                  U         Cv          S          H          G        ln(Q)
              =========  =========  =========  =========  =========  =========
  trans.          0.889      2.981     43.350      1.481    -11.444   19.31465
  rot.            0.889      2.981     35.016      0.889     -9.551   16.12080
  vib.           13.655     93.721     80.472     13.655    -10.338   17.44832
  elec.           0.000      0.000      0.000      0.000      0.000    0.00000
  ----------------------------------------------------------------------------
  total          15.432     99.683    158.838     16.025    -31.333   52.88378
   
   Total internal energy, Utot(SCFE + ZPE + U):   -1235.625246 hartrees
   Total enthalpy, Htot (Utot + nRT), with n=1:   -1235.624302 hartrees
    Total Gibbs free energy, Gtot (Htot - T*S):   -1235.699771 hartrees
   
  end of program freq
   
 Time(freq)  user:       0.350  user+sys:       0.350  wallclock:       0.322
  
  start of program post
  
  Writing input files for PBF
  end of program post
   
 Time(post)  user:       0.265  user+sys:       0.265  wallclock:       0.187

 Total cpu seconds     user:   17546.964   user+sys:   17546.964
  
 Total elapsed time:    10522 seconds

Job PL747 completed on bp1-compute050.data.bp.acrc.priv at Mon Mar 31 17:36:50 2025
