Job red_elim_L_trans_L1_PL747_2 started on bp1-compute081.data.bp.acrc.priv at Fri Apr 25 06:41:17 2025
jobid: bp1-compute081-0-680b2078

  +--------------------------------------------------------------------+
  |  Jaguar version 12.5, release 138                                  |
  |                                                                    |
  |  Copyright Schrodinger, Inc.                                       |
  |  All Rights Reserved.                                              |
  |                                                                    |
  |  The following have contributed to Jaguar (listed alphabetically): |
  |  Ty Balduf, Mike Beachy, Chandler Bennett, Art Bochevarov,         |
  |  Dale Braden, Yixiang Cao, Alan Chien, Chris Cortis,               |
  |  Rich Friesner, Jim Furness, Bill Goddard, Hod Greeley,            |
  |  Tom Hughes, Leif Jacobson, Jean-Marc Langlois, Daniel Levine,     |
  |  Rob Murphy, Dean Philipp, Tom Pollard, Murco Ringnalda,           |
  |  Daniel Mainz, Pablo Videla, Mark Watson, Haoyu Yu.                |
  |                                                                    |
  |  Use of this program should be acknowledged in publications as:    |
  |                                                                    |
  |  Jaguar, version 12.5, Schrodinger, Inc., New York, NY, 2024.      |
  |                                                                    |
  |  A. D. Bochevarov, E. Harder, T. F. Hughes, J. R. Greenwood,       |
  |  D. A. Braden, D. M. Philipp, D. Rinaldo, M. D. Halls,             |
  |  J. Zhang, R. A. Friesner, "Jaguar: A High-Performance Quantum     |
  |  Chemistry Software Program with Strengths in Life and Materials   |
  |  Sciences", Int. J. Quantum Chem., 2013, 113(18), 2110-2142.       |
  +--------------------------------------------------------------------+
  
  start of program pre
  
  Job name: red_elim_L_trans_L1_PL747_2
  Executables used: /software/local/apps/schrodinger2024-3/jaguar-v12.5/bin/Linux-x86_64
  Temporary files : /tmp/ar21627/red_elim_L_trans_L1_PL747_2#bp1-compute081-0-680b2078
  Basis file : using default basis file from /software/local/apps/schrodinger2024-3
  Maestro file (input):  red_elim_L_trans_L1_PL747_2.mae
  Maestro file (output): red_elim_L_trans_L1_PL747_2.01.mae
  
 Contents of input file: &gen and (if present) &atomic sections only
 ----------------Contents start----------------
&gen
dftname=b3pw91-d3
basis=6-31G*
numd=5
ip11=2
iaccg=3
isolv=2
igeopt=1
solvent=benzene
ifreq=1
&
&atomic
atom basis
Pd2 lacv3p*
&
 -----------------Contents end-----------------
 
  PS calculation requested. Using PS version of 6-31g*
  basis set:               non_standard                    
  net molecular charge:    0
  multiplicity:            1
  
  Using up to   4 threads per process
  
  This run will use ECP on 1 atom
  number of basis functions....          649
  
 Input geometry:
                                   angstroms
  atom               x                 y                 z
  P1            0.0000000000      0.0000000000      0.0000000000 
  Pd2           0.0000000000      0.0000000000      2.2085805062 
  N2           -1.8052417244      1.0172014348      2.3750259043 
  C16           4.0220298057     -2.7508949411      2.5462616283 
  C17           2.8194591932     -3.2760625888      2.0627709612 
  C18           1.6989604526     -2.4608628025      1.8815009860 
  C19           1.7212585231     -1.0906363668      2.1975760572 
  C20           2.9454979729     -0.5708975317      2.6584185490 
  C21           4.0660452912     -1.3818136554      2.8394659587 
  F10           5.1018236871     -3.5172080809      2.7002042975 
  H23           2.7574975997     -4.3380802094      1.8236333218 
  H24           0.7839729888     -2.9118087821      1.4955266517 
  H25           3.0257875455      0.4913318495      2.8896210784 
  H26           4.9926506223     -0.9463563250      3.2150976383 
  H30          -2.4935805200      0.3259731331      2.8833497551 
  C31          -1.4699299744      4.6253633463      4.6139341404 
  C32          -0.9843716699      3.4201488570      5.1473621277 
  C33          -1.0949332607      2.2304377268      4.4091319392 
  C34          -1.6910531790      2.2459410813      3.1374737741 
  C35          -2.1766193555      3.4510708635      2.6039932249 
  C36          -2.0660498698      4.6408667054      3.3422759645 
  H37          -1.3830708363      5.5600214176      5.1939008118 
  H38          -0.5160496292      3.4080998321      6.1464536587 
  H39          -0.7134782661      1.2836459164      4.8282042538 
  H40          -2.6448890489      3.4631544241      1.6050284499 
  H41          -2.4475049004      5.5876585087      2.9232036667 
  C6            2.3841358339      0.6617321262     -1.6401106422 
  C7            1.8417756257      0.2769820460     -0.2399989394 
  C8            2.6463316146     -1.0007837143      0.1301420100 
  C9            2.3349633452      1.3682614669      0.7269633653 
  C10          -1.0442422168      1.0525620250     -1.2245682407 
  C11          -1.4860189141      2.4068635562     -0.6186336630 
  C12          -2.3367912708      0.3331721453     -1.7052096288 
  C13          -0.3250889897      1.4259492335     -2.5340722034 
  C14          -0.6347117209     -1.6922415293     -0.3828062666 
  C15          -1.1682398424     -2.6181771732      0.4702892303 
  C37          -0.5879865303     -1.9334647499     -1.8719513618 
  C38          -1.4705660524     -2.3639820672      1.9231872690 
  C39          -0.7340940706     -2.9995396415      2.9559145272 
  C40          -0.9471222956     -2.7877666248      4.3250555589 
  C41          -1.9280198157     -1.8865249589      4.7608313207 
  C42          -2.6656743847     -1.2118242778      3.7862110214 
  C22          -2.4215203249     -1.4557640275      2.4211300005 
  C23          -1.4619866008     -3.9981774261     -0.0372618944 
  C24          -2.5235661069     -4.7666934496      0.5044290450 
  C25          -2.8613582632     -6.0574794296      0.0608921098 
  C26          -2.1275672680     -6.6614634799     -0.9685028787 
  C27          -1.0670605893     -5.9418300560     -1.5371445230 
  C28          -0.7636617041     -4.6507098666     -1.0758877907 
  H29           1.9838081089      1.6054036304     -2.0451098578 
  H51           2.2274224403     -0.1342804953     -2.4066645011 
  H31           3.4860591317      0.8170399459     -1.6244732860 
  H32           2.5160386682     -1.2877277305      1.1909020582 
  H33           3.7374610932     -0.8585718131     -0.0059176686 
  H34           2.3491091372     -1.8529448545     -0.5180710646 
  H35           1.8128782193      2.3379645822      0.5808572754 
  H36           3.4191883137      1.5707280753      0.6158576041 
  H58           2.1991657647      1.0681633313      1.7908327775 
  H59          -0.6157427779      3.0122505336     -0.2973626647 
  H60          -2.1831377681      2.2877233763      0.2375526023 
  H61          -2.0479247989      3.0245050227     -1.3585909559 
  H62          -3.0368992754      0.0578162296     -0.8875143619 
  H42          -2.1139318149     -0.5972890217     -2.2671034618 
  H43          -2.9294144919      0.9726865205     -2.3898585036 
  H44           0.5506695379      2.0950297279     -2.3609297955 
  H45          -0.9761293915      2.0030120040     -3.2222182302 
  H46          -0.0026444036      0.5379374497     -3.1141278566 
  H47          -1.3581497542     -2.6409664372     -2.2486474874 
  H48           0.4330539527     -2.2330833673     -2.2084643870 
  H49          -0.8548507758     -1.0096704391     -2.4313863855 
  H50           0.1053183917     -3.6695789503      2.7400556781 
  H72          -0.3304427623     -3.3129921345      5.0714934446 
  H52          -2.1046475090     -1.7084536779      5.8341426813 
  H53          -3.4393920411     -0.4872438769      4.0852231131 
  H54          -3.0537658340     -0.8825132739      1.7498936862 
  H55          -3.1895298948     -4.3507275496      1.2784225160 
  H56          -3.7044528509     -6.6024182503      0.5231628074 
  H57          -2.3713324889     -7.6735976964     -1.3170180789 
  H79          -0.4757925855     -6.4032179949     -2.3464178498 
  H80           0.1142377981     -4.1926350170     -1.5606144109 
   
  principal moments of inertia:
        amu*angstrom^2:              4627.42892              6746.54513              7248.41563
                g*cm^2:          7.68402555E-37          1.12029004E-36          1.20362758E-36
   
  rotational constants:
               cm^(-1):      0.00364298      0.00249871      0.00232570
                   GHz:      0.10921378      0.07490931      0.06972269
   
  Molecular weight:     631.20 amu
   
  Stoichiometry: PdC35PNH41F
  Molecular Point Group: C1      
  Point Group used: C1
  
 
Number of optimization coordinates:   271
Number of independent coordinates:    271
Number of non-redundant coordinates:  234
Number of frozen coordinates:           0
Number of harmonic constraints:         0
 
Number of geometric degrees of freedom:   234
Maximum geometric degrees of freedom:     234
 " " " " " excluding dummy atoms:         234
 
 
  bond lengths (angstroms):
 
 P1      -Pd2     :   2.208581      P1      -C7      :   1.877886
 P1      -C10     :   1.922991      P1      -C14     :   1.847453
 Pd2     -N2      :   2.078774      Pd2     -C19     :   2.037729
 N2      -H30     :   1.100000      N2      -C34     :   1.450575
 C16     -C17     :   1.398478      C16     -C21     :   1.400818
 C16     -F10     :   1.333000      C17     -C18     :   1.397472
 C17     -H23     :   1.090370      C18     -C19     :   1.406386
 C18     -H24     :   1.090656      C19     -C20     :   1.407575
 C20     -C21     :   1.394987      C20     -H25     :   1.090061
 C21     -H26     :   1.090559      C31     -C32     :   1.404583
 C31     -C36     :   1.404533      C31     -H37     :   1.103400
 C32     -C33     :   1.404500      C32     -H38     :   1.103474
 C33     -C34     :   1.404533      C33     -H39     :   1.103424
 C34     -C35     :   1.404533      C35     -C36     :   1.404600
 C35     -H40     :   1.103337      C36     -H41     :   1.103424
 C6      -C7      :   1.550000      C6      -H29     :   1.102181
 C6      -H51     :   1.116154      C6      -H31     :   1.112924
 C7      -C8      :   1.554670      C7      -C9      :   1.539201
 C8      -H32     :   1.106583      C8      -H33     :   1.108738
 C8      -H34     :   1.111171      C9      -H35     :   1.110965
 C9      -H36     :   1.108549      C9      -H58     :   1.113696
 C10     -C11     :   1.548049      C10     -C12     :   1.555385
 C10     -C13     :   1.539935      C11     -H59     :   1.107740
 C11     -H60     :   1.110506      C11     -H61     :   1.115686
 C12     -H62     :   1.111124      C12     -H42     :   1.109572
 C12     -H43     :   1.108569      C13     -H44     :   1.115616
 C13     -H45     :   1.109234      C13     -H46     :   1.108603
 C14     -C15     :   1.367399      C14     -C37     :   1.509280
 C15     -C38     :   1.505632      C15     -C23     :   1.499432
 C37     -H47     :   1.111580      C37     -H48     :   1.116036
 C37     -H49     :   1.112466      C38     -C39     :   1.418749
 C38     -C22     :   1.406101      C39     -C40     :   1.401705
 C39     -H50     :   1.095519      C40     -C41     :   1.401534
 C40     -H72     :   1.101510      C41     -C42     :   1.396152
 C41     -H52     :   1.102227      C42     -C22     :   1.408036
 C42     -H53     :   1.101392      C22     -H54     :   1.085776
 C23     -C24     :   1.418096      C23     -C28     :   1.411453
 C24     -C25     :   1.406043      C24     -H55     :   1.102543
 C25     -C26     :   1.401035      C25     -H56     :   1.105197
 C26     -C27     :   1.402106      C26     -H57     :   1.097862
 C27     -C28     :   1.404208      C27     -H79     :   1.103359
 C28     -H80     :   1.102497
 
  bond angles:
 
 C7      -P1      -Pd2     :  97.342638  C10     -P1      -Pd2     : 129.553898
 C10     -P1      -C7      : 111.744572  C14     -P1      -Pd2     : 101.958762
 C14     -P1      -C7      : 116.460285  C14     -P1      -C10     : 100.536212
 N2      -Pd2     -P1      :  94.592533  C19     -Pd2     -P1      :  89.690581
 C19     -Pd2     -N2      : 174.795831  H30     -N2      -Pd2     : 105.839005
 C34     -N2      -Pd2     : 112.843761  C34     -N2      -H30     : 109.794980
 C21     -C16     -C17     : 117.801102  F10     -C16     -C17     : 121.373513
 F10     -C16     -C21     : 120.812442  C18     -C17     -C16     : 121.015347
 H23     -C17     -C16     : 119.370349  H23     -C17     -C18     : 119.614295
 C19     -C18     -C17     : 121.767686  H24     -C18     -C17     : 118.514121
 H24     -C18     -C19     : 119.713835  C18     -C19     -Pd2     : 120.615992
 C20     -C19     -Pd2     : 122.362789  C20     -C19     -C18     : 116.559160
 C21     -C20     -C19     : 121.768576  H25     -C20     -C19     : 119.559115
 H25     -C20     -C21     : 118.670546  C20     -C21     -C16     : 121.046438
 H26     -C21     -C16     : 119.277688  H26     -C21     -C20     : 119.675874
 C36     -C31     -C32     : 120.002746  H37     -C31     -C32     : 120.000393
 H37     -C31     -C36     : 119.996860  C33     -C32     -C31     : 120.000393
 H38     -C32     -C31     : 119.995826  H38     -C32     -C33     : 120.003781
 C34     -C33     -C32     : 119.996860  H39     -C33     -C32     : 119.999284
 H39     -C33     -C34     : 120.003855  C33     -C34     -N2      : 119.996860
 C35     -C34     -N2      : 119.996860  C35     -C34     -C33     : 120.006279
 C36     -C35     -C34     : 119.996860  H40     -C35     -C34     : 120.001259
 H40     -C35     -C36     : 120.001881  C35     -C36     -C31     : 119.996860
 H41     -C36     -C31     : 120.003855  H41     -C36     -C35     : 119.999284
 H29     -C6      -C7      : 114.667671  H51     -C6      -C7      : 113.216762
 H51     -C6      -H29     : 107.893773  H31     -C6      -C7      : 111.616907
 H31     -C6      -H29     : 104.199965  H31     -C6      -H51     : 104.370416
 C6      -C7      -P1      : 119.685427  C8      -C7      -P1      : 110.848869
 C8      -C7      -C6      : 103.768090  C9      -C7      -P1      : 109.788049
 C9      -C7      -C6      : 106.222348  C9      -C7      -C8      : 105.505012
 H32     -C8      -C7      : 112.359211  H33     -C8      -C7      : 112.002951
 H33     -C8      -H32     : 105.472016  H34     -C8      -C7      : 110.670603
 H34     -C8      -H32     : 109.198763  H34     -C8      -H33     : 106.858970
 H35     -C9      -C7      : 112.683762  H36     -C9      -C7      : 112.328328
 H36     -C9      -H35     : 106.680106  H58     -C9      -C7      : 111.715700
 H58     -C9      -H35     : 107.669515  H58     -C9      -H36     : 105.320351
 C11     -C10     -P1      : 112.616616  C12     -C10     -P1      : 113.259062
 C12     -C10     -C11     : 106.764108  C13     -C10     -P1      : 114.874709
 C13     -C10     -C11     : 104.714106  C13     -C10     -C12     : 103.736378
 H59     -C11     -C10     : 111.557046  H60     -C11     -C10     : 112.772054
 H60     -C11     -H59     : 109.159948  H61     -C11     -C10     : 111.619353
 H61     -C11     -H59     : 106.587826  H61     -C11     -H60     : 104.748381
 H62     -C12     -C10     : 114.256512  H42     -C12     -C10     : 112.174739
 H42     -C12     -H62     : 106.942602  H43     -C12     -C10     : 111.609504
 H43     -C12     -H62     : 105.107199  H43     -C12     -H42     : 106.163418
 H44     -C13     -C10     : 112.336163  H45     -C13     -C10     : 112.308433
 H45     -C13     -H44     : 104.182669  H46     -C13     -C10     : 112.739674
 H46     -C13     -H44     : 109.468348  H46     -C13     -H45     : 105.237954
 C15     -C14     -P1      : 128.684936  C37     -C14     -P1      : 109.889446
 C37     -C14     -C15     : 121.292777  C38     -C15     -C14     : 124.475500
 C23     -C15     -C14     : 119.240168  C23     -C15     -C38     : 116.275301
 H47     -C37     -C14     : 114.496636  H48     -C37     -C14     : 111.637587
 H48     -C37     -H47     : 111.150763  H49     -C37     -C14     : 110.856140
 H49     -C37     -H47     : 101.064513  H49     -C37     -H48     : 106.904158
 C39     -C38     -C15     : 121.503772  C22     -C38     -C15     : 125.914389
 C22     -C38     -C39     : 112.497504  C40     -C39     -C38     : 124.362798
 H50     -C39     -C38     : 121.891101  H50     -C39     -C40     : 113.660382
 C41     -C40     -C39     : 120.478961  H72     -C40     -C39     : 120.316905
 H72     -C40     -C41     : 119.192149  C42     -C41     -C40     : 117.611883
 H52     -C41     -C40     : 121.252466  H52     -C41     -C42     : 121.132845
 C22     -C42     -C41     : 120.095366  H53     -C42     -C41     : 119.971301
 H53     -C42     -C22     : 119.933325  C42     -C22     -C38     : 124.924857
 H54     -C22     -C38     : 121.057891  H54     -C22     -C42     : 114.010856
 C24     -C23     -C15     : 121.072537  C28     -C23     -C15     : 125.285237
 C28     -C23     -C24     : 113.635329  C25     -C24     -C23     : 123.838833
 H55     -C24     -C23     : 121.055335  H55     -C24     -C25     : 115.004393
 C26     -C25     -C24     : 120.112978  H56     -C25     -C24     : 120.263401
 H56     -C25     -C26     : 119.623423  C27     -C26     -C25     : 118.220572
 H57     -C26     -C25     : 120.956461  H57     -C26     -C27     : 120.821812
 C28     -C27     -C26     : 120.140430  H79     -C27     -C26     : 119.219895
 H79     -C27     -C28     : 120.639506  C27     -C28     -C23     : 124.048634
 H80     -C28     -C23     : 121.695734  H80     -C28     -C27     : 114.183109
 
  torsional angles:
 
 P1      -Pd2     -N2      -H30     : 117.329579
 P1      -Pd2     -N2      -C34     :-122.571445
 P1      -Pd2     -C19     -C18     : -75.051269
 P1      -Pd2     -C19     -C20     : 113.018881
 P1      -C7      -C6      -H29     :  60.423601
 P1      -C7      -C6      -H51     : -63.971781
 P1      -C7      -C6      -H31     : 178.610880
 P1      -C7      -C8      -H32     : -61.557565
 P1      -C7      -C8      -H33     : 179.931233
 P1      -C7      -C8      -H34     :  60.802319
 P1      -C7      -C9      -H35     : -59.094664
 P1      -C7      -C9      -H36     :-179.623589
 P1      -C7      -C9      -H58     :  62.275757
 P1      -C10     -C11     -H59     :  58.116114
 P1      -C10     -C11     -H60     : -65.152471
 P1      -C10     -C11     -H61     : 177.243530
 P1      -C10     -C12     -H62     :  59.561348
 P1      -C10     -C12     -H42     : -62.364252
 P1      -C10     -C12     -H43     : 178.637193
 P1      -C10     -C13     -H44     : -64.845351
 P1      -C10     -C13     -H45     : 178.096263
 P1      -C10     -C13     -H46     :  59.410745
 P1      -C14     -C15     -C38     :   6.457709
 P1      -C14     -C15     -C23     :-172.406568
 P1      -C14     -C37     -H47     :-151.247671
 P1      -C14     -C37     -H48     :  81.355884
 P1      -C14     -C37     -H49     : -37.714256
 Pd2     -P1      -C7      -C6      :-167.135311
 Pd2     -P1      -C7      -C8      :  72.184917
 Pd2     -P1      -C7      -C9      : -43.984384
 Pd2     -P1      -C10     -C11     :  26.616122
 Pd2     -P1      -C10     -C12     : -94.660115
 Pd2     -P1      -C10     -C13     : 146.381420
 Pd2     -P1      -C14     -C15     :   9.402308
 Pd2     -P1      -C14     -C37     :-174.806813
 Pd2     -N2      -C34     -C33     : -51.616232
 Pd2     -N2      -C34     -C35     : 128.383766
 Pd2     -C19     -C18     -C17     :-170.050886
 Pd2     -C19     -C18     -H24     :   9.178290
 Pd2     -C19     -C20     -C21     : 169.957016
 Pd2     -C19     -C20     -H25     :  -9.553378
 N2      -Pd2     -P1      -C7      : 142.047461
 N2      -Pd2     -P1      -C10     :  15.827340
 N2      -Pd2     -P1      -C14     : -98.840359
 N2      -Pd2     -C19     -C18     :  70.381459
 N2      -Pd2     -C19     -C20     :-101.548391
 N2      -C34     -C33     -C32     : 179.999999
 N2      -C34     -C33     -H39     :  -0.000004
 N2      -C34     -C35     -C36     :-179.999998
 N2      -C34     -C35     -H40     :   0.000001
 C16     -C17     -C18     -C19     :  -1.182136
 C16     -C17     -C18     -H24     : 179.579750
 C16     -C21     -C20     -C19     :   1.078553
 C16     -C21     -C20     -H25     :-179.406842
 C17     -C16     -C21     -C20     :   0.183250
 C17     -C16     -C21     -H26     :-179.819722
 C17     -C18     -C19     -C20     :   2.330995
 C18     -C17     -C16     -C21     :  -0.133028
 C18     -C17     -C16     -F10     :-178.834314
 C18     -C19     -C20     -C21     :  -2.280368
 C18     -C19     -C20     -H25     : 178.209238
 C19     -Pd2     -P1      -C7      : -40.912002
 C19     -Pd2     -P1      -C10     :-167.132123
 C19     -Pd2     -P1      -C14     :  78.200179
 C19     -Pd2     -N2      -H30     : -27.976472
 C19     -Pd2     -N2      -C34     :  92.122504
 C19     -C18     -C17     -H23     : 178.853796
 C19     -C20     -C21     -H26     :-178.918464
 C20     -C19     -C18     -H24     :-178.439829
 C20     -C21     -C16     -F10     : 178.892184
 C21     -C16     -C17     -H23     : 179.831126
 F10     -C16     -C17     -H23     :   1.129840
 F10     -C16     -C21     -H26     :  -1.110788
 H23     -C17     -C18     -H24     :  -0.384317
 H25     -C20     -C21     -H26     :   0.596141
 H30     -N2      -C34     -C33     :  66.183656
 H30     -N2      -C34     -C35     :-113.816347
 C31     -C32     -C33     -C34     :  -0.000001
 C31     -C32     -C33     -H39     :-179.999999
 C31     -C36     -C35     -C34     :  -0.000001
 C31     -C36     -C35     -H40     : 180.000000
 C32     -C31     -C36     -C35     :   0.000001
 C32     -C31     -C36     -H41     : 179.999999
 C32     -C33     -C34     -C35     :   0.000001
 C33     -C32     -C31     -C36     :   0.000000
 C33     -C32     -C31     -H37     : 180.000000
 C33     -C34     -C35     -C36     :   0.000000
 C33     -C34     -C35     -H40     : 180.000000
 C34     -C33     -C32     -H38     : 180.000000
 C34     -C35     -C36     -H41     :-179.999999
 C35     -C34     -C33     -H39     : 179.999999
 C35     -C36     -C31     -H37     :-179.999999
 C36     -C31     -C32     -H38     : 179.999999
 H37     -C31     -C32     -H38     :  -0.000001
 H37     -C31     -C36     -H41     :  -0.000001
 H38     -C32     -C33     -H39     :   0.000003
 H40     -C35     -C36     -H41     :   0.000002
 C6      -C7      -P1      -C10     : -29.177571
 C6      -C7      -P1      -C14     :  85.556994
 C6      -C7      -C8      -H32     : 168.730180
 C6      -C7      -C8      -H33     :  50.218977
 C6      -C7      -C8      -H34     : -68.909937
 C6      -C7      -C9      -H35     :  71.659901
 C6      -C7      -C9      -H36     : -48.869024
 C6      -C7      -C9      -H58     :-166.969678
 C7      -P1      -C10     -C11     : -93.906048
 C7      -P1      -C10     -C12     : 144.817715
 C7      -P1      -C10     -C13     :  25.859250
 C7      -P1      -C14     -C15     : 113.959309
 C7      -P1      -C14     -C37     : -70.249812
 C8      -C7      -P1      -C10     :-149.857343
 C8      -C7      -P1      -C14     : -35.122778
 C8      -C7      -C6      -H29     :-175.418780
 C8      -C7      -C6      -H51     :  60.185837
 C8      -C7      -C6      -H31     : -57.231501
 C8      -C7      -C9      -H35     :-178.588850
 C8      -C7      -C9      -H36     :  60.882225
 C8      -C7      -C9      -H58     : -57.218429
 C9      -C7      -P1      -C10     :  93.973356
 C9      -C7      -P1      -C14     :-151.292079
 C9      -C7      -C6      -H29     : -64.445286
 C9      -C7      -C6      -H51     : 171.159331
 C9      -C7      -C6      -H31     :  53.741993
 C9      -C7      -C8      -H32     :  57.232106
 C9      -C7      -C8      -H33     : -61.279096
 C9      -C7      -C8      -H34     : 179.591989
 C10     -P1      -C14     -C15     :-125.144224
 C10     -P1      -C14     -C37     :  50.646655
 C11     -C10     -P1      -C14     : 141.891313
 C11     -C10     -C12     -H62     : -64.954754
 C11     -C10     -C12     -H42     : 173.119646
 C11     -C10     -C12     -H43     :  54.121091
 C11     -C10     -C13     -H44     :  59.211664
 C11     -C10     -C13     -H45     : -57.846722
 C11     -C10     -C13     -H46     :-176.532241
 C12     -C10     -P1      -C14     :  20.615076
 C12     -C10     -C11     -H59     :-176.975318
 C12     -C10     -C11     -H60     :  59.756098
 C12     -C10     -C11     -H61     : -57.847901
 C12     -C10     -C13     -H44     : 171.000437
 C12     -C10     -C13     -H45     :  53.942051
 C12     -C10     -C13     -H46     : -64.743467
 C13     -C10     -P1      -C14     : -98.343389
 C13     -C10     -C11     -H59     : -67.371767
 C13     -C10     -C11     -H60     : 169.359648
 C13     -C10     -C11     -H61     :  51.755650
 C13     -C10     -C12     -H62     :-175.241344
 C13     -C10     -C12     -H42     :  62.833056
 C13     -C10     -C12     -H43     : -56.165499
 C14     -C15     -C38     -C39     :-111.635098
 C14     -C15     -C38     -C22     :  64.768980
 C14     -C15     -C23     -C24     :-149.696363
 C14     -C15     -C23     -C28     :  29.285990
 C15     -C14     -C37     -H47     :  24.907935
 C15     -C14     -C37     -H48     :-102.488509
 C15     -C14     -C37     -H49     : 138.441351
 C15     -C38     -C39     -C40     : 178.726145
 C15     -C38     -C39     -H50     :   2.308983
 C15     -C38     -C22     -C42     :-178.439997
 C15     -C38     -C22     -H54     :   2.536328
 C15     -C23     -C24     -C25     : 179.109877
 C15     -C23     -C24     -H55     :   2.957507
 C15     -C23     -C28     -C27     :-179.550474
 C15     -C23     -C28     -H80     :   3.728784
 C37     -C14     -C15     -C38     :-168.909534
 C37     -C14     -C15     -C23     :  12.226189
 C38     -C15     -C23     -C24     :  31.347763
 C38     -C15     -C23     -C28     :-149.669883
 C38     -C39     -C40     -C41     :  -0.866591
 C38     -C39     -C40     -H72     :-179.597121
 C38     -C22     -C42     -C41     :   0.617818
 C38     -C22     -C42     -H53     :-179.415086
 C39     -C38     -C15     -C23     :  67.259704
 C39     -C38     -C22     -C42     :  -1.758124
 C39     -C38     -C22     -H54     : 179.218201
 C39     -C40     -C41     -C42     :  -0.456317
 C39     -C40     -C41     -H52     :-179.853482
 C40     -C39     -C38     -C22     :   1.877878
 C40     -C41     -C42     -C22     :   0.577604
 C40     -C41     -C42     -H53     :-179.389480
 C41     -C40     -C39     -H50     : 175.812513
 C41     -C42     -C22     -H54     : 179.702229
 C42     -C41     -C40     -H72     : 178.288383
 C22     -C38     -C15     -C23     :-116.336218
 C22     -C38     -C39     -H50     :-174.539284
 C22     -C42     -C41     -H52     : 179.975530
 C23     -C24     -C25     -C26     :   0.421801
 C23     -C24     -C25     -H56     :-179.740833
 C23     -C28     -C27     -C26     :   0.549223
 C23     -C28     -C27     -H79     :-179.299700
 C24     -C23     -C28     -C27     :  -0.501907
 C24     -C23     -C28     -H80     :-177.222650
 C24     -C25     -C26     -C27     :  -0.381911
 C24     -C25     -C26     -H57     : 179.230315
 C25     -C24     -C23     -C28     :   0.016620
 C25     -C26     -C27     -C28     :  -0.075670
 C25     -C26     -C27     -H79     : 179.775393
 C26     -C25     -C24     -H55     : 176.785067
 C26     -C27     -C28     -H80     : 177.490866
 C27     -C26     -C25     -H56     : 179.779681
 C28     -C23     -C24     -H55     :-176.135750
 C28     -C27     -C26     -H57     :-179.688441
 H50     -C39     -C40     -H72     :  -2.918018
 H72     -C40     -C41     -H52     :  -1.108782
 H52     -C41     -C42     -H53     :   0.008447
 H53     -C42     -C22     -H54     :  -0.330674
 H55     -C24     -C25     -H56     :  -3.377567
 H56     -C25     -C26     -H57     :  -0.608094
 H57     -C26     -C27     -H79     :   0.162623
 H79     -C27     -C28     -H80     :  -2.358057
 
  nuclear repulsion energy.......          5351.410469908 hartrees
  
  Detected an organometallic with only one TM atom. 
  
  Oxidation state on metal       2 is     2
  Formal multiplet on metal      2 is     1
  Formal charge on ligand        3 is    -1
  Formal multiplet on ligand     3 is     1
  Formal charge on ligand        4 is    -1
  Formal multiplet on ligand     4 is     1
  
 
  Will use High-Quality Initial guess for organometallics
       including d-d repulsion (iguess=30)
 
 Non-default options chosen:
   SCF calculation type: DFT(b3pw91-d3)              
   DFT=Becke_3_Parameter/HF+Slater+Becke88+PW91+PW-GGAIIC (B3PW91-D3)
   Geometry will be optimized in redundant internal coordinates
   Solvation energy will be computed using PBF
     -solute cavity energy will not be included
     -surface area terms will not be included
   Vibrational frequencies and related properties will be computed
      from analytic second derivatives
   IR intensities will be computed
   Thermochemical properties will be computed
   Maximum number of geometry steps: 100
   Scaling standard convergence criteria by a factor of   5.00
   Solvent: benzene                                                         
   Internal dielectric constant:    1.000
   Continuum dielectric constant:   2.283
   Solvent probe molecule radius:   2.600
  
 Non-default print settings:
     11=  2
  
 Temporary integer options set:
     21= -1  73=  2
  
  atom       vdw   vdw2    cov     mass  grid  daf  charge   basis
  P1        2.147  2.074  1.060   30.974    Y    Y      Y    ps_6-31g*
  Pd2       1.450  1.450  1.280  105.903    Y    Y      Y    lacv3p*
  N2        1.831  1.600  0.750   14.003    Y    Y      Y    ps_6-31g*
  C16       1.949  1.900  0.770   12.000    Y    Y      Y    ps_6-31g*
  C17       1.949  1.900  0.770   12.000    Y    Y      Y    ps_6-31g*
  C18       1.949  1.900  0.770   12.000    Y    Y      Y    ps_6-31g*
  C19       1.949  1.900  0.770   12.000    Y    Y      Y    ps_6-31g*
  C20       1.949  1.900  0.770   12.000    Y    Y      Y    ps_6-31g*
  C21       1.949  1.900  0.770   12.000    Y    Y      Y    ps_6-31g*
  F10       1.736  1.682  0.720   18.998    Y    Y      Y    ps_6-31g*
  H23       1.597  1.150  0.320    1.008    Y    Y      Y    ps_6-31g*
  H24       1.597  1.150  0.320    1.008    Y    Y      Y    ps_6-31g*
  H25       1.597  1.150  0.320    1.008    Y    Y      Y    ps_6-31g*
  H26       1.597  1.150  0.320    1.008    Y    Y      Y    ps_6-31g*
  H30       1.597  1.150  0.320    1.008    Y    Y      Y    ps_6-31g*
  C31       1.949  1.900  0.770   12.000    Y    Y      Y    ps_6-31g*
  C32       1.949  1.900  0.770   12.000    Y    Y      Y    ps_6-31g*
  C33       1.949  1.900  0.770   12.000    Y    Y      Y    ps_6-31g*
  C34       1.949  1.900  0.770   12.000    Y    Y      Y    ps_6-31g*
  C35       1.949  1.900  0.770   12.000    Y    Y      Y    ps_6-31g*
  C36       1.949  1.900  0.770   12.000    Y    Y      Y    ps_6-31g*
  H37       1.597  1.150  0.320    1.008    Y    Y      Y    ps_6-31g*
  H38       1.597  1.150  0.320    1.008    Y    Y      Y    ps_6-31g*
  H39       1.597  1.150  0.320    1.008    Y    Y      Y    ps_6-31g*
  H40       1.597  1.150  0.320    1.008    Y    Y      Y    ps_6-31g*
  H41       1.597  1.150  0.320    1.008    Y    Y      Y    ps_6-31g*
  C6        1.949  1.900  0.770   12.000    Y    Y      Y    ps_6-31g*
  C7        1.949  1.900  0.770   12.000    Y    Y      Y    ps_6-31g*
  C8        1.949  1.900  0.770   12.000    Y    Y      Y    ps_6-31g*
  C9        1.949  1.900  0.770   12.000    Y    Y      Y    ps_6-31g*
  C10       1.949  1.900  0.770   12.000    Y    Y      Y    ps_6-31g*
  C11       1.949  1.900  0.770   12.000    Y    Y      Y    ps_6-31g*
  C12       1.949  1.900  0.770   12.000    Y    Y      Y    ps_6-31g*
  C13       1.949  1.900  0.770   12.000    Y    Y      Y    ps_6-31g*
  C14       1.949  1.900  0.770   12.000    Y    Y      Y    ps_6-31g*
  C15       1.949  1.900  0.770   12.000    Y    Y      Y    ps_6-31g*
  C37       1.949  1.900  0.770   12.000    Y    Y      Y    ps_6-31g*
  C38       1.949  1.900  0.770   12.000    Y    Y      Y    ps_6-31g*
  C39       1.949  1.900  0.770   12.000    Y    Y      Y    ps_6-31g*
  C40       1.949  1.900  0.770   12.000    Y    Y      Y    ps_6-31g*
  C41       1.949  1.900  0.770   12.000    Y    Y      Y    ps_6-31g*
  C42       1.949  1.900  0.770   12.000    Y    Y      Y    ps_6-31g*
  C22       1.949  1.900  0.770   12.000    Y    Y      Y    ps_6-31g*
  C23       1.949  1.900  0.770   12.000    Y    Y      Y    ps_6-31g*
  C24       1.949  1.900  0.770   12.000    Y    Y      Y    ps_6-31g*
  C25       1.949  1.900  0.770   12.000    Y    Y      Y    ps_6-31g*
  C26       1.949  1.900  0.770   12.000    Y    Y      Y    ps_6-31g*
  C27       1.949  1.900  0.770   12.000    Y    Y      Y    ps_6-31g*
  C28       1.949  1.900  0.770   12.000    Y    Y      Y    ps_6-31g*
  H29       1.597  1.150  0.320    1.008    Y    Y      Y    ps_6-31g*
  H51       1.597  1.150  0.320    1.008    Y    Y      Y    ps_6-31g*
  H31       1.597  1.150  0.320    1.008    Y    Y      Y    ps_6-31g*
  H32       1.597  1.150  0.320    1.008    Y    Y      Y    ps_6-31g*
  H33       1.597  1.150  0.320    1.008    Y    Y      Y    ps_6-31g*
  H34       1.597  1.150  0.320    1.008    Y    Y      Y    ps_6-31g*
  H35       1.597  1.150  0.320    1.008    Y    Y      Y    ps_6-31g*
  H36       1.597  1.150  0.320    1.008    Y    Y      Y    ps_6-31g*
  H58       1.597  1.150  0.320    1.008    Y    Y      Y    ps_6-31g*
  H59       1.597  1.150  0.320    1.008    Y    Y      Y    ps_6-31g*
  H60       1.597  1.150  0.320    1.008    Y    Y      Y    ps_6-31g*
  H61       1.597  1.150  0.320    1.008    Y    Y      Y    ps_6-31g*
  H62       1.597  1.150  0.320    1.008    Y    Y      Y    ps_6-31g*
  H42       1.597  1.150  0.320    1.008    Y    Y      Y    ps_6-31g*
  H43       1.597  1.150  0.320    1.008    Y    Y      Y    ps_6-31g*
  H44       1.597  1.150  0.320    1.008    Y    Y      Y    ps_6-31g*
  H45       1.597  1.150  0.320    1.008    Y    Y      Y    ps_6-31g*
  H46       1.597  1.150  0.320    1.008    Y    Y      Y    ps_6-31g*
  H47       1.597  1.150  0.320    1.008    Y    Y      Y    ps_6-31g*
  H48       1.597  1.150  0.320    1.008    Y    Y      Y    ps_6-31g*
  H49       1.597  1.150  0.320    1.008    Y    Y      Y    ps_6-31g*
  H50       1.597  1.150  0.320    1.008    Y    Y      Y    ps_6-31g*
  H72       1.597  1.150  0.320    1.008    Y    Y      Y    ps_6-31g*
  H52       1.597  1.150  0.320    1.008    Y    Y      Y    ps_6-31g*
  H53       1.597  1.150  0.320    1.008    Y    Y      Y    ps_6-31g*
  H54       1.597  1.150  0.320    1.008    Y    Y      Y    ps_6-31g*
  H55       1.597  1.150  0.320    1.008    Y    Y      Y    ps_6-31g*
  H56       1.597  1.150  0.320    1.008    Y    Y      Y    ps_6-31g*
  H57       1.597  1.150  0.320    1.008    Y    Y      Y    ps_6-31g*
  H79       1.597  1.150  0.320    1.008    Y    Y      Y    ps_6-31g*
  H80       1.597  1.150  0.320    1.008    Y    Y      Y    ps_6-31g*
 
  atom      formal  2spin      esp    mulk    frag
  P1           0       0        Y    0.000       0
  Pd2          2       0        Y    0.000       0
  N2          -1       0        Y    0.000       0
  C16         -1       0        Y    0.000       0
  
  end of program pre
   
 Time(pre)  user:       1.006  user+sys:       1.006  wallclock:       1.103
  
  start of program onee
  
  smallest eigenvalue of S:    4.335E-04
  number of canonical orbitals.....          646
  end of program onee
   
 Time(onee)  user:       5.062  user+sys:       5.062  wallclock:       3.633
  
  start of program hfig
  
  initial wavefunction generated automatically from atomic wavefunctions
  Only one state below 0.010000
  Skip d-d repulsion considerations 
 
  Irreducible     Total no   No of occupied orbitals 
  representation  orbitals   Shell_1  Shell_2    ...
  No Symm          646        150
  ------------------------
  Orbital occupation/shell    1.000
 
  end of program hfig
   
 Time(hfig)  user:       1.166  user+sys:       1.166  wallclock:       1.239
  
  start of program probe
  
  end of program probe
   
 Time(probe)  user:       0.682  user+sys:       0.682  wallclock:       0.608
  
  start of program grid
  
   grid     grid set  grid #  grid sym
  ------    --------  ------  --------
  coarse        0        0        1
  medium        2        1        1
  fine          0        0        1
  ultrafine     4        2        1
  charge       -1        3        1
  gradient      4        2        1
  density       0        0        1
  DFT-fine    -11        4        1
  DFT-med.    -10        5        1
  DFT-grad    -12        6        1
  DFT-der2     -8        7        1
  DFT-cphf     -9        8        1
  LMP2-enrg     4        2        1
  LMP2-grad     2        1        1
  DFT-cphf2   -15        9        1
  PBF-dens      0        0        1
  plotting      0        0        1
  Rel-grad    -17        0        1
  
  number of gridpoints: 
     atom           P1         Pd2          N2         C16         C17         C18         C19
  grid # 1         605         355         106          78          93          93          94
  grid # 2         426         303         385         327         322         300         351
  grid # 3           8         223          10          34          21          10          17
  grid # 4        8714        8714        8714        8714        8714        8714        8714
  grid # 5        1192        1192        1192        1192        1192        1192        1192
  grid # 6        9132        9132        5922        5922        5922        5922        5922
  grid # 7       23034       32968       13958       13950       13950       13950       13950
  grid # 8         722        1150         756         748         748         748         748
  grid # 9         366        2198         406         394         394         394         394
   
  number of gridpoints: 
     atom          C20         C21         F10         H23         H24         H25         H26
  grid # 1          94          93         584         115         100         106         115
  grid # 2         308         320         564         462         405         431         466
  grid # 3          25          29         365         354          44         215         402
  grid # 4        8714        8714        8714        8714        8714        8714        8714
  grid # 5        1192        1192        1192        1192        1192        1192        1192
  grid # 6        5922        5922        5922        5922        5922        5922        5922
  grid # 7       13950       13950       23190       15206       15206       15206       15206
  grid # 8         748         748         770         786         786         786         786
  grid # 9         394         394         420         420         420         420         420
   
  number of gridpoints: 
     atom          H30         C31         C32         C33         C34         C35         C36
  grid # 1          96          97          97          95          99          96          97
  grid # 2         397         325         325         324         358         324         325
  grid # 3          54          53          52          37          32          45          51
  grid # 4        8714        8714        8714        8714        8714        8714        8714
  grid # 5        1192        1192        1192        1192        1192        1192        1192
  grid # 6        5922        5922        5922        5922        5922        5922        5922
  grid # 7       15206       13950       13950       13950       13950       13950       13950
  grid # 8         786         748         748         748         748         748         748
  grid # 9         420         394         394         394         394         394         394
   
  number of gridpoints: 
     atom          H37         H38         H39         H40         H41          C6          C7
  grid # 1         118         118         111         107         118          82          88
  grid # 2         467         467         452         438         467         245         367
  grid # 3         422         419         215         220         419           6           6
  grid # 4        8714        8714        8714        8714        8714        8714        8714
  grid # 5        1192        1192        1192        1192        1192        1192        1192
  grid # 6        5922        5922        5922        5922        5922        5922        5922
  grid # 7       15206       15206       15206       15206       15206       13950       13950
  grid # 8         786         786         786         786         786         748         748
  grid # 9         420         420         420         420         420         394         394
   
  number of gridpoints: 
     atom           C8          C9         C10         C11         C12         C13         C14
  grid # 1          80          82          88          80          82          82          87
  grid # 2         244         240         369         247         246         245         389
  grid # 3           6           6           6           6           6           6           6
  grid # 4        8714        8714        8714        8714        8714        8714        8714
  grid # 5        1192        1192        1192        1192        1192        1192        1192
  grid # 6        5922        5922        5922        5922        5922        5922        5922
  grid # 7       13950       13950       13950       13950       13950       13950       13950
  grid # 8         748         748         748         748         748         748         748
  grid # 9         394         394         394         394         394         394         394
   
  number of gridpoints: 
     atom          C15         C37         C38         C39         C40         C41         C42
  grid # 1          99          79          97          92          95          95          93
  grid # 2         354         241         359         321         325         321         317
  grid # 3          13           6           7          13          25          28          21
  grid # 4        8714        8714        8714        8714        8714        8714        8714
  grid # 5        1192        1192        1192        1192        1192        1192        1192
  grid # 6        5922        5922        5922        5922        5922        5922        5922
  grid # 7       13950       13950       13950       13950       13950       13950       13950
  grid # 8         748         748         748         748         748         748         748
  grid # 9         394         394         394         394         394         394         394
   
  number of gridpoints: 
     atom          C22         C23         C24         C25         C26         C27         C28
  grid # 1          91          97          94          97          97          96          93
  grid # 2         313         360         326         327         326         326         324
  grid # 3          12          19          37          53          52          43          21
  grid # 4        8714        8714        8714        8714        8714        8714        8714
  grid # 5        1192        1192        1192        1192        1192        1192        1192
  grid # 6        5922        5922        5922        5922        5922        5922        5922
  grid # 7       13950       13950       13950       13950       13950       13950       13950
  grid # 8         748         748         748         748         748         748         748
  grid # 9         394         394         394         394         394         394         394
   
  number of gridpoints: 
     atom          H29         H51         H31         H32         H33         H34         H35
  grid # 1         101         105         107          85         106         104         102
  grid # 2         416         439         440         362         438         435         444
  grid # 3         145         196         254           7         205         145         214
  grid # 4        8714        8714        8714        8714        8714        8714        8714
  grid # 5        1192        1192        1192        1192        1192        1192        1192
  grid # 6        5922        5922        5922        5922        5922        5922        5922
  grid # 7       15206       15206       15206       15206       15206       15206       15206
  grid # 8         786         786         786         786         786         786         786
  grid # 9         420         420         420         420         420         420         420
   
  number of gridpoints: 
     atom          H36         H58         H59         H60         H61         H62         H42
  grid # 1         107          94         105         100         107         105          99
  grid # 2         442         400         440         413         443         443         401
  grid # 3         236          56         188          74         260         206         125
  grid # 4        8714        8714        8714        8714        8714        8714        8714
  grid # 5        1192        1192        1192        1192        1192        1192        1192
  grid # 6        5922        5922        5922        5922        5922        5922        5922
  grid # 7       15206       15206       15206       15206       15206       15206       15206
  grid # 8         786         786         786         786         786         786         786
  grid # 9         420         420         420         420         420         420         420
   
  number of gridpoints: 
     atom          H43         H44         H45         H46         H47         H48         H49
  grid # 1         107         101         107         102         106         104          92
  grid # 2         444         415         443         426         434         429         381
  grid # 3         270         143         262         158         211         157          55
  grid # 4        8714        8714        8714        8714        8714        8714        8714
  grid # 5        1192        1192        1192        1192        1192        1192        1192
  grid # 6        5922        5922        5922        5922        5922        5922        5922
  grid # 7       15206       15206       15206       15206       15206       15206       15206
  grid # 8         786         786         786         786         786         786         786
  grid # 9         420         420         420         420         420         420         420
   
  number of gridpoints: 
     atom          H50         H72         H52         H53         H54         H55         H56
  grid # 1         105         118         117         109         103         114         118
  grid # 2         428         464         467         448         434         456         466
  grid # 3         168         395         396         313         188         298         423
  grid # 4        8714        8714        8714        8714        8714        8714        8714
  grid # 5        1192        1192        1192        1192        1192        1192        1192
  grid # 6        5922        5922        5922        5922        5922        5922        5922
  grid # 7       15206       15206       15206       15206       15206       15206       15206
  grid # 8         786         786         786         786         786         786         786
  grid # 9         420         420         420         420         420         420         420
   
  number of gridpoints: 
     atom          H57         H79         H80       total
  grid # 1         118         118         107        9219
  grid # 2         467         466         437       30632
  grid # 3         431         415         179       10953
  grid # 4        8714        8714        8714      697120
  grid # 5        1192        1192        1192       95360
  grid # 6        5922        5922        5922      480180
  grid # 7       15206       15206       15206     1204846
  grid # 8         786         786         786       61804
  grid # 9         420         420         420       34400
   
  end of program grid
   
 Time(grid)  user:     363.663  user+sys:     363.663  wallclock:     184.831
  
  start of program rwr
  
  end of program rwr
   
 Time(rwr)  user:      20.052  user+sys:      20.052  wallclock:      25.240
  
  start of program scf
  
 number of electrons..........        300
 number of alpha electrons....        150
 number of beta electrons.....        150
 number of orbitals, total....        646
 number of doubly-occ'd orbs..        150
 number of open shell orbs....          0
 number of occupied orbitals..        150
 number of virtual orbitals...        496
 number of hamiltonians.......          1
 number of shells.............          1
 SCF type: DFT=Becke_3_Parameter/HF+Slater+Becke88+PW91+PW-GGAIIC (B3PW91-D3)
 Energy computed using pseudospectral method.
 Convergence Criterion:
    Energy (econv):       1.00E-05
    RMS density (dconv):  5.00E-06
  
       i  u  d  i  g                   
       t  p  i  c  r                                 RMS    maximum
       e  d  i  u  i                       energy  density   DIIS  
       r  t  s  t  d       total energy    change  change    error 
  
etot    1  N  N  5  M   -1975.49670272924           2.0E-03  1.5E-01
etot    2  Y  Y  6  M   -1978.67675070910  3.2E+00  3.5E-03  9.5E-02
etot    3  Y  Y  6  M   -1979.55778782592  8.8E-01  1.9E-03  7.8E-02
etot    4  N  Y  2  U   -1979.84602324734  2.9E-01  1.1E-03  6.2E-02
etot    5  Y  Y  6  M   -1980.12414689619  2.8E-01  6.7E-04  4.0E-02
etot    6  N  Y  2  U   -1980.14598612948  2.2E-02  7.9E-04  2.3E-02
etot    7  Y  Y  6  M   -1980.14335342539 -2.6E-03  2.1E-04  6.6E-03
etot    8  Y  Y  6  M   -1980.15383503737  1.0E-02  7.4E-05  2.2E-03
etot    9  N  Y  2  U   -1980.15566892825  1.8E-03  1.5E-05  3.8E-04
etot   10  N  Y  2  U   -1980.15569149471  2.3E-05  6.2E-06  1.7E-04
etot   11  N  Y  2  U   -1980.15569646435  5.0E-06  2.8E-06  8.8E-05
etot   12  N  N  2  U   -1980.15569705671  5.9E-07  0.0E+00  0.0E+00
 
  Computing the dispersion energy correction and its gradients...
  
  
 Energy components, in hartrees:
   (A)  Nuclear repulsion............    5351.41046990821
   (E)  Total one-electron terms.....  -13408.28448746331
   (F)    Electron-nuclear...........  -15297.34846851659
   (H)    Kinetic....................    1889.06398105329
   (I)  Total two-electron terms.....    6076.71832049839
   (J)    Coulomb....................    6334.89948451954
   (K)    Exchange+Correlation.......    -258.18116402115
   (L)  Electronic energy............   -7331.56616696492  (E+I)
   (N0) D3 correction................      -0.14463479680
   (N)  Total energy.................   -1980.30033185351  (A+L+N0)
   (O)  Gas phase energy.............   -1980.30033185351
  
 SCFE: SCF energy: DFT(b3pw91-d3)     -1980.30033185351 hartrees   iterations:  12
  
 
 HOMO energy:    -0.16092
 LUMO energy:    -0.07512
 
  Orbital energies (hartrees): 
   -77.10270   -24.68637   -14.25131   -10.24603   -10.22083   -10.21471
   -10.20955   -10.20448   -10.20272   -10.20124   -10.18958   -10.18809
   -10.18807   -10.18710   -10.18616   -10.18546   -10.18164   -10.18021
   -10.17942   -10.17734   -10.17651   -10.17633   -10.17108   -10.16719
   -10.16661   -10.16597   -10.16041   -10.16035   -10.16010   -10.15967
   -10.15717   -10.15716   -10.15587   -10.15426   -10.15404   -10.15015
   -10.14744   -10.11439    -6.60139    -4.75912    -4.75838    -4.75755
    -3.33618    -2.06880    -2.06657    -2.03636    -1.22268    -0.88504
    -0.87871    -0.86413    -0.84582    -0.84239    -0.82169    -0.81098
    -0.79091    -0.77294    -0.75952    -0.75715    -0.75349    -0.75199
    -0.74611    -0.72359    -0.70781    -0.69743    -0.68658    -0.68321
    -0.68150    -0.67326    -0.66242    -0.62381    -0.62103    -0.61453
    -0.60638    -0.60493    -0.59919    -0.58330    -0.56609    -0.56199
    -0.55785    -0.54698    -0.53271    -0.52392    -0.50362    -0.48977
    -0.48624    -0.48329    -0.48153    -0.47605    -0.47181    -0.46652
    -0.46219    -0.45737    -0.45636    -0.45099    -0.45006    -0.44702
    -0.44398    -0.44055    -0.43600    -0.43225    -0.42697    -0.42478
    -0.42399    -0.41562    -0.41078    -0.40925    -0.40266    -0.40086
    -0.39934    -0.39665    -0.39317    -0.38705    -0.38104    -0.37558
    -0.37414    -0.37109    -0.36994    -0.36566    -0.36324    -0.35982
    -0.35345    -0.34859    -0.34634    -0.34418    -0.34008    -0.33671
    -0.33441    -0.32925    -0.32698    -0.32466    -0.32406    -0.31890
    -0.31507    -0.31312    -0.29647    -0.29109    -0.28194    -0.27497
    -0.26346    -0.26036    -0.25935    -0.25505    -0.24718    -0.24282
    -0.23850    -0.23148    -0.20534    -0.20470    -0.17300    -0.16092
    -0.07512    -0.06019    -0.02314    -0.01821    -0.01129     0.00135
     0.00572     0.01339     0.01964     0.02881
 
  end of program scf
   
 Time(scf)  user:     522.987  user+sys:     522.987  wallclock:     278.271
  
  start of program der1a
  
  end of program der1a
   
 Time(der1a)  user:      15.344  user+sys:      15.344  wallclock:       8.305
  
  start of program rwr
  
  end of program rwr
   
 Time(rwr)  user:      21.967  user+sys:      21.967  wallclock:      28.214
  
  start of program der1b
  
   
  forces (hartrees/bohr) : total     
   
 atom  label           x              y              z
 ---- --------   -------------  -------------  -------------
    1 P1         -1.053331E-02  -5.149662E-04   1.066130E-02
    2 Pd2        -1.185446E-02   1.198368E-02   6.400223E-03
    3 N2         -3.089877E-02   1.161902E-02   2.505125E-02
    4 C16        -2.069325E-02   2.566992E-02  -6.230767E-03
    5 C17        -8.114415E-03  -1.124884E-02   1.470897E-03
    6 C18        -5.039194E-03  -4.371535E-02   4.965350E-02
    7 C19        -4.182467E-02  -3.328343E-03   8.428533E-02
    8 C20         3.180413E-03  -6.261920E-03   6.303151E-02
    9 C21         9.982302E-03  -2.551186E-03   7.065013E-03
   10 F10         4.092352E-03  -4.314691E-03   1.000210E-03
   11 H23         1.566848E-03   1.654430E-03  -9.344413E-04
   12 H24         2.332225E-02   8.798829E-03  -9.779120E-03
   13 H25         6.391341E-03  -1.109972E-02   8.438737E-03
   14 H26        -1.034992E-03  -1.794766E-03  -1.022912E-03
   15 H30         4.712441E-02   5.953810E-02  -2.380272E-02
   16 C31         7.801488E-04   2.881397E-03   2.480591E-03
   17 C32         6.841297E-04  -7.752617E-04   6.634552E-04
   18 C33         3.336993E-03   1.149632E-02   1.167052E-02
   19 C34        -1.361368E-03  -3.349623E-02  -1.815590E-02
   20 C35        -1.580652E-03   1.237233E-02   2.228518E-03
   21 C36         1.661689E-04  -2.165675E-03  -1.441224E-03
   22 H37        -7.690539E-04  -8.779790E-03  -5.317341E-03
   23 H38        -4.262480E-03   4.144093E-04  -8.935950E-03
   24 H39        -4.634996E-03   7.241807E-03  -4.567991E-03
   25 H40         4.600225E-03  -9.938246E-04   1.350773E-02
   26 H41         3.362198E-03  -8.593144E-03   3.929392E-03
   27 C6          5.845900E-03   1.500674E-03  -1.887419E-02
   28 C7          5.007337E-02  -6.795653E-03  -2.262849E-02
   29 C8          1.634988E-02   1.270922E-03  -7.072140E-02
   30 C9         -1.186502E-02   2.456372E-02   1.048823E-02
   31 C10        -2.346056E-02   2.181903E-02  -1.683460E-02
   32 C11        -6.677470E-03   7.125985E-03   1.237851E-02
   33 C12        -2.178933E-02  -9.023982E-03   8.405657E-03
   34 C13         1.552853E-02   7.067696E-03  -1.227605E-02
   35 C14         1.913784E-04   2.985116E-04  -1.878077E-02
   36 C15        -1.930472E-03   2.732492E-04  -2.314129E-03
   37 C37         1.210610E-02  -1.159092E-03  -2.329904E-02
   38 C38         3.998355E-03   3.331299E-03   2.753226E-02
   39 C39         1.113018E-03  -2.133092E-02   1.500781E-02
   40 C40        -3.639028E-03   2.389613E-03   5.148393E-04
   41 C41        -9.982184E-04   8.538729E-04  -1.914215E-04
   42 C42        -2.805923E-03  -2.157893E-02   8.733512E-03
   43 C22        -2.351223E-02  -2.092183E-02  -1.139700E-02
   44 C23        -1.495503E-02  -1.627639E-02   1.241958E-03
   45 C24        -1.514015E-02   3.358062E-04   8.176630E-03
   46 C25         3.047573E-03   1.284380E-03  -6.667517E-04
   47 C26         1.335706E-03   3.240953E-03   9.655756E-04
   48 C27        -5.093900E-03  -1.099903E-03   4.077580E-03
   49 C28         2.244197E-02  -4.621999E-03  -1.017052E-02
   50 H29         7.957521E-03  -9.462776E-03   6.287699E-03
   51 H51        -3.091277E-03   8.054075E-03   8.995304E-03
   52 H31        -9.531641E-03  -4.965940E-03   7.880548E-03
   53 H32         3.991468E-02   1.205818E-02  -1.071707E-01
   54 H33        -7.966266E-03   7.344620E-03  -4.920067E-03
   55 H34         6.371591E-04   5.392693E-03   2.982748E-03
   56 H35         2.842123E-03  -6.875662E-03  -3.708196E-04
   57 H36        -6.586094E-03  -5.345281E-03  -5.607511E-03
   58 H58        -8.605880E-03   1.869308E-02  -2.944989E-02
   59 H59        -6.199177E-03  -4.875285E-03   1.088739E-03
   60 H60         1.437374E-02  -6.454200E-03  -6.953663E-03
   61 H61         8.792829E-03  -9.609618E-03   1.032073E-03
   62 H62         9.609204E-03   2.822520E-03  -2.465229E-03
   63 H42        -2.229131E-02   2.376975E-02   8.729336E-03
   64 H43         8.818102E-03   1.864671E-03   6.026905E-03
   65 H44        -1.814179E-02  -1.025363E-02  -3.925305E-03
   66 H45        -3.505755E-03  -5.597582E-03   1.012222E-02
   67 H46         3.208654E-03   9.145144E-03   4.911138E-03
   68 H47         1.187196E-02   1.231942E-04   7.213404E-03
   69 H48        -1.137079E-02  -2.963982E-04   1.481251E-03
   70 H49         2.846988E-02  -2.154523E-02   9.307511E-03
   71 H50        -1.880666E-02  -1.354314E-03   2.553651E-03
   72 H72        -3.877676E-03   3.359327E-03  -9.406727E-03
   73 H52         1.694537E-03  -1.422950E-03  -1.010695E-02
   74 H53         3.866681E-03  -8.428252E-03  -2.017007E-03
   75 H54         2.919719E-03  -5.779145E-03  -9.451106E-03
   76 H55         1.113432E-02   1.205496E-03  -4.109055E-03
   77 H56         8.663663E-03   8.002952E-03  -3.882223E-03
   78 H57         1.319712E-03   6.820361E-03   2.136893E-03
   79 H79        -3.772250E-03   7.217208E-03   8.230471E-03
   80 H80        -9.558370E-03  -2.053772E-03   1.009999E-02
 -------------   -------------  -------------  -------------
     total       -1.057842E-03  -1.863215E-03  -3.833478E-05
   
  end of program der1b
   
 Time(der1b)  user:     175.654  user+sys:     175.654  wallclock:      92.585
  
  start of program geopt
  
 ----------------------------------------------------------------------------
  Geometry optimization step  1
  Total energy:     -1980.30033185351 hartrees
 ----------------------------------------------------------------------------
  
  
  Level shifts adjusted to satisfy step-size constraints
   Step size:    0.3009068
   Cos(theta):   0.6181491
   Final level shift:  -1.5732104E+00
  
  gradient maximum:        1.0227E+00 .  (  2.2500E-03 )
  gradient rms:            1.1613E-01 .  (  1.5000E-03 )
  displacement maximum:    8.0464E-02 .  (  9.0000E-03 )
  displacement rms:        1.3050E-02 .  (  6.0000E-03 )
  
  predicted energy change:  -1.9950E-01
  step size:     0.21482
  trust radius:  0.30000
  
  molecular structure not yet converged...
  
  center of mass moved by:
     x:     8.0655E-02     y:     1.4451E-03     z:     2.7000E-02
  
  new geometry: 
                                   angstroms
  atom               x                 y                 z
  P1            0.0119484250     -0.0130294445     -0.0102647290 
  Pd2           0.1246100540      0.0358047384      2.2040256751 
  N2           -1.6727858297      1.0708516524      2.3331711356 
  C16           4.0969172985     -2.7413848491      2.8867197100 
  C17           2.9332989994     -3.2673334488      2.3204626675 
  C18           1.8398813708     -2.4466427212      2.0438332528 
  C19           1.8438605868     -1.0704109960      2.3363308621 
  C20           3.0370122533     -0.5573714949      2.8809910300 
  C21           4.1332132869     -1.3713217448      3.1616741345 
  F10           5.1566621838     -3.5128323443      3.1349817919 
  H23           2.8838498798     -4.3323868442      2.0935813057 
  H24           0.9597417360     -2.8931258970      1.5874398295 
  H25           3.1158928091      0.5033215558      3.1121005410 
  H26           5.0329793284     -0.9399017841      3.6007481118 
  H30          -2.3457749104      0.4103721262      2.8766250628 
  C31          -1.3690850630      4.7138641304      4.5084203323 
  C32          -0.8984962237      3.5207875970      5.0772289790 
  C33          -0.9963378148      2.3171850940      4.3634420548 
  C34          -1.5650103287      2.3058762939      3.0790475000 
  C35          -2.0357617903      3.5005241404      2.5114845847 
  C36          -1.9375138891      4.7032271778      3.2260489716 
  H37          -1.2921956752      5.6588337719      5.0688747237 
  H38          -0.4521857918      3.5296186520      6.0842315167 
  H39          -0.6278392461      1.3796869099      4.8091549338 
  H40          -2.4838964548      3.4926146699      1.5063972454 
  H41          -2.3069846044      5.6399517083      2.7797569129 
  C6            2.2299604842      0.5788227007     -1.9039090277 
  C7            1.8179848868      0.2793470900     -0.4409873700 
  C8            2.6509078836     -0.9637436668     -0.0533170246 
  C9            2.3432937911      1.4718948342      0.3766595676 
  C10          -1.1593901647      1.0815579365     -1.0805951628 
  C11          -1.4803418636      2.4232932280     -0.3839084605 
  C12          -2.5391162875      0.4246777482     -1.3703834842 
  C13          -0.6175538914      1.4789379040     -2.4661352998 
  C14          -0.6373599220     -1.7098152970     -0.3878641501 
  C15          -1.2085873990     -2.6574576878      0.4277535003 
  C37          -0.5854279106     -1.9599734559     -1.8768184401 
  C38          -1.6228132178     -2.4658670296      1.8631626743 
  C39          -0.9816064060     -3.1207350193      2.9455392449 
  C40          -1.3449372761     -2.9497756744      4.2863440746 
  C41          -2.3893577526     -2.0830133798      4.6344471321 
  C42          -3.0358970879     -1.3971886699      3.6051367536 
  C22          -2.6432324755     -1.5926695731      2.2693746368 
  C23          -1.4552627587     -4.0315867062     -0.1146913256 
  C24          -2.5489832918     -4.7957861789      0.3588285080 
  C25          -2.8603805031     -6.0802120257     -0.1087157057 
  C26          -2.0672464260     -6.6795804835     -1.0925666987 
  C27          -0.9694051037     -5.9674164113     -1.5913220926 
  C28          -0.6899883434     -4.6800841756     -1.1085101116 
  H29           1.7835867803      1.4890545738     -2.3296612634 
  H51           2.0150189496     -0.2641812032     -2.5994752017 
  H31           3.3257097518      0.7413408883     -1.9878988361 
  H32           2.5856058143     -1.1562305432      1.0391690712 
  H33           3.7245123267     -0.8237792583     -0.2863186941 
  H34           2.3086194762     -1.8560708077     -0.6177527804 
  H35           1.7780332081      2.4061019365      0.1798021426 
  H36           3.4070240686      1.6879677215      0.1583824449 
  H58           2.2919810141      1.2751035423      1.4665934677 
  H59          -0.5609100775      2.9978170139     -0.1637397350 
  H60          -2.0555188344      2.2860110540      0.5527666878 
  H61          -2.1153149650      3.0721977132     -1.0287564105 
  H62          -3.1218865606      0.1784625974     -0.4590313332 
  H42          -2.4511558407     -0.5074907178     -1.9570871883 
  H43          -3.1883122313      1.0995148812     -1.9609871824 
  H44           0.2737685026      2.1393682551     -2.3979477083 
  H45          -1.3558214593      2.0691294783     -3.0439660200 
  H46          -0.3754911377      0.6050534099     -3.1007620593 
  H47          -1.3636967723     -2.6560470929     -2.2518074750 
  H48           0.4293500604     -2.2802282706     -2.2060129671 
  H49          -0.8217372970     -1.0368068851     -2.4410057292 
  H50          -0.1244379037     -3.7816816759      2.7944857303 
  H72          -0.8006311497     -3.4836216889      5.0785770784 
  H52          -2.6840596486     -1.9372570438      5.6843442086 
  H53          -3.8554247717     -0.7022039333      3.8387277324 
  H54          -3.2169772303     -1.0332748484      1.5364112100 
  H55          -3.2538168236     -4.3754752170      1.0924145155 
  H56          -3.7301326927     -6.6222325503      0.2985292367 
  H57          -2.2910811994     -7.6881835425     -1.4596415928 
  H79          -0.3325663121     -6.4272295416     -2.3630292075 
  H80           0.2164241846     -4.2189666301     -1.5275963791 
   
 
  bond lengths (angstroms):
 
 P1      -Pd2     :   2.217692      P1      -C7      :   1.879567
 P1      -C10     :   1.927631      P1      -C14     :   1.855604
 Pd2     -N2      :   2.078132      Pd2     -C19     :   2.048668
 N2      -H30     :   1.088343      N2      -C34     :   1.446801
 C16     -C17     :   1.396881      C16     -C21     :   1.397852
 C16     -F10     :   1.334101      C17     -C18     :   1.394855
 C17     -H23     :   1.090073      C18     -C19     :   1.406977
 C18     -H24     :   1.087331      C19     -C20     :   1.408359
 C20     -C21     :   1.393899      C20     -H25     :   1.088441
 C21     -H26     :   1.090178      C31     -C32     :   1.403007
 C31     -C36     :   1.402748      C31     -H37     :   1.101358
 C32     -C33     :   1.402756      C32     -H38     :   1.101510
 C33     -C34     :   1.404701      C33     -H39     :   1.101523
 C34     -C35     :   1.403894      C35     -C36     :   1.402408
 C35     -H40     :   1.100494      C36     -H41     :   1.101425
 C6      -C7      :   1.549048      C6      -H29     :   1.099562
 C6      -H51     :   1.113853      C6      -H31     :   1.110915
 C7      -C8      :   1.545744      C7      -C9      :   1.538397
 C8      -H32     :   1.111234      C8      -H33     :   1.107477
 C8      -H34     :   1.109954      C9      -H35     :   1.109511
 C9      -H36     :   1.107183      C9      -H58     :   1.108745
 C10     -C11     :   1.545521      C10     -C12     :   1.555350
 C10     -C13     :   1.539876      C11     -H59     :   1.106303
 C11     -H60     :   1.107716      C11     -H61     :   1.113596
 C12     -H62     :   1.109417      C12     -H42     :   1.104942
 C12     -H43     :   1.107101      C13     -H44     :   1.111429
 C13     -H45     :   1.107815      C13     -H46     :   1.106806
 C14     -C15     :   1.374612      C14     -C37     :   1.510715
 C15     -C38     :   1.506217      C15     -C23     :   1.497774
 C37     -H47     :   1.109431      C37     -H48     :   1.113870
 C37     -H49     :   1.107423      C38     -C39     :   1.418287
 C38     -C22     :   1.403117      C39     -C40     :   1.399641
 C39     -H50     :   1.092889      C40     -C41     :   1.401166
 C40     -H72     :   1.099497      C41     -C42     :   1.395653
 C41     -H52     :   1.100172      C42     -C22     :   1.405937
 C42     -H53     :   1.099634      C22     -H54     :   1.085975
 C23     -C24     :   1.415785      C23     -C28     :   1.412045
 C24     -C25     :   1.401897      C24     -H55     :   1.100727
 C25     -C26     :   1.398666      C25     -H56     :   1.102771
 C26     -C27     :   1.400425      C26     -H57     :   1.096415
 C27     -C28     :   1.402999      C27     -H79     :   1.101147
 C28     -H80     :   1.099930
 
  bond angles:
 
 C7      -P1      -Pd2     : 100.170020  C10     -P1      -Pd2     : 124.943667
 C10     -P1      -C7      : 111.611499  C14     -P1      -Pd2     : 103.950948
 C14     -P1      -C7      : 115.584243  C14     -P1      -C10     : 101.164137
 N2      -Pd2     -P1      :  91.666321  C19     -Pd2     -P1      :  95.464236
 C19     -Pd2     -N2      : 172.205968  H30     -N2      -Pd2     : 105.283671
 C34     -N2      -Pd2     : 113.126976  C34     -N2      -H30     : 107.858799
 C21     -C16     -C17     : 118.060059  F10     -C16     -C17     : 121.293222
 F10     -C16     -C21     : 120.632407  C18     -C17     -C16     : 120.787512
 H23     -C17     -C16     : 119.342840  H23     -C17     -C18     : 119.869647
 C19     -C18     -C17     : 122.145208  H24     -C18     -C17     : 118.435366
 H24     -C18     -C19     : 119.419424  C18     -C19     -Pd2     : 120.821799
 C20     -C19     -Pd2     : 122.632107  C20     -C19     -C18     : 116.047487
 C21     -C20     -C19     : 122.100975  H25     -C20     -C19     : 119.901314
 H25     -C20     -C21     : 117.988989  C20     -C21     -C16     : 120.817222
 H26     -C21     -C16     : 119.243201  H26     -C21     -C20     : 119.939573
 C36     -C31     -C32     : 120.006627  H37     -C31     -C32     : 119.993159
 H37     -C31     -C36     : 120.000214  C33     -C32     -C31     : 119.996654
 H38     -C32     -C31     : 119.981633  H38     -C32     -C33     : 120.021712
 C34     -C33     -C32     : 120.027158  H39     -C33     -C32     : 120.068207
 H39     -C33     -C34     : 119.904632  C33     -C34     -N2      : 120.558036
 C35     -C34     -N2      : 119.537723  C35     -C34     -C33     : 119.904175
 C36     -C35     -C34     : 120.019480  H40     -C35     -C34     : 119.977421
 H40     -C35     -C36     : 120.002973  C35     -C36     -C31     : 120.045896
 H41     -C36     -C31     : 119.993796  H41     -C36     -C35     : 119.960308
 H29     -C6      -C7      : 114.692490  H51     -C6      -C7      : 113.085785
 H51     -C6      -H29     : 107.841552  H31     -C6      -C7      : 111.223467
 H31     -C6      -H29     : 104.479717  H31     -C6      -H51     : 104.705072
 C6      -C7      -P1      : 120.135207  C8      -C7      -P1      : 109.584572
 C8      -C7      -C6      : 104.419567  C9      -C7      -P1      : 109.080362
 C9      -C7      -C6      : 105.144941  C9      -C7      -C8      : 107.825108
 H32     -C8      -C7      : 110.744711  H33     -C8      -C7      : 111.590275
 H33     -C8      -H32     : 106.600670  H34     -C8      -C7      : 110.659688
 H34     -C8      -H32     : 110.033169  H34     -C8      -H33     : 107.071391
 H35     -C9      -C7      : 112.609035  H36     -C9      -C7      : 111.997383
 H36     -C9      -H35     : 106.868345  H58     -C9      -C7      : 111.659136
 H58     -C9      -H35     : 107.474729  H58     -C9      -H36     : 105.837111
 C11     -C10     -P1      : 111.645300  C12     -C10     -P1      : 113.745647
 C12     -C10     -C11     : 105.451302  C13     -C10     -P1      : 115.615262
 C13     -C10     -C11     : 104.752037  C13     -C10     -C12     : 104.683710
 H59     -C11     -C10     : 111.590247  H60     -C11     -C10     : 112.421167
 H60     -C11     -H59     : 109.124027  H61     -C11     -C10     : 111.300353
 H61     -C11     -H59     : 106.649399  H61     -C11     -H60     : 105.414346
 H62     -C12     -C10     : 113.994955  H42     -C12     -C10     : 112.619602
 H42     -C12     -H62     : 106.904188  H43     -C12     -C10     : 111.231531
 H43     -C12     -H62     : 105.395411  H43     -C12     -H42     : 106.120570
 H44     -C13     -C10     : 112.353960  H45     -C13     -C10     : 111.857974
 H45     -C13     -H44     : 104.469854  H46     -C13     -C10     : 112.899775
 H46     -C13     -H44     : 109.205273  H46     -C13     -H45     : 105.504312
 C15     -C14     -P1      : 130.923822  C37     -C14     -P1      : 109.873722
 C37     -C14     -C15     : 119.007666  C38     -C15     -C14     : 126.302080
 C23     -C15     -C14     : 119.079860  C23     -C15     -C38     : 114.616858
 H47     -C37     -C14     : 114.387821  H48     -C37     -C14     : 111.728643
 H48     -C37     -H47     : 111.027180  H49     -C37     -C14     : 110.900599
 H49     -C37     -H47     : 101.603300  H49     -C37     -H48     : 106.470092
 C39     -C38     -C15     : 122.971173  C22     -C38     -C15     : 123.714776
 C22     -C38     -C39     : 113.278377  C40     -C39     -C38     : 123.870602
 H50     -C39     -C38     : 121.894050  H50     -C39     -C40     : 114.196910
 C41     -C40     -C39     : 120.467497  H72     -C40     -C39     : 120.161359
 H72     -C40     -C41     : 119.363624  C42     -C41     -C40     : 117.778836
 H52     -C41     -C40     : 121.245652  H52     -C41     -C42     : 120.971737
 C22     -C42     -C41     : 120.198275  H53     -C42     -C41     : 119.944114
 H53     -C42     -C22     : 119.857598  C42     -C22     -C38     : 124.381397
 H54     -C22     -C38     : 120.623249  H54     -C22     -C42     : 114.965471
 C24     -C23     -C15     : 120.086826  C28     -C23     -C15     : 125.943635
 C28     -C23     -C24     : 113.964862  C25     -C24     -C23     : 123.682686
 H55     -C24     -C23     : 120.761195  H55     -C24     -C25     : 115.460295
 C26     -C25     -C24     : 120.083221  H56     -C25     -C24     : 120.155592
 H56     -C25     -C26     : 119.761125  C27     -C26     -C25     : 118.498799
 H57     -C26     -C25     : 120.926815  H57     -C26     -C27     : 120.571355
 C28     -C27     -C26     : 120.011608  H79     -C27     -C26     : 119.381628
 H79     -C27     -C28     : 120.606746  C27     -C28     -C23     : 123.756626
 H80     -C28     -C23     : 121.482598  H80     -C28     -C27     : 114.687158
 
  torsional angles:
 
 P1      -Pd2     -N2      -H30     : 117.560538
 P1      -Pd2     -N2      -C34     :-124.896986
 P1      -Pd2     -C19     -C18     : -71.019229
 P1      -Pd2     -C19     -C20     : 117.404261
 P1      -C7      -C6      -H29     :  60.887101
 P1      -C7      -C6      -H51     : -63.345795
 P1      -C7      -C6      -H31     : 179.167151
 P1      -C7      -C8      -H32     : -60.978808
 P1      -C7      -C8      -H33     :-179.562746
 P1      -C7      -C8      -H34     :  61.318037
 P1      -C7      -C9      -H35     : -59.440620
 P1      -C7      -C9      -H36     :-179.920914
 P1      -C7      -C9      -H58     :  61.581826
 P1      -C10     -C11     -H59     :  58.128012
 P1      -C10     -C11     -H60     : -64.857476
 P1      -C10     -C11     -H61     : 177.141633
 P1      -C10     -C12     -H62     :  59.318728
 P1      -C10     -C12     -H42     : -62.704652
 P1      -C10     -C12     -H43     : 178.310596
 P1      -C10     -C13     -H44     : -65.307178
 P1      -C10     -C13     -H45     : 177.559388
 P1      -C10     -C13     -H46     :  58.736299
 P1      -C14     -C15     -C38     :   8.758281
 P1      -C14     -C15     -C23     :-170.819979
 P1      -C14     -C37     -H47     :-150.787931
 P1      -C14     -C37     -H48     :  81.999443
 P1      -C14     -C37     -H49     : -36.613098
 Pd2     -P1      -C7      -C6      :-169.330693
 Pd2     -P1      -C7      -C8      :  69.862224
 Pd2     -P1      -C7      -C9      : -47.968483
 Pd2     -P1      -C10     -C11     :  28.445929
 Pd2     -P1      -C10     -C12     : -90.744899
 Pd2     -P1      -C10     -C13     : 148.054967
 Pd2     -P1      -C14     -C15     :  13.148147
 Pd2     -P1      -C14     -C37     :-172.092583
 Pd2     -N2      -C34     -C33     : -51.866563
 Pd2     -N2      -C34     -C35     : 128.227006
 Pd2     -C19     -C18     -C17     :-169.850937
 Pd2     -C19     -C18     -H24     :  10.134995
 Pd2     -C19     -C20     -C21     : 169.621697
 Pd2     -C19     -C20     -H25     :  -9.282026
 N2      -Pd2     -P1      -C7      : 140.823682
 N2      -Pd2     -P1      -C10     :  15.244014
 N2      -Pd2     -P1      -C14     : -99.399076
 N2      -Pd2     -C19     -C18     :  85.083564
 N2      -Pd2     -C19     -C20     : -86.492945
 N2      -C34     -C33     -C32     :-179.941928
 N2      -C34     -C33     -H39     :   0.036335
 N2      -C34     -C35     -C36     : 179.938486
 N2      -C34     -C35     -H40     :   0.067131
 C16     -C17     -C18     -C19     :  -1.034567
 C16     -C17     -C18     -H24     : 178.979367
 C16     -C21     -C20     -C19     :   1.181559
 C16     -C21     -C20     -H25     :-179.894663
 C17     -C16     -C21     -C20     :   0.169841
 C17     -C16     -C21     -H26     :-179.808166
 C17     -C18     -C19     -C20     :   2.256720
 C18     -C17     -C16     -C21     :  -0.242104
 C18     -C17     -C16     -F10     :-178.874137
 C18     -C19     -C20     -C21     :  -2.329231
 C18     -C19     -C20     -H25     : 178.767046
 C19     -Pd2     -P1      -C7      : -42.326847
 C19     -Pd2     -P1      -C10     :-167.906516
 C19     -Pd2     -P1      -C14     :  77.450395
 C19     -Pd2     -N2      -H30     : -38.646883
 C19     -Pd2     -N2      -C34     :  78.895593
 C19     -C18     -C17     -H23     : 178.978589
 C19     -C20     -C21     -H26     :-178.840587
 C20     -C19     -C18     -H24     :-177.757347
 C20     -C21     -C16     -F10     : 178.811309
 C21     -C16     -C17     -H23     : 179.744808
 F10     -C16     -C17     -H23     :   1.112776
 F10     -C16     -C21     -H26     :  -1.166698
 H23     -C17     -C18     -H24     :  -1.007477
 H25     -C20     -C21     -H26     :   0.083191
 H30     -N2      -C34     -C33     :  64.157692
 H30     -N2      -C34     -C35     :-115.748739
 C31     -C32     -C33     -C34     :   0.017625
 C31     -C32     -C33     -H39     :-179.960602
 C31     -C36     -C35     -C34     :  -0.008825
 C31     -C36     -C35     -H40     : 179.862497
 C32     -C31     -C36     -C35     :  -0.009439
 C32     -C31     -C36     -H41     : 179.993046
 C32     -C33     -C34     -C35     :  -0.035839
 C33     -C32     -C31     -C36     :   0.005031
 C33     -C32     -C31     -H37     :-179.997237
 C33     -C34     -C35     -C36     :   0.031435
 C33     -C34     -C35     -H40     :-179.839920
 C34     -C33     -C32     -H38     :-179.975725
 C34     -C35     -C36     -H41     : 179.988691
 C35     -C34     -C33     -H39     : 179.942424
 C35     -C36     -C31     -H37     : 179.992829
 C36     -C31     -C32     -H38     : 179.998384
 H37     -C31     -C32     -H38     :  -0.003884
 H37     -C31     -C36     -H41     :  -0.004686
 H38     -C32     -C33     -H39     :   0.046048
 H40     -C35     -C36     -H41     :  -0.139987
 C6      -C7      -P1      -C10     : -35.145458
 C6      -C7      -P1      -C14     :  79.725382
 C6      -C7      -C8      -H32     : 169.103924
 C6      -C7      -C8      -H33     :  50.519986
 C6      -C7      -C8      -H34     : -68.599231
 C6      -C7      -C9      -H35     :  70.647363
 C6      -C7      -C9      -H36     : -49.832931
 C6      -C7      -C9      -H58     :-168.330191
 C7      -P1      -C10     -C11     : -92.118385
 C7      -P1      -C10     -C12     : 148.690788
 C7      -P1      -C10     -C13     :  27.490654
 C7      -P1      -C14     -C15     : 121.850543
 C7      -P1      -C14     -C37     : -63.390187
 C8      -C7      -P1      -C10     :-155.952541
 C8      -C7      -P1      -C14     : -41.081702
 C8      -C7      -C6      -H29     :-175.783772
 C8      -C7      -C6      -H51     :  59.983332
 C8      -C7      -C6      -H31     : -57.503721
 C8      -C7      -C9      -H35     :-178.373951
 C8      -C7      -C9      -H36     :  61.145755
 C8      -C7      -C9      -H58     : -57.351505
 C9      -C7      -P1      -C10     :  86.216753
 C9      -C7      -P1      -C14     :-158.912408
 C9      -C7      -C6      -H29     : -62.390831
[...]
    C7       X    -0.00001   0.00002   0.00001  -0.00002  -0.00001   0.00001
    C7       Y     0.00002   0.00000  -0.00000   0.00001   0.00001   0.00001
    C7       Z     0.00002   0.00001  -0.00000   0.00003  -0.00001   0.00002
    C8       X    -0.00008   0.00004   0.00009   0.00010  -0.00000  -0.00001
    C8       Y    -0.00007   0.00002   0.00009   0.00011  -0.00001  -0.00002
    C8       Z     0.00030  -0.00009  -0.00013   0.00066  -0.00001   0.00001
    C9       X     0.00000  -0.00005  -0.00002  -0.00008   0.00001   0.00001
    C9       Y    -0.00003   0.00009   0.00006   0.00010  -0.00001   0.00001
    C9       Z     0.00004  -0.00006  -0.00010  -0.00014   0.00001  -0.00001
    C10      X     0.00002  -0.00001   0.00001   0.00002   0.00006  -0.00002
    C10      Y     0.00002   0.00003  -0.00001  -0.00000  -0.00020   0.00007
    C10      Z     0.00002   0.00002  -0.00002  -0.00002  -0.00003   0.00009
    C11      X    -0.00001   0.00005   0.00003  -0.00001  -0.00005  -0.00001
    C11      Y    -0.00002   0.00000   0.00001  -0.00000   0.00006   0.00003
    C11      Z     0.00002  -0.00006  -0.00002   0.00000   0.00004   0.00005
    C12      X     0.00002   0.00003  -0.00000  -0.00001  -0.00007  -0.00007
    C12      Y    -0.00001   0.00033   0.00006  -0.00008  -0.00002   0.00001
    C12      Z     0.00007   0.00068  -0.00031  -0.00020  -0.00048   0.00025
    C13      X     0.00039   0.00049   0.00012  -0.00002   0.00004  -0.00000
    C13      Y     0.00012   0.00015   0.00007   0.00002   0.00000  -0.00004
    C13      Z    -0.00013  -0.00021  -0.00005   0.00002  -0.00004  -0.00001
    C14      X     0.00001  -0.00001  -0.00005   0.00013  -0.00004   0.00001
    C14      Y     0.00016  -0.00001   0.00000  -0.00012  -0.00004   0.00001
    C14      Z     0.00004   0.00002   0.00018   0.00017   0.00015   0.00000
    C15      X     0.00006   0.00000   0.00025   0.00015  -0.00013  -0.00001
    C15      Y    -0.00004   0.00000  -0.00033   0.00018   0.00012  -0.00000
    C15      Z    -0.00004  -0.00001   0.00009  -0.00001  -0.00007   0.00003
    C37      X    -0.00008   0.00002  -0.00009  -0.00009   0.00001  -0.00000
    C37      Y    -0.00064  -0.00001  -0.00018  -0.00001  -0.00009  -0.00000
    C37      Z     0.00041  -0.00001   0.00000  -0.00007   0.00004   0.00000
    C38      X    -0.00001   0.00002  -0.00027   0.00037   0.00247   0.00013
    C38      Y     0.00005  -0.00001   0.00113  -0.00046  -0.00145  -0.00009
    C38      Z    -0.00000   0.00004  -0.00249   0.00077  -0.00049   0.00006
    C39      X    -0.00012  -0.00103   0.06049  -0.01932   0.00019  -0.00005
    C39      Y     0.00006   0.00078  -0.04500   0.01500  -0.00020  -0.00004
    C39      Z     0.00007  -0.00002  -0.00172   0.00025   0.00046   0.00004
    C40      X    -0.00033   0.00041   0.00674  -0.00122   0.00021   0.00008
    C40      Y     0.00046  -0.00054  -0.01127   0.00226  -0.00034  -0.00004
    C40      Z    -0.00082   0.00074   0.02353  -0.00513   0.00062  -0.00009
    C41      X     0.00050  -0.00073  -0.00555   0.00077   0.00012   0.00000
    C41      Y    -0.00011   0.00013   0.00169  -0.00033  -0.00035   0.00007
    C41      Z    -0.00079   0.00115   0.00706  -0.00076   0.00103  -0.00018
    C42      X     0.00040  -0.00067  -0.00303   0.00052  -0.00664  -0.00015
    C42      Y    -0.00028   0.00041   0.00207  -0.00035   0.00360   0.00033
    C42      Z     0.00004  -0.00014  -0.00053   0.00006   0.00254  -0.00007
    C22      X    -0.00004   0.00003  -0.00023   0.00012  -0.02724  -0.00012
    C22      Y     0.00004  -0.00003   0.00002  -0.00011   0.03449   0.00053
    C22      Z    -0.00003   0.00004   0.00040   0.00009  -0.06937   0.00018
    C23      X    -0.00038  -0.00000  -0.00008   0.00007   0.00002   0.00000
    C23      Y    -0.00139   0.00001   0.00002   0.00001   0.00002   0.00000
    C23      Z    -0.00015   0.00000  -0.00002   0.00002   0.00005  -0.00001
    C24      X     0.02484  -0.00026   0.00046  -0.00008  -0.00023  -0.00002
    C24      Y    -0.01717   0.00019  -0.00017   0.00002   0.00011   0.00001
    C24      Z    -0.00106   0.00001  -0.00002   0.00000   0.00001  -0.00000
    C25      X     0.03887  -0.00053   0.00016   0.00000   0.00003   0.00000
    C25      Y     0.01967  -0.00026   0.00006  -0.00000  -0.00001   0.00000
    C25      Z     0.00487  -0.00007   0.00002   0.00000  -0.00000   0.00000
    C26      X     0.00093  -0.00002  -0.00001   0.00001   0.00000  -0.00000
    C26      Y     0.05237  -0.00074   0.00014  -0.00001   0.00003   0.00000
    C26      Z     0.00585  -0.00008   0.00001  -0.00000   0.00000   0.00000
    C27      X    -0.03464   0.00053  -0.00030  -0.00023   0.00000  -0.00001
    C27      Y     0.01941  -0.00030   0.00024   0.00020  -0.00000   0.00000
    C27      Z    -0.00067   0.00001  -0.00002   0.00000  -0.00001   0.00000
    C28      X    -0.01584   0.00024  -0.00074  -0.00120  -0.00003  -0.00001
    C28      Y    -0.01034   0.00016  -0.00041  -0.00065  -0.00002  -0.00000
    C28      Z    -0.00248   0.00004  -0.00012  -0.00012  -0.00001  -0.00000
    H29      X     0.00007   0.00032   0.00020   0.00042  -0.00007   0.00005
    H29      Y    -0.00009  -0.00050  -0.00032  -0.00082   0.00024  -0.00007
    H29      Z     0.00004   0.00016   0.00012   0.00034  -0.00008   0.00004
    H51      X    -0.00022  -0.00001  -0.00013  -0.00016   0.00000   0.00003
    H51      Y    -0.00041  -0.00013  -0.00030  -0.00023  -0.00004   0.00003
    H51      Z    -0.00027  -0.00011  -0.00028  -0.00026  -0.00002   0.00005
    H31      X     0.00031  -0.00030  -0.00023   0.00022  -0.00015  -0.00006
    H31      Y     0.00005  -0.00004  -0.00001   0.00010   0.00000  -0.00002
    H31      Z    -0.00006   0.00011   0.00005  -0.00011  -0.00001   0.00005
    H32      X     0.00016  -0.00003   0.00044   0.00217  -0.00001   0.00004
    H32      Y     0.00095  -0.00028   0.00001   0.00358  -0.00003   0.00002
    H32      Z    -0.00339   0.00093   0.00164  -0.00658   0.00011  -0.00023
    H33      X     0.00093  -0.00055  -0.00108  -0.00117  -0.00005  -0.00004
    H33      Y     0.00029  -0.00013  -0.00038  -0.00066   0.00001   0.00002
    H33      Z    -0.00015   0.00010   0.00040   0.00104   0.00001   0.00002
    H34      X    -0.00016   0.00006  -0.00011  -0.00112   0.00003   0.00001
    H34      Y    -0.00036   0.00008  -0.00051  -0.00350   0.00010   0.00010
    H34      Z    -0.00015   0.00005  -0.00064  -0.00327   0.00007   0.00012
    H35      X    -0.00015   0.00069   0.00025   0.00065  -0.00004   0.00002
    H35      Y     0.00017  -0.00089  -0.00034  -0.00103   0.00010  -0.00001
    H35      Z    -0.00001   0.00015  -0.00002   0.00004   0.00002   0.00001
    H36      X     0.00032  -0.00029  -0.00019   0.00034  -0.00002  -0.00014
    H36      Y     0.00011  -0.00010  -0.00005   0.00014  -0.00000  -0.00004
    H36      Z    -0.00009   0.00012   0.00001  -0.00022   0.00000   0.00011
    H58      X    -0.00006   0.00010   0.00012   0.00009  -0.00003   0.00008
    H58      Y     0.00011  -0.00005  -0.00038  -0.00055   0.00003   0.00002
    H58      Z    -0.00048   0.00051   0.00126   0.00190  -0.00012  -0.00001
    H59      X     0.00016  -0.00071  -0.00037   0.00014  -0.00064   0.00019
    H59      Y     0.00002  -0.00018  -0.00011   0.00004  -0.00054  -0.00002
    H59      Z    -0.00006   0.00031   0.00016  -0.00008   0.00020  -0.00029
    H60      X     0.00001   0.00009   0.00000  -0.00001   0.00004  -0.00036
    H60      Y    -0.00005   0.00018   0.00002  -0.00003  -0.00006  -0.00020
    H60      Z    -0.00011   0.00052   0.00013   0.00005  -0.00022  -0.00009
    H61      X    -0.00022   0.00001  -0.00000  -0.00002   0.00015   0.00009
    H61      Y     0.00024  -0.00006  -0.00003   0.00003   0.00009  -0.00009
    H61      Z    -0.00015  -0.00004  -0.00001  -0.00002   0.00001   0.00004
    H62      X     0.00006   0.00054  -0.00023  -0.00012   0.00098   0.00007
    H62      Y    -0.00021  -0.00191   0.00107   0.00063   0.00120  -0.00062
    H62      Z    -0.00071  -0.00784   0.00362   0.00239  -0.00098  -0.00613
    H42      X     0.00003  -0.00076  -0.00040   0.00012   0.00535   0.00008
    H42      Y    -0.00003  -0.00242  -0.00114   0.00044   0.01505   0.00021
    H42      Z     0.00004  -0.00026  -0.00027   0.00002  -0.00665   0.00007
    H43      X    -0.00033  -0.00032   0.00064   0.00015  -0.00132   0.00013
    H43      Y     0.00032   0.00038  -0.00072  -0.00015   0.00000   0.00011
    H43      Z    -0.00026  -0.00013   0.00060   0.00007  -0.00133   0.00050
    H44      X    -0.00380  -0.00529  -0.00133   0.00024  -0.00077  -0.00006
    H44      Y    -0.00049  -0.00064  -0.00016   0.00004  -0.00007   0.00003
    H44      Z     0.00202   0.00279   0.00072  -0.00015   0.00057   0.00008
    H45      X    -0.00047  -0.00013   0.00002   0.00002  -0.00013   0.00018
    H45      Y     0.00051   0.00027   0.00001  -0.00003   0.00011  -0.00008
    H45      Z    -0.00038  -0.00011  -0.00004  -0.00002  -0.00020   0.00023
    H46      X    -0.00038  -0.00047  -0.00023  -0.00008   0.00006   0.00002
    H46      Y    -0.00149  -0.00166  -0.00071  -0.00023   0.00005   0.00005
    H46      Z    -0.00016  -0.00027  -0.00012  -0.00003   0.00007  -0.00005
    H47      X     0.00075   0.00004   0.00100   0.00059   0.00001   0.00006
    H47      Y     0.00012   0.00005   0.00049   0.00028   0.00000   0.00006
    H47      Z     0.00047   0.00007   0.00049  -0.00003   0.00009   0.00003
    H48      X    -0.00196  -0.00023  -0.00071   0.00027  -0.00033  -0.00000
    H48      Y     0.00168   0.00022   0.00052  -0.00023   0.00030  -0.00000
    H48      Z    -0.00045   0.00000   0.00004  -0.00015  -0.00010  -0.00001
    H49      X     0.00245  -0.00001   0.00031  -0.00003   0.00025   0.00005
    H49      Y     0.00579  -0.00005   0.00092  -0.00014   0.00058   0.00008
    H49      Z    -0.00507   0.00004  -0.00057  -0.00001  -0.00042  -0.00016
    H50      X     0.00088   0.01204  -0.68683   0.22889   0.00014   0.00026
    H50      Y    -0.00074  -0.00892   0.50994  -0.16714  -0.00001  -0.00026
    H50      Z    -0.00015  -0.00003   0.00772  -0.00466  -0.00041   0.00001
    H72      X     0.00352  -0.00355  -0.08743   0.01787  -0.00225   0.00023
    H72      Y    -0.00504   0.00515   0.12869  -0.02630   0.00311  -0.00025
    H72      Z     0.00922  -0.00907  -0.23849   0.04973  -0.00580   0.00039
    H52      X    -0.00547   0.00758   0.05006  -0.00556   0.00181  -0.00060
    H52      Y     0.00116  -0.00160  -0.01125   0.00137  -0.00012  -0.00002
    H52      Z     0.00886  -0.01234  -0.07881   0.00848  -0.00415   0.00096
    H53      X    -0.00450   0.00709   0.03252  -0.00511   0.05829   0.00506
    H53      Y     0.00291  -0.00452  -0.02083   0.00329  -0.03659  -0.00061
    H53      Z    -0.00007   0.00020   0.00095  -0.00011  -0.00283  -0.00008
    H54      X     0.00033  -0.00033  -0.00174  -0.00047   0.30877   0.00011
    H54      Y    -0.00045   0.00036   0.00287   0.00060  -0.40688  -0.00056
    H54      Z     0.00082  -0.00064  -0.00565  -0.00092   0.80313   0.00096
    H55      X    -0.28234   0.00292  -0.00439   0.00083   0.00207   0.00014
    H55      Y     0.17463  -0.00185   0.00247  -0.00047  -0.00087  -0.00006
    H55      Z     0.00998  -0.00012   0.00009  -0.00004  -0.00002   0.00004
    H56      X    -0.41885   0.00568  -0.00158  -0.00003  -0.00006   0.00000
    H56      Y    -0.22233   0.00301  -0.00089  -0.00003   0.00002   0.00001
    H56      Z    -0.05310   0.00072  -0.00020  -0.00001  -0.00000   0.00001
    H57      X    -0.01223   0.00018  -0.00005  -0.00000   0.00003   0.00000
    H57      Y    -0.57434   0.00812  -0.00130   0.00019  -0.00034  -0.00002
    H57      Z    -0.06402   0.00090  -0.00014   0.00002  -0.00003  -0.00000
    H79      X     0.37081  -0.00564   0.00343   0.00270   0.00005   0.00003
    H79      Y    -0.22303   0.00340  -0.00214  -0.00177  -0.00003  -0.00003
    H79      Z     0.00587  -0.00009   0.00010   0.00001   0.00001   0.00001
    H80      X     0.17795  -0.00261   0.00829   0.01383   0.00045   0.00007
    H80      Y     0.09941  -0.00148   0.00495   0.00855   0.00022   0.00002
    H80      Z     0.02611  -0.00038   0.00143   0.00278   0.00009   0.00000
  
  Number of imaginary frequencies:   0
   
  Writing vibrational animation data to red_elim_L_trans_L1_PL747_2.vib
  Writing IR vibrational spectrum data to red_elim_L_trans_L1_PL747_2_vib.spm
  rotational symmetry number:  1

  rotational temperatures (K):      0.005142      0.003883      0.003582
   
  The Quasi-Harmonic approximation will be applied to compute
  vibrational constributions to thermodynamic properties.
  Frequencies will be adjusted to a minimum value of  100.00 cm^-1.

  vibrational temperatures:
       mode:      1        2        3        4        5        6
  temp. (K):   143.88   143.88   143.88   143.88   143.88   143.88
   
       mode:      7        8        9       10       11       12
  temp. (K):   143.88   143.88   143.88   143.88   143.88   143.88
   
       mode:     13       14       15       16       17       18
  temp. (K):   143.88   151.53   173.70   183.50   188.05   202.08
   
       mode:     19       20       21       22       23       24
  temp. (K):   209.04   222.61   239.28   254.62   271.17   290.05
   
       mode:     25       26       27       28       29       30
  temp. (K):   298.58   315.68   319.26   326.22   336.99   358.83
   
       mode:     31       32       33       34       35       36
  temp. (K):   362.97   371.80   379.15   394.93   405.61   409.64
   
       mode:     37       38       39       40       41       42
  temp. (K):   421.19   431.83   452.84   456.76   475.49   498.34
   
       mode:     43       44       45       46       47       48
  temp. (K):   534.02   536.44   553.88   560.99   574.63   589.42
   
       mode:     49       50       51       52       53       54
  temp. (K):   591.96   601.17   603.09   612.83   614.38   626.20
   
       mode:     55       56       57       58       59       60
  temp. (K):   633.08   639.63   678.98   685.33   718.50   744.85
   
       mode:     61       62       63       64       65       66
  temp. (K):   764.09   769.09   788.32   805.09   825.40   838.36
   
       mode:     67       68       69       70       71       72
  temp. (K):   866.17   890.65   899.86   902.65   909.14   920.61
   
       mode:     73       74       75       76       77       78
  temp. (K):   960.25  1010.12  1024.55  1026.74  1038.11  1048.45
   
       mode:     79       80       81       82       83       84
  temp. (K):  1102.55  1116.80  1127.24  1168.60  1185.26  1196.30
   
       mode:     85       86       87       88       89       90
  temp. (K):  1196.98  1198.84  1199.94  1206.29  1210.17  1248.35
   
       mode:     91       92       93       94       95       96
  temp. (K):  1258.11  1259.30  1296.53  1327.48  1358.36  1370.13
   
       mode:     97       98       99      100      101      102
  temp. (K):  1372.84  1379.25  1381.06  1383.15  1390.52  1396.36
   
       mode:    103      104      105      106      107      108
  temp. (K):  1402.45  1413.45  1425.65  1427.44  1436.04  1437.24
   
       mode:    109      110      111      112      113      114
  temp. (K):  1441.50  1463.06  1464.96  1466.96  1471.29  1481.99
   
       mode:    115      116      117      118      119      120
  temp. (K):  1485.59  1494.37  1498.73  1506.09  1517.61  1522.28
   
       mode:    121      122      123      124      125      126
  temp. (K):  1526.18  1532.98  1535.13  1549.86  1585.38  1609.05
   
       mode:    127      128      129      130      131      132
  temp. (K):  1615.54  1618.02  1646.39  1722.46  1728.19  1732.00
   
       mode:    133      134      135      136      137      138
  temp. (K):  1732.96  1735.75  1738.08  1738.62  1745.20  1747.60
   
       mode:    139      140      141      142      143      144
  temp. (K):  1757.36  1768.57  1771.11  1777.42  1794.02  1805.55
   
       mode:    145      146      147      148      149      150
  temp. (K):  1841.05  1867.56  1908.13  1918.26  1926.65  1934.40
   
       mode:    151      152      153      154      155      156
  temp. (K):  1942.42  1972.52  1978.78  1983.47  2023.16  2038.75
   
       mode:    157      158      159      160      161      162
  temp. (K):  2050.19  2051.02  2053.07  2056.24  2065.57  2092.62
   
       mode:    163      164      165      166      167      168
  temp. (K):  2106.79  2138.72  2145.05  2146.81  2159.49  2162.80
   
       mode:    169      170      171      172      173      174
  temp. (K):  2170.05  2176.50  2176.56  2184.44  2189.66  2195.08
   
       mode:    175      176      177      178      179      180
  temp. (K):  2201.42  2202.38  2208.11  2210.20  2214.78  2217.51
   
       mode:    181      182      183      184      185      186
  temp. (K):  2221.26  2223.32  2237.26  2247.53  2296.77  2344.47
   
       mode:    187      188      189      190      191      192
  temp. (K):  2357.70  2359.84  2366.53  2372.21  2396.21  2397.48
   
       mode:    193      194      195      196      197      198
  temp. (K):  2402.19  4377.42  4380.10  4383.32  4386.08  4391.12
   
       mode:    199      200      201      202      203      204
  temp. (K):  4394.28  4408.61  4473.91  4486.38  4494.38  4495.98
   
       mode:    205      206      207      208      209      210
  temp. (K):  4501.65  4511.86  4517.87  4536.96  4556.29  4572.64
   
       mode:    211      212      213      214      215      216
  temp. (K):  4576.72  4578.47  4580.08  4587.45  4587.53  4591.61
   
       mode:    217      218      219      220      221      222
  temp. (K):  4596.66  4598.50  4600.73  4601.07  4601.21  4606.38
   
       mode:    223      224      225      226      227      228
  temp. (K):  4608.60  4610.30  4611.18  4615.59  4618.08  4621.92
   
       mode:    229      230      231      232      233      234
  temp. (K):  4623.05  4626.02  4643.73  4660.46  4738.10  4968.81
   
   
  Thermodynamic properties calculated assuming an ideal gas

  In the table below, the units for temperature
  are kelvins, the units for U, H, and G are
  kcal/mol and the units for Cv and S are cal/(mol K)

  The zero point energy (ZPE):    425.176 kcal/mol
  is not included in U, H, or G in the table below
  
 
  =============================================================================
  Thermodynamic properties for P = 1.00E+00 atm, calculated at   1 temperatures


  T =   298.15 K, P = 1.00E+00 atm
   
                  U         Cv          S          H          G        ln(Q)
              =========  =========  =========  =========  =========  =========
  trans.          0.889      2.981     45.210      1.481    -11.998   20.25056
  rot.            0.889      2.981     37.450      0.889    -10.277   17.34533
  vib.           22.277    148.936    133.999     22.277    -17.675   29.83137
  elec.           0.000      0.000      0.000      0.000      0.000    0.00000
  ----------------------------------------------------------------------------
  total          24.055    154.897    216.658     24.647    -39.950   67.42726
   
   Total internal energy, Utot(SCFE + ZPE + U):   -1979.926594 hartrees
   Total enthalpy, Htot (Utot + nRT), with n=1:   -1979.925650 hartrees
    Total Gibbs free energy, Gtot (Htot - T*S):   -1980.028591 hartrees
   
  end of program freq
   
 Time(freq)  user:       0.383  user+sys:       0.383  wallclock:       0.592
  
  start of program post
  
  Writing input files for PBF
  end of program post
   
 Time(post)  user:       0.170  user+sys:       0.170  wallclock:       0.102

 Total cpu seconds     user:   94265.083   user+sys:   94265.083
  
 Total elapsed time:    53938 seconds

Job red_elim_L_trans_L1_PL747_2 completed on bp1-compute081.data.bp.acrc.priv at Fri Apr 25 21:40:15 2025
