Job red_elim_Ar_trans_L1_PL747_2 started on bp1-compute081.data.bp.acrc.priv at Thu Apr 24 14:25:51 2025
jobid: bp1-compute081-0-680a3bda

  +--------------------------------------------------------------------+
  |  Jaguar version 12.5, release 138                                  |
  |                                                                    |
  |  Copyright Schrodinger, Inc.                                       |
  |  All Rights Reserved.                                              |
  |                                                                    |
  |  The following have contributed to Jaguar (listed alphabetically): |
  |  Ty Balduf, Mike Beachy, Chandler Bennett, Art Bochevarov,         |
  |  Dale Braden, Yixiang Cao, Alan Chien, Chris Cortis,               |
  |  Rich Friesner, Jim Furness, Bill Goddard, Hod Greeley,            |
  |  Tom Hughes, Leif Jacobson, Jean-Marc Langlois, Daniel Levine,     |
  |  Rob Murphy, Dean Philipp, Tom Pollard, Murco Ringnalda,           |
  |  Daniel Mainz, Pablo Videla, Mark Watson, Haoyu Yu.                |
  |                                                                    |
  |  Use of this program should be acknowledged in publications as:    |
  |                                                                    |
  |  Jaguar, version 12.5, Schrodinger, Inc., New York, NY, 2024.      |
  |                                                                    |
  |  A. D. Bochevarov, E. Harder, T. F. Hughes, J. R. Greenwood,       |
  |  D. A. Braden, D. M. Philipp, D. Rinaldo, M. D. Halls,             |
  |  J. Zhang, R. A. Friesner, "Jaguar: A High-Performance Quantum     |
  |  Chemistry Software Program with Strengths in Life and Materials   |
  |  Sciences", Int. J. Quantum Chem., 2013, 113(18), 2110-2142.       |
  +--------------------------------------------------------------------+
  
  start of program pre
  
  Job name: red_elim_Ar_trans_L1_PL747_2
  Executables used: /software/local/apps/schrodinger2024-3/jaguar-v12.5/bin/Linux-x86_64
  Temporary files : /tmp/ar21627/red_elim_Ar_trans_L1_PL747_2#bp1-compute081-0-680a3bda
  Basis file : using default basis file from /software/local/apps/schrodinger2024-3
  Maestro file (input):  red_elim_Ar_trans_L1_PL747_2.mae
  Maestro file (output): red_elim_Ar_trans_L1_PL747_2.01.mae
  
 Contents of input file: &gen and (if present) &atomic sections only
 ----------------Contents start----------------
&gen
dftname=b3pw91-d3
basis=6-31G*
numd=5
ip11=2
iaccg=3
isolv=2
igeopt=1
solvent=benzene
ifreq=1
&
&atomic
atom basis
Pd2 lacv3p*
&
 -----------------Contents end-----------------
 
  PS calculation requested. Using PS version of 6-31g*
  basis set:               non_standard                    
  net molecular charge:    0
  multiplicity:            1
  
  Using up to   4 threads per process
  
  This run will use ECP on 1 atom
  number of basis functions....          649
  
 Input geometry:
                                   angstroms
  atom               x                 y                 z
  P1            0.0000000000      0.0000000000      0.0000000000 
  Pd2           0.0000000000      0.0000000000      2.3082054643 
  N2           -0.0605837121     -0.1682777339      4.2821546393 
  C17           1.3230789913      4.6415399980      2.4728587299 
  C18           2.2771790799      3.6197803300      2.4268368548 
  C19           1.9010663224      2.2750388421      2.3585086104 
  C20           0.5492804949      1.9170076875      2.3361678490 
  C21          -0.4137897368      2.9321033410      2.3892643642 
  C22          -0.0276546820      4.2721582704      2.4562393944 
  F10           1.6797898419      5.9251621630      2.5171363382 
  H24           3.3368105801      3.8750501862      2.4507953686 
  H25           2.6726586676      1.5085170392      2.3388949646 
  H26          -1.4727048998      2.6831659410      2.3924677039 
  H27          -0.7944330127      5.0459917035      2.5037733082 
  H15          -1.0441972084     -0.1301606881      4.7731246798 
  C16           2.7996372962      1.9782856998      6.6094358907 
  C23           1.4632132595      2.4084835853      6.5675452784 
  C24           0.5216967536      1.7018861345      5.8014597990 
  C25           0.9166042791      0.5650907835      5.0772649521 
  C26           2.2529612785      0.1348425842      5.1191010253 
  C27           3.1945448217      0.8414903488      5.8852410438 
  H22           3.5393092923      2.5334011454      7.2112861547 
  H23           1.1530783242      3.3016238607      7.1365543911 
  H28          -0.5281772177      2.0398606431      5.7685641186 
  H29           2.5630920903     -0.7581829569      4.5501744900 
  H30           4.2444187888      0.5035158286      5.9181367401 
  C6            2.4859719890      0.0000000000     -1.6223129383 
  C7            1.8417756257      0.2769820460     -0.2399989394 
  C8            2.6663087097     -0.6082138621      0.7365118888 
  C9            2.2012755100      1.7300295336      0.1185451052 
  C10          -1.0442422168      1.0525620250     -1.2245682407 
  C11          -1.4860189141      2.4068635562     -0.6186336630 
  C12          -2.3367912708      0.3331721453     -1.7052096288 
  C13          -0.3250889897      1.4259492335     -2.5340722034 
  C14          -0.6347117209     -1.6922415293     -0.3828062666 
  C15          -1.0859561188     -2.6514512361      0.4809507778 
  C37          -0.6987262438     -1.8906475596     -1.8776180234 
  C38          -1.2797498998     -2.4437766160      1.9595461324 
  C39          -0.3401922390     -2.9284296206      2.9056924568 
  C40          -0.4475084415     -2.7471486173      4.2914761450 
  C41          -1.5246769289     -2.0330027232      4.8336944513 
  C42          -2.4665067965     -1.5095811039      3.9458733495 
  C43          -2.3225524584     -1.7168878944      2.5606423062 
  C44          -1.3954193408     -4.0218363801     -0.0430464276 
  C45          -2.3995836861     -4.8247087613      0.5553237815 
  C46          -2.7494819324     -6.1085399936      0.1011150362 
  C47          -2.0873128403     -6.6697419828     -0.9986505846 
  C48          -1.0854968349     -5.9149875407     -1.6252369103 
  C28          -0.7685282941     -4.6319542019     -1.1507304346 
  H50           2.0813719627      0.6072601128     -2.4483495804 
  H51           2.4311175010     -1.0725477374     -1.9263398058 
  H31           3.5745669595      0.2314293317     -1.6211068800 
  H32           2.4573412261     -0.3720653966      1.7972151899 
  H33           3.7578638055     -0.4604751279      0.6100969397 
  H34           2.4638157099     -1.6856423925      0.5552817953 
  H35           1.6519446043      2.4722168973     -0.4992230335 
  H36           3.2811668996      1.9419156510     -0.0149459428 
  H37           1.9871346933      1.9556400374      1.1879195070 
  H38          -0.6157427779      3.0122505336     -0.2973626647 
  H39          -2.1831377681      2.2877233763      0.2375526023 
  H40          -2.0479247989      3.0245050227     -1.3585909559 
  H41          -3.0368992754      0.0578162296     -0.8875143619 
  H42          -2.1139318149     -0.5972890217     -2.2671034618 
  H43          -2.9294144919      0.9726865205     -2.3898585036 
  H44           0.5506695379      2.0950297279     -2.3609297955 
  H45          -0.9761293915      2.0030120040     -3.2222182302 
  H46          -0.0026444036      0.5379374497     -3.1141278566 
  H47          -1.4839878907     -2.6013748089     -2.2150212288 
  H48           0.2981432967     -2.1618164098     -2.2998200766 
  H49          -1.0227819529     -0.9565859050     -2.3876148105 
  H71           0.5794151923     -3.4387239123      2.5989630840 
  H72           0.3259555611     -3.1470939257      4.9661035881 
  H52          -1.6203888680     -1.8807586745      5.9211524847 
  H53          -3.3231611429     -0.9331668043      4.3292189976 
  H54          -3.1122190534     -1.2718774806      1.9628953696 
  H55          -3.0107226202     -4.4429955073      1.3898329096 
  H56          -3.5455741619     -6.6817016711      0.6102160611 
  H57          -2.3406919771     -7.6760131534     -1.3571437425 
  H58          -0.5507981412     -6.3424840032     -2.4905369054 
  H59           0.0619446258     -4.1443349480     -1.6874260583 
   
  principal moments of inertia:
        amu*angstrom^2:              3677.63315              7182.05246              9085.39699
                g*cm^2:          6.10685275E-37          1.19260772E-36          1.50866548E-36
   
  rotational constants:
               cm^(-1):      0.00458383      0.00234719      0.00185546
                   GHz:      0.13741964      0.07036693      0.05562542
   
  Molecular weight:     631.20 amu
   
  Stoichiometry: PdC35PNH41F
  Molecular Point Group: C1      
  Point Group used: C1
  
 
Number of optimization coordinates:   279
Number of independent coordinates:    279
Number of non-redundant coordinates:  234
Number of frozen coordinates:           0
Number of harmonic constraints:         0
 
Number of geometric degrees of freedom:   234
Maximum geometric degrees of freedom:     234
 " " " " " excluding dummy atoms:         234
 
 
  bond lengths (angstroms):
 
 P1      -Pd2     :   2.308205      P1      -C7      :   1.877886
 P1      -C10     :   1.922991      P1      -C14     :   1.847453
 Pd2     -N2      :   1.982035      Pd2     -C20     :   1.994344
 N2      -H15     :   1.100000      N2      -C25     :   1.457713
 C17     -C18     :   1.398720      C17     -C22     :   1.400429
 C17     -F10     :   1.333000      C18     -C19     :   1.398020
 C18     -H24     :   1.090209      C19     -C20     :   1.398574
 C19     -H25     :   1.087794      C19     -H37     :   1.216430
 C20     -C21     :   1.400265      C21     -C22     :   1.396185
 C21     -H26     :   1.087787      C22     -H27     :   1.090425
 C16     -C23     :   1.404583      C16     -C27     :   1.404533
 C16     -H22     :   1.103400      C23     -C24     :   1.404500
 C23     -H23     :   1.103474      C24     -C25     :   1.404533
 C24     -H28     :   1.103424      C25     -C26     :   1.404533
 C26     -C27     :   1.404600      C26     -H29     :   1.103337
 C27     -H30     :   1.103424      C6      -C7      :   1.550000
 C6      -H50     :   1.102181      C6      -H51     :   1.116154
 C6      -H31     :   1.112924      C7      -C8      :   1.554670
 C7      -C9      :   1.539201      C8      -H32     :   1.106583
 C8      -H33     :   1.108738      C8      -H34     :   1.111171
 C9      -H35     :   1.110965      C9      -H36     :   1.108549
 C9      -H37     :   1.113696      C10     -C11     :   1.548049
 C10     -C12     :   1.555385      C10     -C13     :   1.539935
 C11     -H38     :   1.107740      C11     -H39     :   1.110506
 C11     -H40     :   1.115686      C12     -H41     :   1.111124
 C12     -H42     :   1.109572      C12     -H43     :   1.108569
 C13     -H44     :   1.115616      C13     -H45     :   1.109234
 C13     -H46     :   1.108603      C14     -C15     :   1.367399
 C14     -C37     :   1.509280      C15     -C38     :   1.505632
 C15     -C44     :   1.499432      C37     -H47     :   1.111580
 C37     -H48     :   1.116036      C37     -H49     :   1.112466
 C38     -C39     :   1.418749      C38     -C43     :   1.406101
 C39     -C40     :   1.401705      C39     -H71     :   1.095519
 C40     -C41     :   1.401534      C40     -H72     :   1.101510
 C41     -C42     :   1.396152      C41     -H52     :   1.102227
 C42     -C43     :   1.408036      C42     -H53     :   1.101392
 C43     -H54     :   1.085776      C44     -C45     :   1.418096
 C44     -C28     :   1.411453      C45     -C46     :   1.406043
 C45     -H55     :   1.102543      C46     -C47     :   1.401035
 C46     -H56     :   1.105197      C47     -C48     :   1.402106
 C47     -H57     :   1.097862      C48     -C28     :   1.404208
 C48     -H58     :   1.103359      C28     -H59     :   1.102497
 
  bond angles:
 
 C7      -P1      -Pd2     :  97.342638  C10     -P1      -Pd2     : 129.553898
 C10     -P1      -C7      : 111.744572  C14     -P1      -Pd2     : 101.958762
 C14     -P1      -C7      : 116.460285  C14     -P1      -C10     : 100.536212
 N2      -Pd2     -P1      : 174.822805  C20     -Pd2     -P1      :  90.803361
 C20     -Pd2     -N2      :  94.362366  H15     -N2      -Pd2     : 117.963296
 C25     -N2      -Pd2     : 118.686804  C25     -N2      -H15     : 109.788049
 C22     -C17     -C18     : 117.700487  F10     -C17     -C18     : 121.466051
 F10     -C17     -C22     : 120.829905  C19     -C18     -C17     : 121.382694
 H24     -C18     -C17     : 119.421122  H24     -C18     -C19     : 119.195116
 C20     -C19     -C18     : 120.467804  H25     -C19     -C18     : 119.199658
 H25     -C19     -C20     : 120.325406  H37     -C19     -C18     : 106.293744
 H37     -C19     -C20     :  89.186286  H37     -C19     -H25     :  75.370874
 C19     -C20     -Pd2     : 120.830445  C21     -C20     -Pd2     : 120.525671
 C21     -C20     -C19     : 118.592816  C22     -C21     -C20     : 120.490217
 H26     -C21     -C20     : 120.247412  H26     -C21     -C22     : 119.257121
 C21     -C22     -C17     : 121.364383  H27     -C22     -C17     : 119.376002
 H27     -C22     -C21     : 119.258140  C27     -C16     -C23     : 120.002746
 H22     -C16     -C23     : 120.000393  H22     -C16     -C27     : 119.996860
 C24     -C23     -C16     : 120.000393  H23     -C23     -C16     : 119.995826
 H23     -C23     -C24     : 120.003781  C25     -C24     -C23     : 119.996860
 H28     -C24     -C23     : 119.999284  H28     -C24     -C25     : 120.003855
 C24     -C25     -N2      : 119.996860  C26     -C25     -N2      : 119.996860
 C26     -C25     -C24     : 120.006279  C27     -C26     -C25     : 119.996860
 H29     -C26     -C25     : 120.001259  H29     -C26     -C27     : 120.001881
 C26     -C27     -C16     : 119.996860  H30     -C27     -C16     : 120.003855
 H30     -C27     -C26     : 119.999284  H50     -C6      -C7      : 114.667671
 H51     -C6      -C7      : 113.216762  H51     -C6      -H50     : 107.893773
 H31     -C6      -C7      : 111.616907  H31     -C6      -H50     : 104.199965
 H31     -C6      -H51     : 104.370416  C6      -C7      -P1      : 119.685427
 C8      -C7      -P1      : 110.848869  C8      -C7      -C6      : 103.768090
 C9      -C7      -P1      : 109.788049  C9      -C7      -C6      : 106.222348
 C9      -C7      -C8      : 105.505012  H32     -C8      -C7      : 112.359211
 H33     -C8      -C7      : 112.002951  H33     -C8      -H32     : 105.472016
 H34     -C8      -C7      : 110.670603  H34     -C8      -H32     : 109.198763
 H34     -C8      -H33     : 106.858970  H35     -C9      -C7      : 112.683762
 H36     -C9      -C7      : 112.328328  H36     -C9      -H35     : 106.680106
 H37     -C9      -C7      : 111.715700  H37     -C9      -H35     : 107.669515
 H37     -C9      -H36     : 105.320351  C11     -C10     -P1      : 112.616616
 C12     -C10     -P1      : 113.259062  C12     -C10     -C11     : 106.764108
 C13     -C10     -P1      : 114.874709  C13     -C10     -C11     : 104.714106
 C13     -C10     -C12     : 103.736378  H38     -C11     -C10     : 111.557046
 H39     -C11     -C10     : 112.772054  H39     -C11     -H38     : 109.159948
 H40     -C11     -C10     : 111.619353  H40     -C11     -H38     : 106.587826
 H40     -C11     -H39     : 104.748381  H41     -C12     -C10     : 114.256512
 H42     -C12     -C10     : 112.174739  H42     -C12     -H41     : 106.942602
 H43     -C12     -C10     : 111.609504  H43     -C12     -H41     : 105.107199
 H43     -C12     -H42     : 106.163418  H44     -C13     -C10     : 112.336163
 H45     -C13     -C10     : 112.308433  H45     -C13     -H44     : 104.182669
 H46     -C13     -C10     : 112.739674  H46     -C13     -H44     : 109.468348
 H46     -C13     -H45     : 105.237954  C15     -C14     -P1      : 128.684936
 C37     -C14     -P1      : 109.889446  C37     -C14     -C15     : 121.292777
 C38     -C15     -C14     : 124.475500  C44     -C15     -C14     : 119.240168
 C44     -C15     -C38     : 116.275301  H47     -C37     -C14     : 114.496636
 H48     -C37     -C14     : 111.637587  H48     -C37     -H47     : 111.150763
 H49     -C37     -C14     : 110.856140  H49     -C37     -H47     : 101.064513
 H49     -C37     -H48     : 106.904158  C39     -C38     -C15     : 121.503772
 C43     -C38     -C15     : 125.914389  C43     -C38     -C39     : 112.497504
 C40     -C39     -C38     : 124.362798  H71     -C39     -C38     : 121.891101
 H71     -C39     -C40     : 113.660382  C41     -C40     -C39     : 120.478961
 H72     -C40     -C39     : 120.316905  H72     -C40     -C41     : 119.192149
 C42     -C41     -C40     : 117.611883  H52     -C41     -C40     : 121.252466
 H52     -C41     -C42     : 121.132845  C43     -C42     -C41     : 120.095366
 H53     -C42     -C41     : 119.971301  H53     -C42     -C43     : 119.933325
 C42     -C43     -C38     : 124.924857  H54     -C43     -C38     : 121.057891
 H54     -C43     -C42     : 114.010856  C45     -C44     -C15     : 121.072537
 C28     -C44     -C15     : 125.285237  C28     -C44     -C45     : 113.635329
 C46     -C45     -C44     : 123.838833  H55     -C45     -C44     : 121.055335
 H55     -C45     -C46     : 115.004393  C47     -C46     -C45     : 120.112978
 H56     -C46     -C45     : 120.263401  H56     -C46     -C47     : 119.623423
 C48     -C47     -C46     : 118.220572  H57     -C47     -C46     : 120.956461
 H57     -C47     -C48     : 120.821812  C28     -C48     -C47     : 120.140430
 H58     -C48     -C47     : 119.219895  H58     -C48     -C28     : 120.639506
 C48     -C28     -C44     : 124.048634  H59     -C28     -C44     : 121.695734
 H59     -C28     -C48     : 114.183109  C9      -H37     -C19     : 172.228029
 
  torsional angles:
 
 P1      -Pd2     -N2      -H15     : -74.978888
 P1      -Pd2     -N2      -C25     : 148.351031
 P1      -Pd2     -C20     -C19     : -90.586464
 P1      -Pd2     -C20     -C21     :  92.049113
 P1      -C7      -C6      -H50     :  60.423601
 P1      -C7      -C6      -H51     : -63.971781
 P1      -C7      -C6      -H31     : 178.610880
 P1      -C7      -C8      -H32     : -61.557565
 P1      -C7      -C8      -H33     : 179.931233
 P1      -C7      -C8      -H34     :  60.802319
 P1      -C7      -C9      -H35     : -59.094664
 P1      -C7      -C9      -H36     :-179.623589
 P1      -C7      -C9      -H37     :  62.275757
 P1      -C10     -C11     -H38     :  58.116114
 P1      -C10     -C11     -H39     : -65.152471
 P1      -C10     -C11     -H40     : 177.243530
 P1      -C10     -C12     -H41     :  59.561348
 P1      -C10     -C12     -H42     : -62.364252
 P1      -C10     -C12     -H43     : 178.637193
 P1      -C10     -C13     -H44     : -64.845351
 P1      -C10     -C13     -H45     : 178.096263
 P1      -C10     -C13     -H46     :  59.410745
 P1      -C14     -C15     -C38     :   6.457709
 P1      -C14     -C15     -C44     :-172.406568
 P1      -C14     -C37     -H47     :-151.247671
 P1      -C14     -C37     -H48     :  81.355884
 P1      -C14     -C37     -H49     : -37.714256
 Pd2     -P1      -C7      -C6      : 164.064689
 Pd2     -P1      -C7      -C8      :  43.384917
 Pd2     -P1      -C7      -C9      : -72.784384
 Pd2     -P1      -C10     -C11     :  26.616122
 Pd2     -P1      -C10     -C12     : -94.660115
 Pd2     -P1      -C10     -C13     : 146.381420
 Pd2     -P1      -C14     -C15     :   4.602308
 Pd2     -P1      -C14     -C37     :-179.606813
 Pd2     -N2      -C25     -C24     : 106.312675
 Pd2     -N2      -C25     -C26     : -73.687327
 Pd2     -C20     -C19     -C18     :-177.677437
 Pd2     -C20     -C19     -H25     :   1.343357
 Pd2     -C20     -C19     -H37     :  73.829632
 Pd2     -C20     -C21     -C22     : 177.739254
 Pd2     -C20     -C21     -H26     :  -1.421133
 N2      -Pd2     -P1      -C7      :-118.352539
 N2      -Pd2     -P1      -C10     : 115.427340
 N2      -Pd2     -P1      -C14     :   0.759641
 N2      -Pd2     -C20     -C19     :  89.758208
 N2      -Pd2     -C20     -C21     : -87.606214
 N2      -C25     -C24     -C23     : 179.999998
 N2      -C25     -C24     -H28     :  -0.000001
 N2      -C25     -C26     -C27     :-179.999998
 N2      -C25     -C26     -H29     :   0.000001
 C17     -C18     -C19     -C20     :  -0.085567
 C17     -C18     -C19     -H25     :-179.117303
 C17     -C18     -C19     -H37     :  98.819146
 C17     -C22     -C21     -C20     :  -0.023898
 C17     -C22     -C21     -H26     : 179.144744
 C18     -C17     -C22     -C21     :  -0.318521
 C18     -C17     -C22     -H27     : 179.236263
 C18     -C19     -C20     -C21     :  -0.263028
 C18     -C19     -H37     -C9      :  47.359202
 C19     -C18     -C17     -C22     :   0.372937
 C19     -C18     -C17     -F10     :-178.946312
 C19     -C20     -C21     -C22     :   0.316693
 C19     -C20     -C21     -H26     :-178.843694
 C19     -H37     -C9      -C7      : 135.046623
 C19     -H37     -C9      -H35     :-100.722688
 C19     -H37     -C9      -H36     :  12.830935
 C20     -Pd2     -P1      -C7      :  65.458857
 C20     -Pd2     -P1      -C10     : -60.761264
 C20     -Pd2     -P1      -C14     :-175.428963
 C20     -Pd2     -N2      -H15     : 101.199002
 C20     -Pd2     -N2      -C25     : -35.471079
 C20     -C19     -C18     -H24     : 179.536272
 C20     -C19     -H37     -C9      : 168.971814
 C20     -C21     -C22     -H27     :-179.579196
 C21     -C20     -C19     -H25     : 178.757766
 C21     -C20     -C19     -H37     :-108.755959
 C21     -C22     -C17     -F10     : 179.005281
 C22     -C17     -C18     -H24     :-179.248064
 F10     -C17     -C18     -H24     :   1.432687
 F10     -C17     -C22     -H27     :  -1.439936
 H24     -C18     -C19     -H25     :   0.504536
 H24     -C18     -C19     -H37     : -81.559015
 H25     -C19     -H37     -C9      : -69.320382
 H26     -C21     -C22     -H27     :  -0.410554
 H15     -N2      -C25     -C24     : -33.587775
 H15     -N2      -C25     -C26     : 146.412224
 C16     -C23     -C24     -C25     :   0.000000
 C16     -C23     -C24     -H28     :-179.999999
 C16     -C27     -C26     -C25     :   0.000000
 C16     -C27     -C26     -H29     : 180.000000
 C23     -C16     -C27     -C26     :   0.000000
 C23     -C16     -C27     -H30     :-179.999999
 C23     -C24     -C25     -C26     :   0.000000
 C24     -C23     -C16     -C27     :  -0.000001
 C24     -C23     -C16     -H22     : 179.999999
 C24     -C25     -C26     -C27     :   0.000001
 C24     -C25     -C26     -H29     : 180.000000
 C25     -C24     -C23     -H23     : 179.999999
 C25     -C26     -C27     -H30     : 179.999999
 C26     -C25     -C24     -H28     : 180.000000
 C26     -C27     -C16     -H22     :-179.999999
 C27     -C16     -C23     -H23     :-179.999999
 H22     -C16     -C23     -H23     :   0.000001
 H22     -C16     -C27     -H30     :   0.000001
 H23     -C23     -C24     -H28     :  -0.000002
 H29     -C26     -C27     -H30     :  -0.000001
 C6      -C7      -P1      -C10     : -57.977571
 C6      -C7      -P1      -C14     :  56.756994
 C6      -C7      -C8      -H32     : 168.730180
 C6      -C7      -C8      -H33     :  50.218977
 C6      -C7      -C8      -H34     : -68.909937
 C6      -C7      -C9      -H35     :  71.659901
 C6      -C7      -C9      -H36     : -48.869024
 C6      -C7      -C9      -H37     :-166.969678
 C7      -P1      -C10     -C11     : -93.906048
 C7      -P1      -C10     -C12     : 144.817715
 C7      -P1      -C10     -C13     :  25.859250
 C7      -P1      -C14     -C15     : 109.159309
 C7      -P1      -C14     -C37     : -75.049812
 C8      -C7      -P1      -C10     :-178.657343
 C8      -C7      -P1      -C14     : -63.922778
 C8      -C7      -C6      -H50     :-175.418780
 C8      -C7      -C6      -H51     :  60.185837
 C8      -C7      -C6      -H31     : -57.231501
 C8      -C7      -C9      -H35     :-178.588850
 C8      -C7      -C9      -H36     :  60.882225
 C8      -C7      -C9      -H37     : -57.218429
 C9      -C7      -P1      -C10     :  65.173356
 C9      -C7      -P1      -C14     : 179.907921
 C9      -C7      -C6      -H50     : -64.445286
 C9      -C7      -C6      -H51     : 171.159331
 C9      -C7      -C6      -H31     :  53.741993
 C9      -C7      -C8      -H32     :  57.232106
 C9      -C7      -C8      -H33     : -61.279096
 C9      -C7      -C8      -H34     : 179.591989
 C10     -P1      -C14     -C15     :-129.944224
 C10     -P1      -C14     -C37     :  45.846655
 C11     -C10     -P1      -C14     : 141.891313
 C11     -C10     -C12     -H41     : -64.954754
 C11     -C10     -C12     -H42     : 173.119646
 C11     -C10     -C12     -H43     :  54.121091
 C11     -C10     -C13     -H44     :  59.211664
 C11     -C10     -C13     -H45     : -57.846722
 C11     -C10     -C13     -H46     :-176.532241
 C12     -C10     -P1      -C14     :  20.615076
 C12     -C10     -C11     -H38     :-176.975318
 C12     -C10     -C11     -H39     :  59.756098
 C12     -C10     -C11     -H40     : -57.847901
 C12     -C10     -C13     -H44     : 171.000437
 C12     -C10     -C13     -H45     :  53.942051
 C12     -C10     -C13     -H46     : -64.743467
 C13     -C10     -P1      -C14     : -98.343389
 C13     -C10     -C11     -H38     : -67.371767
 C13     -C10     -C11     -H39     : 169.359648
 C13     -C10     -C11     -H40     :  51.755650
 C13     -C10     -C12     -H41     :-175.241344
 C13     -C10     -C12     -H42     :  62.833056
 C13     -C10     -C12     -H43     : -56.165499
 C14     -C15     -C38     -C39     :-102.035098
 C14     -C15     -C38     -C43     :  74.368980
 C14     -C15     -C44     -C45     :-149.696363
 C14     -C15     -C44     -C28     :  29.285990
 C15     -C14     -C37     -H47     :  24.907935
 C15     -C14     -C37     -H48     :-102.488509
 C15     -C14     -C37     -H49     : 138.441351
 C15     -C38     -C39     -C40     : 178.726145
 C15     -C38     -C39     -H71     :   2.308983
 C15     -C38     -C43     -C42     :-178.439997
 C15     -C38     -C43     -H54     :   2.536328
 C15     -C44     -C45     -C46     : 179.109877
 C15     -C44     -C45     -H55     :   2.957507
 C15     -C44     -C28     -C48     :-179.550474
 C15     -C44     -C28     -H59     :   3.728784
 C37     -C14     -C15     -C38     :-168.909534
 C37     -C14     -C15     -C44     :  12.226189
 C38     -C15     -C44     -C45     :  31.347763
 C38     -C15     -C44     -C28     :-149.669883
 C38     -C39     -C40     -C41     :  -0.866591
 C38     -C39     -C40     -H72     :-179.597121
 C38     -C43     -C42     -C41     :   0.617818
 C38     -C43     -C42     -H53     :-179.415086
 C39     -C38     -C15     -C44     :  76.859704
 C39     -C38     -C43     -C42     :  -1.758124
 C39     -C38     -C43     -H54     : 179.218201
 C39     -C40     -C41     -C42     :  -0.456317
 C39     -C40     -C41     -H52     :-179.853482
 C40     -C39     -C38     -C43     :   1.877878
 C40     -C41     -C42     -C43     :   0.577604
 C40     -C41     -C42     -H53     :-179.389480
 C41     -C40     -C39     -H71     : 175.812513
 C41     -C42     -C43     -H54     : 179.702229
 C42     -C41     -C40     -H72     : 178.288383
 C43     -C38     -C15     -C44     :-106.736218
 C43     -C38     -C39     -H71     :-174.539284
 C43     -C42     -C41     -H52     : 179.975530
 C44     -C45     -C46     -C47     :   0.421801
 C44     -C45     -C46     -H56     :-179.740833
 C44     -C28     -C48     -C47     :   0.549223
 C44     -C28     -C48     -H58     :-179.299700
 C45     -C44     -C28     -C48     :  -0.501907
 C45     -C44     -C28     -H59     :-177.222650
 C45     -C46     -C47     -C48     :  -0.381911
 C45     -C46     -C47     -H57     : 179.230315
 C46     -C45     -C44     -C28     :   0.016620
 C46     -C47     -C48     -C28     :  -0.075670
 C46     -C47     -C48     -H58     : 179.775393
 C47     -C46     -C45     -H55     : 176.785067
 C47     -C48     -C28     -H59     : 177.490866
 C48     -C47     -C46     -H56     : 179.779681
 C28     -C44     -C45     -H55     :-176.135750
 C28     -C48     -C47     -H57     :-179.688441
 H71     -C39     -C40     -H72     :  -2.918018
 H72     -C40     -C41     -H52     :  -1.108782
 H52     -C41     -C42     -H53     :   0.008447
 H53     -C42     -C43     -H54     :  -0.330674
 H55     -C45     -C46     -H56     :  -3.377567
 H56     -C46     -C47     -H57     :  -0.608094
 H57     -C47     -C48     -H58     :   0.162623
 H58     -C48     -C28     -H59     :  -2.358057
 
  nuclear repulsion energy.......          5273.404916646 hartrees
  
  Detected an organometallic with only one TM atom. 
  
  Formal charge on ligand        1 is    -1
  Formal multiplet on ligand     1 is     1
  Oxidation state on metal       2 is     2
  Formal multiplet on metal      2 is     1
  Formal charge on ligand        3 is    -1
  Formal multiplet on ligand     3 is     1
  
 
  Will use High-Quality Initial guess for organometallics
       including d-d repulsion (iguess=30)
 
 Non-default options chosen:
   SCF calculation type: DFT(b3pw91-d3)              
   DFT=Becke_3_Parameter/HF+Slater+Becke88+PW91+PW-GGAIIC (B3PW91-D3)
   Geometry will be optimized in redundant internal coordinates
   Solvation energy will be computed using PBF
     -solute cavity energy will not be included
     -surface area terms will not be included
   Vibrational frequencies and related properties will be computed
      from analytic second derivatives
   IR intensities will be computed
   Thermochemical properties will be computed
   Maximum number of geometry steps: 100
   Scaling standard convergence criteria by a factor of   5.00
   Solvent: benzene                                                         
   Internal dielectric constant:    1.000
   Continuum dielectric constant:   2.283
   Solvent probe molecule radius:   2.600
  
 Non-default print settings:
     11=  2
  
 Temporary integer options set:
     21= -1  73=  2
  
  atom       vdw   vdw2    cov     mass  grid  daf  charge   basis
  P1        2.147  2.074  1.060   30.974    Y    Y      Y    ps_6-31g*
  Pd2       1.450  1.450  1.280  105.903    Y    Y      Y    lacv3p*
  N2        1.831  1.600  0.750   14.003    Y    Y      Y    ps_6-31g*
  C17       1.949  1.900  0.770   12.000    Y    Y      Y    ps_6-31g*
  C18       1.949  1.900  0.770   12.000    Y    Y      Y    ps_6-31g*
  C19       1.949  1.900  0.770   12.000    Y    Y      Y    ps_6-31g*
  C20       1.949  1.900  0.770   12.000    Y    Y      Y    ps_6-31g*
  C21       1.949  1.900  0.770   12.000    Y    Y      Y    ps_6-31g*
  C22       1.949  1.900  0.770   12.000    Y    Y      Y    ps_6-31g*
  F10       1.736  1.682  0.720   18.998    Y    Y      Y    ps_6-31g*
  H24       1.597  1.150  0.320    1.008    Y    Y      Y    ps_6-31g*
  H25       1.597  1.150  0.320    1.008    Y    Y      Y    ps_6-31g*
  H26       1.597  1.150  0.320    1.008    Y    Y      Y    ps_6-31g*
  H27       1.597  1.150  0.320    1.008    Y    Y      Y    ps_6-31g*
  H15       1.597  1.150  0.320    1.008    Y    Y      Y    ps_6-31g*
  C16       1.949  1.900  0.770   12.000    Y    Y      Y    ps_6-31g*
  C23       1.949  1.900  0.770   12.000    Y    Y      Y    ps_6-31g*
  C24       1.949  1.900  0.770   12.000    Y    Y      Y    ps_6-31g*
  C25       1.949  1.900  0.770   12.000    Y    Y      Y    ps_6-31g*
  C26       1.949  1.900  0.770   12.000    Y    Y      Y    ps_6-31g*
  C27       1.949  1.900  0.770   12.000    Y    Y      Y    ps_6-31g*
  H22       1.597  1.150  0.320    1.008    Y    Y      Y    ps_6-31g*
  H23       1.597  1.150  0.320    1.008    Y    Y      Y    ps_6-31g*
  H28       1.597  1.150  0.320    1.008    Y    Y      Y    ps_6-31g*
  H29       1.597  1.150  0.320    1.008    Y    Y      Y    ps_6-31g*
  H30       1.597  1.150  0.320    1.008    Y    Y      Y    ps_6-31g*
  C6        1.949  1.900  0.770   12.000    Y    Y      Y    ps_6-31g*
  C7        1.949  1.900  0.770   12.000    Y    Y      Y    ps_6-31g*
  C8        1.949  1.900  0.770   12.000    Y    Y      Y    ps_6-31g*
  C9        1.949  1.900  0.770   12.000    Y    Y      Y    ps_6-31g*
  C10       1.949  1.900  0.770   12.000    Y    Y      Y    ps_6-31g*
  C11       1.949  1.900  0.770   12.000    Y    Y      Y    ps_6-31g*
  C12       1.949  1.900  0.770   12.000    Y    Y      Y    ps_6-31g*
  C13       1.949  1.900  0.770   12.000    Y    Y      Y    ps_6-31g*
  C14       1.949  1.900  0.770   12.000    Y    Y      Y    ps_6-31g*
  C15       1.949  1.900  0.770   12.000    Y    Y      Y    ps_6-31g*
  C37       1.949  1.900  0.770   12.000    Y    Y      Y    ps_6-31g*
  C38       1.949  1.900  0.770   12.000    Y    Y      Y    ps_6-31g*
  C39       1.949  1.900  0.770   12.000    Y    Y      Y    ps_6-31g*
  C40       1.949  1.900  0.770   12.000    Y    Y      Y    ps_6-31g*
  C41       1.949  1.900  0.770   12.000    Y    Y      Y    ps_6-31g*
  C42       1.949  1.900  0.770   12.000    Y    Y      Y    ps_6-31g*
  C43       1.949  1.900  0.770   12.000    Y    Y      Y    ps_6-31g*
  C44       1.949  1.900  0.770   12.000    Y    Y      Y    ps_6-31g*
  C45       1.949  1.900  0.770   12.000    Y    Y      Y    ps_6-31g*
  C46       1.949  1.900  0.770   12.000    Y    Y      Y    ps_6-31g*
  C47       1.949  1.900  0.770   12.000    Y    Y      Y    ps_6-31g*
  C48       1.949  1.900  0.770   12.000    Y    Y      Y    ps_6-31g*
  C28       1.949  1.900  0.770   12.000    Y    Y      Y    ps_6-31g*
  H50       1.597  1.150  0.320    1.008    Y    Y      Y    ps_6-31g*
  H51       1.597  1.150  0.320    1.008    Y    Y      Y    ps_6-31g*
  H31       1.597  1.150  0.320    1.008    Y    Y      Y    ps_6-31g*
  H32       1.597  1.150  0.320    1.008    Y    Y      Y    ps_6-31g*
  H33       1.597  1.150  0.320    1.008    Y    Y      Y    ps_6-31g*
  H34       1.597  1.150  0.320    1.008    Y    Y      Y    ps_6-31g*
  H35       1.597  1.150  0.320    1.008    Y    Y      Y    ps_6-31g*
  H36       1.597  1.150  0.320    1.008    Y    Y      Y    ps_6-31g*
  H37       1.597  1.150  0.320    1.008    Y    Y      Y    ps_6-31g*
  H38       1.597  1.150  0.320    1.008    Y    Y      Y    ps_6-31g*
  H39       1.597  1.150  0.320    1.008    Y    Y      Y    ps_6-31g*
  H40       1.597  1.150  0.320    1.008    Y    Y      Y    ps_6-31g*
  H41       1.597  1.150  0.320    1.008    Y    Y      Y    ps_6-31g*
  H42       1.597  1.150  0.320    1.008    Y    Y      Y    ps_6-31g*
  H43       1.597  1.150  0.320    1.008    Y    Y      Y    ps_6-31g*
  H44       1.597  1.150  0.320    1.008    Y    Y      Y    ps_6-31g*
  H45       1.597  1.150  0.320    1.008    Y    Y      Y    ps_6-31g*
  H46       1.597  1.150  0.320    1.008    Y    Y      Y    ps_6-31g*
  H47       1.597  1.150  0.320    1.008    Y    Y      Y    ps_6-31g*
  H48       1.597  1.150  0.320    1.008    Y    Y      Y    ps_6-31g*
  H49       1.597  1.150  0.320    1.008    Y    Y      Y    ps_6-31g*
  H71       1.597  1.150  0.320    1.008    Y    Y      Y    ps_6-31g*
  H72       1.597  1.150  0.320    1.008    Y    Y      Y    ps_6-31g*
  H52       1.597  1.150  0.320    1.008    Y    Y      Y    ps_6-31g*
  H53       1.597  1.150  0.320    1.008    Y    Y      Y    ps_6-31g*
  H54       1.597  1.150  0.320    1.008    Y    Y      Y    ps_6-31g*
  H55       1.597  1.150  0.320    1.008    Y    Y      Y    ps_6-31g*
  H56       1.597  1.150  0.320    1.008    Y    Y      Y    ps_6-31g*
  H57       1.597  1.150  0.320    1.008    Y    Y      Y    ps_6-31g*
  H58       1.597  1.150  0.320    1.008    Y    Y      Y    ps_6-31g*
  H59       1.597  1.150  0.320    1.008    Y    Y      Y    ps_6-31g*
 
  atom      formal  2spin      esp    mulk    frag
  P1          -1       0        Y    0.000       0
  Pd2          2       0        Y    0.000       0
  N2          -1       0        Y    0.000       0
  
  end of program pre
   
 Time(pre)  user:       0.949  user+sys:       0.949  wallclock:       1.031
  
  start of program onee
  
  smallest eigenvalue of S:    4.484E-04
  number of canonical orbitals.....          646
  end of program onee
   
 Time(onee)  user:       4.982  user+sys:       4.982  wallclock:       3.536
  
  start of program hfig
  
  initial wavefunction generated automatically from atomic wavefunctions
  Only one state below 0.010000
  Skip d-d repulsion considerations 
 
  Irreducible     Total no   No of occupied orbitals 
  representation  orbitals   Shell_1  Shell_2    ...
  No Symm          646        150
  ------------------------
  Orbital occupation/shell    1.000
 
  end of program hfig
   
 Time(hfig)  user:       1.179  user+sys:       1.179  wallclock:       1.358
  
  start of program probe
  
  end of program probe
   
 Time(probe)  user:       0.636  user+sys:       0.636  wallclock:       0.540
  
  start of program grid
  
   grid     grid set  grid #  grid sym
  ------    --------  ------  --------
  coarse        0        0        1
  medium        2        1        1
  fine          0        0        1
  ultrafine     4        2        1
  charge       -1        3        1
  gradient      4        2        1
  density       0        0        1
  DFT-fine    -11        4        1
  DFT-med.    -10        5        1
  DFT-grad    -12        6        1
  DFT-der2     -8        7        1
  DFT-cphf     -9        8        1
  LMP2-enrg     4        2        1
  LMP2-grad     2        1        1
  DFT-cphf2   -15        9        1
  PBF-dens      0        0        1
  plotting      0        0        1
  Rel-grad    -17        0        1
  
  number of gridpoints: 
     atom           P1         Pd2          N2         C17         C18         C19         C20
  grid # 1         609         350         104          78          94          86          99
  grid # 2         430         295         385         328         325         278         381
  grid # 3          11         216           8          32          19          10           7
  grid # 4        8714        8714        8714        8714        8714        8714        8714
  grid # 5        1192        1192        1192        1192        1192        1192        1192
  grid # 6        9132        9132        5922        5922        5922        5922        5922
  grid # 7       23034       32968       13958       13950       13950       13950       13950
  grid # 8         722        1150         756         748         748         748         748
  grid # 9         366        2198         406         394         394         394         394
   
  number of gridpoints: 
     atom          C21         C22         F10         H24         H25         H26         H27
  grid # 1          95          93         584         114         100         111         115
  grid # 2         321         326         564         461         413         448         465
  grid # 3          10          19         366         352         102         202         390
  grid # 4        8714        8714        8714        8714        8714        8714        8714
  grid # 5        1192        1192        1192        1192        1192        1192        1192
  grid # 6        5922        5922        5922        5922        5922        5922        5922
  grid # 7       13950       13950       23190       15206       15206       15206       15206
  grid # 8         748         748         770         786         786         786         786
  grid # 9         394         394         420         420         420         420         420
   
  number of gridpoints: 
     atom          H15         C16         C23         C24         C25         C26         C27
  grid # 1         104          96          96          96          99          96          96
  grid # 2         419         325         324         322         353         321         323
  grid # 3          83          42          41          33          27          29          39
  grid # 4        8714        8714        8714        8714        8714        8714        8714
  grid # 5        1192        1192        1192        1192        1192        1192        1192
  grid # 6        5922        5922        5922        5922        5922        5922        5922
  grid # 7       15206       13950       13950       13950       13950       13950       13950
  grid # 8         786         748         748         748         748         748         748
  grid # 9         420         394         394         394         394         394         394
   
  number of gridpoints: 
     atom          H22         H23         H28         H29         H30          C6          C7
  grid # 1         118         117         114         112         117          82          88
  grid # 2         466         466         454         448         466         245         367
  grid # 3         412         405         287         223         406           6           6
  grid # 4        8714        8714        8714        8714        8714        8714        8714
  grid # 5        1192        1192        1192        1192        1192        1192        1192
  grid # 6        5922        5922        5922        5922        5922        5922        5922
  grid # 7       15206       15206       15206       15206       15206       13950       13950
  grid # 8         786         786         786         786         786         748         748
  grid # 9         420         420         420         420         420         394         394
   
  number of gridpoints: 
     atom           C8          C9         C10         C11         C12         C13         C14
  grid # 1          80          82          88          80          82          82          87
  grid # 2         244         240         369         247         246         245         390
  grid # 3           6           6           6           6           6           6           8
  grid # 4        8714        8714        8714        8714        8714        8714        8714
  grid # 5        1192        1192        1192        1192        1192        1192        1192
  grid # 6        5922        5922        5922        5922        5922        5922        5922
  grid # 7       13950       13950       13950       13950       13950       13950       13950
  grid # 8         748         748         748         748         748         748         748
  grid # 9         394         394         394         394         394         394         394
   
  number of gridpoints: 
     atom          C15         C37         C38         C39         C40         C41         C42
  grid # 1          99          79          97          92          95          93          94
  grid # 2         361         241         359         323         320         310         320
  grid # 3          16           6           8          16          27          26          21
  grid # 4        8714        8714        8714        8714        8714        8714        8714
  grid # 5        1192        1192        1192        1192        1192        1192        1192
  grid # 6        5922        5922        5922        5922        5922        5922        5922
  grid # 7       13950       13950       13950       13950       13950       13950       13950
  grid # 8         748         748         748         748         748         748         748
  grid # 9         394         394         394         394         394         394         394
   
  number of gridpoints: 
     atom          C43         C44         C45         C46         C47         C48         C28
  grid # 1          92          97          94          97          97          96          94
  grid # 2         319         362         326         327         326         327         324
  grid # 3          12          24          40          53          52          45          25
  grid # 4        8714        8714        8714        8714        8714        8714        8714
  grid # 5        1192        1192        1192        1192        1192        1192        1192
  grid # 6        5922        5922        5922        5922        5922        5922        5922
  grid # 7       13950       13950       13950       13950       13950       13950       13950
  grid # 8         748         748         748         748         748         748         748
  grid # 9         394         394         394         394         394         394         394
   
  number of gridpoints: 
     atom          H50         H51         H31         H32         H33         H34         H35
  grid # 1         103         106         107          97         107         105         101
  grid # 2         431         440         440         422         444         443         427
  grid # 3         155         204         254          64         255         215         133
  grid # 4        8714        8714        8714        8714        8714        8714        8714
  grid # 5        1192        1192        1192        1192        1192        1192        1192
  grid # 6        5922        5922        5922        5922        5922        5922        5922
  grid # 7       15206       15206       15206       15206       15206       15206       15206
  grid # 8         786         786         786         786         786         786         786
  grid # 9         420         420         420         420         420         420         420
   
  number of gridpoints: 
     atom          H36         H37         H38         H39         H40         H41         H42
  grid # 1         106          85         104         104         107         106          91
  grid # 2         440         366         429         437         443         445         386
  grid # 3         221          14         124         172         266         226         120
  grid # 4        8714        8714        8714        8714        8714        8714        8714
  grid # 5        1192        1192        1192        1192        1192        1192        1192
  grid # 6        5922        5922        5922        5922        5922        5922        5922
  grid # 7       15206       15206       15206       15206       15206       15206       15206
  grid # 8         786         786         786         786         786         786         786
  grid # 9         420         420         420         420         420         420         420
   
  number of gridpoints: 
     atom          H43         H44         H45         H46         H47         H48         H49
  grid # 1         107         104         107         102         106         104          85
  grid # 2         444         426         443         424         435         428         366
  grid # 3         270         152         262         161         213         157          50
  grid # 4        8714        8714        8714        8714        8714        8714        8714
  grid # 5        1192        1192        1192        1192        1192        1192        1192
  grid # 6        5922        5922        5922        5922        5922        5922        5922
  grid # 7       15206       15206       15206       15206       15206       15206       15206
  grid # 8         786         786         786         786         786         786         786
  grid # 9         420         420         420         420         420         420         420
   
  number of gridpoints: 
     atom          H71         H72         H52         H53         H54         H55         H56
  grid # 1         116         117         113         116         113         114         118
  grid # 2         457         460         460         461         454         454         466
  grid # 3         290         347         353         364         261         287         423
  grid # 4        8714        8714        8714        8714        8714        8714        8714
  grid # 5        1192        1192        1192        1192        1192        1192        1192
  grid # 6        5922        5922        5922        5922        5922        5922        5922
  grid # 7       15206       15206       15206       15206       15206       15206       15206
  grid # 8         786         786         786         786         786         786         786
  grid # 9         420         420         420         420         420         420         420
   
  number of gridpoints: 
     atom          H57         H58         H59       total
  grid # 1         118         118         107        9254
  grid # 2         467         466         439       30788
  grid # 3         431         416         201       11259
  grid # 4        8714        8714        8714      697120
  grid # 5        1192        1192        1192       95360
  grid # 6        5922        5922        5922      480180
  grid # 7       15206       15206       15206     1204846
  grid # 8         786         786         786       61804
  grid # 9         420         420         420       34400
   
  end of program grid
   
 Time(grid)  user:     359.372  user+sys:     359.372  wallclock:     182.182
  
  start of program rwr
  
  end of program rwr
   
 Time(rwr)  user:      18.092  user+sys:      18.092  wallclock:      22.020
  
  start of program scf
  
 number of electrons..........        300
 number of alpha electrons....        150
 number of beta electrons.....        150
 number of orbitals, total....        646
 number of doubly-occ'd orbs..        150
 number of open shell orbs....          0
 number of occupied orbitals..        150
 number of virtual orbitals...        496
 number of hamiltonians.......          1
 number of shells.............          1
 SCF type: DFT=Becke_3_Parameter/HF+Slater+Becke88+PW91+PW-GGAIIC (B3PW91-D3)
 Energy computed using pseudospectral method.
 Convergence Criterion:
    Energy (econv):       1.00E-05
    RMS density (dconv):  5.00E-06
  
       i  u  d  i  g                   
       t  p  i  c  r                                 RMS    maximum
       e  d  i  u  i                       energy  density   DIIS  
       r  t  s  t  d       total energy    change  change    error 
  
etot    1  N  N  5  M   -1975.46734096248           2.1E-03  2.8E-01
etot    2  Y  Y  6  M   -1978.86828450207  3.4E+00  3.4E-03  1.7E-01
etot    3  Y  Y  6  M   -1979.78915453728  9.2E-01  1.4E-03  6.0E-02
etot    4  N  Y  2  U   -1980.13725277726  3.5E-01  1.3E-03  3.1E-02
etot    5  Y  Y  6  M   -1980.23837885796  1.0E-01  7.8E-04  1.9E-02
etot    6  N  Y  2  U   -1980.24431415088  5.9E-03  7.5E-04  9.9E-03
etot    7  Y  Y  6  M   -1980.25615101948  1.2E-02  1.3E-04  6.2E-03
etot    8  N  Y  2  U   -1980.26292696259  6.8E-03  4.3E-05  1.0E-03
etot    9  N  Y  2  U   -1980.26324440600  3.2E-04  1.7E-05  3.1E-04
etot   10  N  Y  2  U   -1980.26327061204  2.6E-05  7.2E-06  1.7E-04
etot   11  N  Y  2  U   -1980.26327876550  8.2E-06  2.3E-06  4.0E-05
etot   12  N  N  2  U   -1980.26327917015  4.0E-07  0.0E+00  0.0E+00
 
  Computing the dispersion energy correction and its gradients...
  
  
 Energy components, in hartrees:
   (A)  Nuclear repulsion............    5273.40491664579
   (E)  Total one-electron terms.....  -13253.33100317979
   (F)    Electron-nuclear...........  -15141.99604456681
   (H)    Kinetic....................    1888.66504138702
   (I)  Total two-electron terms.....    5999.66280736385
   (J)    Coulomb....................    6257.74382121427
   (K)    Exchange+Correlation.......    -258.08101385042
   (L)  Electronic energy............   -7253.66819581594  (E+I)
   (N0) D3 correction................      -0.14244949838
   (N)  Total energy.................   -1980.40572866853  (A+L+N0)
   (O)  Gas phase energy.............   -1980.40572866853
  
 SCFE: SCF energy: DFT(b3pw91-d3)     -1980.40572866853 hartrees   iterations:  12
  
 
 HOMO energy:    -0.15429
 LUMO energy:    -0.06426
 
  Orbital energies (hartrees): 
   -77.08363   -24.67597   -14.26791   -10.23513   -10.21888   -10.21780
   -10.20867   -10.20640   -10.20386   -10.20282   -10.18800   -10.18688
   -10.18682   -10.18661   -10.18595   -10.18510   -10.18058   -10.17591
   -10.17560   -10.17396   -10.17351   -10.17083   -10.17057   -10.16898
   -10.16678   -10.16669   -10.16531   -10.16400   -10.16122   -10.15481
   -10.15255   -10.15174   -10.14901   -10.14736   -10.14199   -10.14059
   -10.13858   -10.13691    -6.58427    -4.74246    -4.74176    -4.73891
    -3.32762    -2.05950    -2.05844    -2.02706    -1.21218    -0.87991
    -0.86190    -0.85790    -0.84468    -0.83977    -0.82091    -0.81812
    -0.78683    -0.77023    -0.76075    -0.75623    -0.75090    -0.74498
    -0.72590    -0.71400    -0.71322    -0.69735    -0.68743    -0.68555
    -0.68111    -0.67857    -0.66841    -0.61877    -0.61523    -0.61050
    -0.60569    -0.60104    -0.58863    -0.57483    -0.56698    -0.55897
    -0.55389    -0.53909    -0.53083    -0.52088    -0.50532    -0.48953
    -0.48228    -0.47977    -0.47854    -0.47337    -0.46416    -0.45750
    -0.45668    -0.45282    -0.45000    -0.44775    -0.44642    -0.44499
    -0.44106    -0.44039    -0.43566    -0.43369    -0.42397    -0.42058
    -0.41783    -0.41520    -0.41219    -0.40933    -0.40436    -0.40161
    -0.39646    -0.39221    -0.38955    -0.38524    -0.38301    -0.38013
    -0.37865    -0.37416    -0.37282    -0.36866    -0.36171    -0.35908
    -0.35833    -0.34914    -0.34645    -0.34375    -0.34188    -0.33737
    -0.33395    -0.33013    -0.32508    -0.32237    -0.31697    -0.31590
    -0.31494    -0.30844    -0.30072    -0.29379    -0.29076    -0.27257
    -0.26787    -0.26035    -0.25551    -0.24673    -0.23710    -0.23526
    -0.22329    -0.22071    -0.21760    -0.20046    -0.17934    -0.15429
    -0.06426    -0.02802    -0.02019    -0.01336    -0.00795     0.00159
     0.01570     0.02135     0.02492     0.03172
 
  end of program scf
   
 Time(scf)  user:     529.145  user+sys:     529.145  wallclock:     280.350
  
  start of program der1a
  
  end of program der1a
   
 Time(der1a)  user:      15.172  user+sys:      15.172  wallclock:       8.146
  
  start of program rwr
  
  end of program rwr
   
 Time(rwr)  user:      20.362  user+sys:      20.362  wallclock:      26.214
  
  start of program der1b
  
   
  forces (hartrees/bohr) : total     
   
 atom  label           x              y              z
 ---- --------   -------------  -------------  -------------
    1 P1         -1.271473E-02  -4.382276E-03   2.401027E-02
    2 Pd2        -2.865377E-02   1.367574E-02  -1.164461E-02
    3 N2          1.079938E-02   3.171282E-02   5.985821E-02
    4 C17        -1.311647E-02  -3.711131E-02  -4.280550E-03
    5 C18         1.245686E-02   1.752037E-02   1.480107E-02
    6 C19        -1.053534E-02   2.820286E-02   9.317304E-02
    7 C20        -2.892100E-02   1.721706E-03   3.263648E-02
    8 C21         1.299846E-02  -9.313260E-03   3.576787E-03
    9 C22        -1.813424E-03   1.887240E-02  -8.712097E-05
   10 F10         2.911729E-03   5.383046E-03   9.650029E-04
   11 H24        -2.067814E-03   8.230380E-04   4.878976E-05
   12 H25         1.582546E-03   4.400650E-03   2.853083E-02
   13 H26         2.156219E-03   8.767501E-04   1.689162E-04
   14 H27         2.528964E-03   2.376729E-04  -3.237280E-04
   15 H15         5.116019E-02   1.884814E-02  -3.122443E-02
   16 C16         3.916169E-03   2.540185E-03   2.482948E-03
   17 C23        -2.623339E-03  -2.925907E-03  -9.050653E-04
   18 C24         5.693933E-03   8.662379E-03   1.268882E-02
   19 C25        -3.625225E-02  -1.797658E-02  -2.104738E-02
   20 C26         1.058550E-02   9.268235E-04   7.287488E-04
   21 C27        -3.085505E-03   4.298903E-04  -2.318551E-03
   22 H22        -6.899687E-03  -5.104838E-03  -5.783841E-03
   23 H23         2.923255E-03  -8.036290E-03  -5.549861E-03
   24 H28         1.025321E-02  -3.655307E-03  -2.220377E-03
   25 H29        -5.713648E-03   7.769455E-03   4.403605E-03
   26 H30        -9.689028E-03   2.769541E-03  -1.883912E-04
   27 C6          2.021578E-03  -1.111071E-02  -1.869933E-02
   28 C7          4.642175E-02  -1.467121E-03  -2.265328E-02
   29 C8         -5.504068E-03  -1.295690E-02   7.041431E-03
   30 C9         -2.811435E-03  -2.485254E-04  -5.634287E-02
   31 C10        -1.711931E-02   1.938661E-02  -1.966990E-02
   32 C11        -3.144513E-03   6.708513E-03   1.069718E-02
   33 C12        -2.847547E-02  -1.085837E-03   8.173559E-03
   34 C13         1.941388E-02   5.130805E-03  -1.148373E-02
   35 C14         2.917195E-03  -1.261987E-03  -2.187569E-02
   36 C15         2.314148E-03  -1.203125E-03  -2.641619E-03
   37 C37         1.655708E-02  -8.685192E-03  -2.414810E-02
   38 C38         2.365764E-02   1.348040E-02   2.089120E-02
   39 C39         1.616882E-02  -1.914987E-02   1.118075E-02
   40 C40        -6.896669E-03  -1.036157E-02  -2.917652E-03
   41 C41        -8.538738E-03  -1.623634E-02  -2.392741E-05
   42 C42        -8.448196E-03  -1.577714E-02  -3.216233E-04
   43 C43        -1.971264E-02   1.479326E-02   1.020508E-04
   44 C44        -1.533020E-02  -1.651134E-02   1.822968E-03
   45 C45        -1.399352E-02  -4.617272E-05   8.982608E-03
   46 C46         2.918517E-03   1.178420E-03  -9.113675E-04
   47 C47         1.174928E-03   3.215256E-03   1.054625E-03
   48 C48        -4.759664E-03  -1.155054E-03   4.547563E-03
   49 C28         2.129337E-02  -4.410759E-03  -1.192773E-02
   50 H50        -7.844468E-04  -4.867028E-03   6.872517E-03
   51 H51        -3.836818E-03   9.246904E-03   3.353419E-03
   52 H31        -9.419702E-03  -7.192169E-04   6.826669E-03
   53 H32        -3.263720E-03  -6.942119E-03  -5.882676E-03
   54 H33        -8.337179E-03   2.602952E-03  -5.280594E-03
   55 H34         9.059619E-04   7.987236E-03   4.862703E-03
   56 H35         3.401408E-03  -4.210396E-03   6.722913E-03
   57 H36        -4.865709E-03  -6.915098E-03  -2.158659E-03
   58 H37         5.160638E-03  -1.593575E-02  -1.023924E-01
   59 H38        -8.305751E-03  -5.562992E-03   9.214960E-04
   60 H39         1.038759E-02  -1.427757E-03  -4.839797E-03
   61 H40         7.286015E-03  -1.033347E-02   2.470887E-03
   62 H41         8.875214E-03   2.005576E-03  -2.442104E-03
   63 H42        -3.697653E-02   3.289537E-02   1.065009E-02
   64 H43         8.371645E-03   2.584848E-03   6.584567E-03
   65 H44        -7.589327E-03  -1.117856E-02  -1.236972E-03
   66 H45        -1.995882E-03  -4.611884E-03   9.453667E-03
   67 H46         1.605913E-03   8.180326E-03   5.308869E-03
   68 H47         1.194685E-02  -9.138527E-05   5.426156E-03
   69 H48        -1.143225E-02  -1.768124E-03   2.439886E-03
   70 H49         4.469416E-02  -3.130621E-02   7.433310E-03
   71 H71        -7.455419E-03   8.414261E-04  -7.438539E-03
   72 H72        -5.566920E-03   4.618641E-03  -8.793476E-03
   73 H52         1.137844E-03  -2.519255E-03  -9.755299E-03
   74 H53         6.900380E-03  -4.534469E-03  -5.950388E-03
   75 H54         1.616944E-03  -1.204099E-03  -8.055140E-03
   76 H55         1.058991E-02   1.419180E-03  -4.753765E-03
   77 H56         8.224519E-03   8.219649E-03  -4.290984E-03
   78 H57         1.348212E-03   6.776193E-03   2.245433E-03
   79 H58        -3.246673E-03   6.872848E-03   8.670661E-03
   80 H59        -9.101124E-03  -2.722741E-03   1.067976E-02
 -------------   -------------  -------------  -------------
     total       -1.719360E-03  -3.506088E-03   1.028919E-03
   
  end of program der1b
   
 Time(der1b)  user:     164.270  user+sys:     164.270  wallclock:      87.110
  
  start of program geopt
  
 ----------------------------------------------------------------------------
  Geometry optimization step  1
  Total energy:     -1980.40572866853 hartrees
 ----------------------------------------------------------------------------
  
  
  Level shifts adjusted to satisfy step-size constraints
   Step size:    0.3000054
   Cos(theta):   0.7875678
   Final level shift:  -7.9916463E-01
  
  gradient maximum:        3.2498E-01 .  (  2.2500E-03 )
  gradient rms:            4.7116E-02 .  (  1.5000E-03 )
  displacement maximum:    1.4498E-01 .  (  9.0000E-03 )
  displacement rms:        1.7959E-02 .  (  6.0000E-03 )
  
  predicted energy change:  -1.2893E-01
  step size:     0.29998
  trust radius:  0.30000
  
  molecular structure not yet converged...
  
  center of mass moved by:
     x:    -1.6020E-02     y:     1.3495E-02     z:    -6.1293E-03
  
  new geometry: 
                                   angstroms
  atom               x                 y                 z
  P1           -0.0147872282     -0.0270861466      0.0353557209 
  Pd2          -0.0425424366      0.0537603570      2.3551018000 
  N2           -0.0439017176     -0.0290092988      4.3412895465 
  C17           1.3479901103      4.6668750416      2.4171614378 
  C18           2.2941469394      3.6432503290      2.4140591685 
  C19           1.8987029439      2.3008885611      2.3748732488 
  C20           0.5354396066      1.9628270213      2.3619835814 
  C21          -0.4080580876      2.9919803711      2.3810424245 
  C22          -0.0059930019      4.3298883626      2.4037306728 
  F10           1.7193358913      5.9496513094      2.4330225651 
  H24           3.3537098994      3.8951564844      2.4393663732 
  H25           2.6627071861      1.5300752123      2.4283992218 
  H26          -1.4700242127      2.7612992067      2.3726718924 
  H27          -0.7524989480      5.1235532791      2.4182063323 
  H15          -0.9971729986      0.0573183694      4.8285462923 
  C16           2.8558744071      2.1699429068      6.5252737838 
  C23           1.5250723007      2.6044256929      6.5012100697 
  C24           0.5663042104      1.8838335353      5.7814787420 
  C25           0.9345261734      0.7243631274      5.0807627812 
  C26           2.2680904151      0.2911542504      5.1049988835 
  C27           3.2255245841      1.0138063627      5.8263790978 
  H22           3.6087586469      2.7361880928      7.0903909946 
  H23           1.2336603498      3.5116866784      7.0480832165 
  H28          -0.4776485369      2.2243572619      5.7586421595 
  H29           2.5546700559     -0.6183427073      4.5595532405 
  H30           4.2692875998      0.6711868741      5.8444053976 
  C6            2.3993185917     -0.1461377081     -1.6534375375 
  C7            1.8304936599      0.1990207434     -0.2547196624 
  C8            2.6150926028     -0.7099529487      0.7303284632 
  C9            2.2086866502      1.6578982273      0.0577304251 
  C10          -1.0308073915      1.1523148141     -1.0983482633 
  C11          -1.2563848065      2.5169657701     -0.4116151225 
  C12          -2.4512943644      0.6259796044     -1.4339023037 
  C13          -0.3574975752      1.4698496242     -2.4481764716 
  C14          -0.5985661853     -1.7352381108     -0.3949719223 
  C15          -1.0420992318     -2.7318686997      0.4304469927 
  C37          -0.5500206690     -1.9559493134     -1.8896344143 
  C38          -1.2923179540     -2.5931966658      1.9009843725 
  C39          -0.3953100945     -3.1161850338      2.8639920904 
  C40          -0.6030841500     -3.0035253104      4.2380163934 
  C41          -1.7312536541     -2.3372875969      4.7341763480 
  C42          -2.6305246701     -1.7899418066      3.8189282826 
  C43          -2.3965646216     -1.9140752745      2.4433112133 
  C44          -1.3304004094     -4.1024882226     -0.0928895852 
  C45          -2.3503329657     -4.8852675556      0.4947228079 
  C46          -2.6835814396     -6.1712112838      0.0535377679 
  C47          -1.9879006663     -6.7502435374     -1.0119107102 
  C48          -0.9674004457     -6.0102834713     -1.6176280105 
  C28          -0.6616078995     -4.7238258145     -1.1654228114 
  H50           1.9752820575      0.4474891307     -2.4749250186 
  H51           2.2868819308     -1.2208694509     -1.9140216096 
  H31           3.4897125733      0.0488299260     -1.6955767920 
  H32           2.4176688868     -0.4573585326      1.7862484911 
  H33           3.7062445744     -0.6024594120      0.5904792082 
  H34           2.3675587379     -1.7765171307      0.5669444330 
  H35           1.6563396499      2.3877444169     -0.5650536658 
  H36           3.2863214225      1.8439118740     -0.1063861069 
  H37           1.9988188262      1.9292456816      1.1403323399 
  H38          -0.3021086477      3.0044746357     -0.1487434909 
  H39          -1.8780679980      2.4353357507      0.4991267565 
  H40          -1.7990467140      3.2141625742     -1.0843247109 
  H41          -3.0841118894      0.4504557991     -0.5422572215 
  H42          -2.4189094837     -0.3147201555     -2.0039577894 
  H43          -3.0028790415      1.3571737842     -2.0525167170 
  H44           0.5880309167      2.0369334019     -2.3240179204 
  H45          -0.9956322942      2.1207101410     -3.0744032554 
  H46          -0.1602105824      0.5679767883     -3.0543188670 
  H47          -1.2979480877     -2.6790094379     -2.2675728107 
  H48           0.4700382629     -2.2276012639     -2.2358527225 
  H49          -0.8379377047     -1.0334548584     -2.4198991640 
  H71           0.5325905112     -3.6096388949      2.5623375567 
  H72           0.1295746222     -3.4188746767      4.9399433715 
  H52          -1.9034419494     -2.2417847562      5.8138632672 
  H53          -3.5198309947     -1.2534086467      4.1713730498 
  H54          -3.1511524863     -1.4811898507      1.7914696932 
  H55          -2.9652860550     -4.4775438790      1.3083213743 
  H56          -3.4910318195     -6.7300208953      0.5480821435 
  H57          -2.2299008413     -7.7593853823     -1.3595948218 
  H58          -0.4044470128     -6.4474514605     -2.4530394172 
  H59           0.1872176806     -4.2405672298     -1.6631957691 
   
 
  bond lengths (angstroms):
 
 P1      -Pd2     :   2.321320      P1      -C7      :   1.881576
 P1      -C10     :   1.925764      P1      -C14     :   1.855738
 Pd2     -N2      :   1.987912      Pd2     -C20     :   1.994654
 N2      -H15     :   1.074057      N2      -C25     :   1.439344
 C17     -C18     :   1.393926      C17     -C22     :   1.395353
 C17     -F10     :   1.335539      C18     -C19     :   1.399945
 C18     -H24     :   1.089390      C19     -C20     :   1.404613
 C19     -H25     :   1.086610      C20     -C21     :   1.396319
 C21     -C22     :   1.397200      C21     -H26     :   1.086764
 C22     -H27     :   1.089672      C16     -C23     :   1.400139
 C16     -C27     :   1.400624      C16     -H22     :   1.098556
 C23     -C24     :   1.398750      C23     -H23     :   1.098687
 C24     -C25     :   1.403910      C24     -H28     :   1.098324
 C25     -C26     :   1.402373      C26     -C27     :   1.399748
 C26     -H29     :   1.098555      C27     -H30     :   1.098706
 C6      -C7      :   1.548905      C6      -H50     :   1.098654
 C6      -H51     :   1.111573      C6      -H31     :   1.108489
 C7      -C8      :   1.553109      C7      -C9      :   1.539149
 C8      -H32     :   1.103516      C8      -H33     :   1.105317
 C8      -H34     :   1.107035      C9      -H35     :   1.107078
 C9      -H36     :   1.105817      C9      -H37     :   1.135650
 C10     -C11     :   1.544267      C10     -C12     :   1.551583
 C10     -C13     :   1.541496      C11     -H38     :   1.103363
 C11     -H39     :   1.105714      C11     -H40     :   1.110452
 C12     -H41     :   1.107383      C12     -H42     :   1.100422
 C12     -H43     :   1.105249      C13     -H44     :   1.109515
 C13     -H45     :   1.105891      C13     -H46     :   1.104403
 C14     -C15     :   1.367959      C14     -C37     :   1.511650
 C15     -C38     :   1.498105      C15     -C44     :   1.495191
 C37     -H47     :   1.106819      C37     -H48     :   1.110937
 C37     -H49     :   1.102303      C38     -C39     :   1.416165
 C38     -C43     :   1.405235      C39     -C40     :   1.394204
 C39     -H71     :   1.093385      C40     -C41     :   1.401005
 C40     -H72     :   1.096360      C41     -C42     :   1.394975
 C41     -H52     :   1.097494      C42     -C43     :   1.400881
 C42     -H53     :   1.096791      C43     -H54     :   1.087056
 C44     -C45     :   1.413610      C44     -C28     :   1.408429
 C45     -C46     :   1.399768      C45     -H55     :   1.098339
 C46     -C47     :   1.398009      C46     -H56     :   1.099463
 C47     -C48     :   1.398519      C47     -H57     :   1.094448
 C48     -C28     :   1.397488      C48     -H58     :   1.098155
 C28     -H59     :   1.096276
 
  bond angles:
 
 C7      -P1      -Pd2     :  99.299916  C10     -P1      -Pd2     : 124.101882
 C10     -P1      -C7      : 110.674746  C14     -P1      -Pd2     : 105.071824
 C14     -P1      -C7      : 112.542866  C14     -P1      -C10     : 105.143714
 N2      -Pd2     -P1      : 175.570448  C20     -Pd2     -P1      :  91.909251
 C20     -Pd2     -N2      :  92.097547  H15     -N2      -Pd2     : 116.777501
 C25     -N2      -Pd2     : 119.409848  C25     -N2      -H15     : 109.158790
 C22     -C17     -C18     : 118.768763  F10     -C17     -C18     : 121.106432
 F10     -C17     -C22     : 120.124803  C19     -C18     -C17     : 120.828493
 H24     -C18     -C17     : 119.362117  H24     -C18     -C19     : 119.809110
 C20     -C19     -C18     : 120.344097  H25     -C19     -C18     : 118.699092
 H25     -C19     -C20     : 120.805798  C19     -C20     -Pd2     : 120.771735
 C21     -C20     -Pd2     : 120.642063  C21     -C20     -C19     : 118.574050
 C22     -C21     -C20     : 120.766963  H26     -C21     -C20     : 120.247163
 H26     -C21     -C22     : 118.984968  C21     -C22     -C17     : 120.706933
 H27     -C22     -C17     : 119.257347  H27     -C22     -C21     : 120.034342
 C27     -C16     -C23     : 119.895502  H22     -C16     -C23     : 120.019331
 H22     -C16     -C27     : 120.085106  C24     -C23     -C16     : 120.031855
 H23     -C23     -C16     : 119.986402  H23     -C23     -C24     : 119.981741
 C25     -C24     -C23     : 120.166357  H28     -C24     -C23     : 120.164887
 H28     -C24     -C25     : 119.668367  C24     -C25     -N2      : 120.691308
 C26     -C25     -N2      : 119.578134  C26     -C25     -C24     : 119.730033
 C27     -C26     -C25     : 119.991210  H29     -C26     -C25     : 119.685405
 H29     -C26     -C27     : 120.322869  C26     -C27     -C16     : 120.185005
 H30     -C27     -C16     : 119.996000  H30     -C27     -C26     : 119.818955
 H50     -C6      -C7      : 114.398030  H51     -C6      -C7      : 112.954798
 H51     -C6      -H50     : 107.943949  H31     -C6      -C7      : 110.878222
 H31     -C6      -H50     : 104.844696  H31     -C6      -H51     : 105.108311
 C6      -C7      -P1      : 118.203088  C8      -C7      -P1      : 109.106540
 C8      -C7      -C6      : 104.880319  C9      -C7      -P1      : 108.879661
 C9      -C7      -C6      : 107.716004  C9      -C7      -C8      : 107.569026
 H32     -C8      -C7      : 112.491250  H33     -C8      -C7      : 111.194872
 H33     -C8      -H32     : 105.986915  H34     -C8      -C7      : 110.934486
 H34     -C8      -H32     : 108.768786  H34     -C8      -H33     : 107.202995
 H35     -C9      -C7      : 112.835133  H36     -C9      -C7      : 111.639559
 H36     -C9      -H35     : 106.967145  H37     -C9      -C7      : 111.998712
 H37     -C9      -H35     : 106.651496  H37     -C9      -H36     : 106.342412
 C11     -C10     -P1      : 110.883684  C12     -C10     -P1      : 113.739569
 C12     -C10     -C11     : 105.201235  C13     -C10     -P1      : 114.281062
 C13     -C10     -C11     : 105.734299  C13     -C10     -C12     : 106.283284
 H38     -C11     -C10     : 111.719272  H39     -C11     -C10     : 112.530476
 H39     -C11     -H38     : 108.823773  H40     -C11     -C10     : 110.904440
 H40     -C11     -H38     : 106.832494  H40     -C11     -H39     : 105.697985
 H41     -C12     -C10     : 113.753656  H42     -C12     -C10     : 112.029102
 H42     -C12     -H41     : 107.363443  H43     -C12     -C10     : 110.702703
 H43     -C12     -H41     : 105.684295  H43     -C12     -H42     : 106.874849
 H44     -C13     -C10     : 112.304377  H45     -C13     -C10     : 111.410532
 H45     -C13     -H44     : 104.732435  H46     -C13     -C10     : 112.980036
 H46     -C13     -H44     : 109.060312  H46     -C13     -H45     : 105.836921
 C15     -C14     -P1      : 129.248628  C37     -C14     -P1      : 110.706247
 C37     -C14     -C15     : 120.043181  C38     -C15     -C14     : 125.380704
 C44     -C15     -C14     : 121.276962  C44     -C15     -C38     : 113.342077
 H47     -C37     -C14     : 114.287037  H48     -C37     -C14     : 111.921287
 H48     -C37     -H47     : 110.751068  H49     -C37     -C14     : 110.185912
 H49     -C37     -H47     : 101.885168  H49     -C37     -H48     : 107.130523
 C39     -C38     -C15     : 121.838015  C43     -C38     -C15     : 123.697952
 C43     -C38     -C39     : 114.442034  C40     -C39     -C38     : 123.088393
 H71     -C39     -C38     : 121.104386  H71     -C39     -C40     : 115.774927
 C41     -C40     -C39     : 120.494233  H72     -C40     -C39     : 120.050620
 H72     -C40     -C41     : 119.442215  C42     -C41     -C40     : 118.251437
 H52     -C41     -C40     : 121.072320  H52     -C41     -C42     : 120.675412
 C43     -C42     -C41     : 120.121827  H53     -C42     -C41     : 120.252166
 H53     -C42     -C43     : 119.624187  C42     -C43     -C38     : 123.575431
 H54     -C43     -C38     : 120.431337  H54     -C43     -C42     : 115.951365
 C45     -C44     -C15     : 120.081808  C28     -C44     -C15     : 125.406967
 C28     -C44     -C45     : 114.510921  C46     -C45     -C44     : 123.330819
 H55     -C45     -C44     : 120.419416  H55     -C45     -C46     : 116.181115
 C47     -C46     -C45     : 120.148324  H56     -C46     -C45     : 119.999888
 H56     -C46     -C47     : 119.851215  C48     -C47     -C46     : 118.297741
 H57     -C47     -C46     : 120.929134  H57     -C47     -C48     : 120.771761
 C28     -C48     -C47     : 120.436756  H58     -C48     -C47     : 119.533049
 H58     -C48     -C28     : 120.030155  C48     -C28     -C44     : 123.272045
 H59     -C28     -C44     : 121.263006  H59     -C28     -C48     : 115.359356
 
  torsional angles:
 
 P1      -Pd2     -N2      -H15     :-104.773616
 P1      -Pd2     -N2      -C25     : 120.278997
 P1      -Pd2     -C20     -C19     : -89.259558
 P1      -Pd2     -C20     -C21     :  92.026581
 P1      -C7      -C6      -H50     :  60.637632
 P1      -C7      -C6      -H51     : -63.383608
 P1      -C7      -C6      -H31     : 178.938377
 P1      -C7      -C8      -H32     : -61.193310
 P1      -C7      -C8      -H33     :-179.896285
 P1      -C7      -C8      -H34     :  60.895939
 P1      -C7      -C9      -H35     : -59.015930
 P1      -C7      -C9      -H36     :-179.526874
 P1      -C7      -C9      -H37     :  61.345298
 P1      -C10     -C11     -H38     :  58.161632
 P1      -C10     -C11     -H39     : -64.607768
 P1      -C10     -C11     -H40     : 177.227310
 P1      -C10     -C12     -H41     :  58.981356
 P1      -C10     -C12     -H42     : -63.010492
 P1      -C10     -C12     -H43     : 177.801696
 P1      -C10     -C13     -H44     : -64.840324
 P1      -C10     -C13     -H45     : 178.024165
 P1      -C10     -C13     -H46     :  59.032929
 P1      -C14     -C15     -C38     :   7.053508
 P1      -C14     -C15     -C44     :-173.143556
 P1      -C14     -C37     -H47     :-151.269329
 P1      -C14     -C37     -H48     :  81.817789
 P1      -C14     -C37     -H49     : -37.275742
 Pd2     -P1      -C7      -C6      : 164.534285
 Pd2     -P1      -C7      -C8      :  44.920490
 Pd2     -P1      -C7      -C9      : -72.214037
 Pd2     -P1      -C10     -C11     :  28.979001
 Pd2     -P1      -C10     -C12     : -89.340385
 Pd2     -P1      -C10     -C13     : 148.354386
 Pd2     -P1      -C14     -C15     :   3.935213
 Pd2     -P1      -C14     -C37     :-176.580738
 Pd2     -N2      -C25     -C24     : 106.586044
 Pd2     -N2      -C25     -C26     : -73.678334
 Pd2     -C20     -C19     -C18     :-178.366168
 Pd2     -C20     -C19     -H25     :  -2.890938
 Pd2     -C20     -C21     -C22     : 179.149186
 Pd2     -C20     -C21     -H26     :  -1.200558
 N2      -Pd2     -P1      -C7      : -88.937539
 N2      -Pd2     -P1      -C10     : 148.178487
 N2      -Pd2     -P1      -C14     :  27.576583
 N2      -Pd2     -C20     -C19     :  88.851537
 N2      -Pd2     -C20     -C21     : -89.862324
 N2      -C25     -C24     -C23     : 179.727211
 N2      -C25     -C24     -H28     :  -0.499157
 N2      -C25     -C26     -C27     :-179.708483
 N2      -C25     -C26     -H29     :   0.030964
 C17     -C18     -C19     -C20     :  -1.138673
 C17     -C18     -C19     -H25     :-176.708213
 C17     -C22     -C21     -C20     :  -0.445162
 C17     -C22     -C21     -H26     : 179.900230
 C18     -C17     -C22     -C21     :  -0.306337
 C18     -C17     -C22     -H27     : 179.266774
 C18     -C19     -C20     -C21     :   0.373812
 C19     -C18     -C17     -C22     :   1.092676
 C19     -C18     -C17     -F10     :-178.925955
 C19     -C20     -C21     -C22     :   0.407513
 C19     -C20     -C21     -H26     :-179.942231
 C20     -Pd2     -P1      -C7      :  65.817177
 C20     -Pd2     -P1      -C10     : -57.066798
 C20     -Pd2     -P1      -C14     :-177.668702
 C20     -Pd2     -N2      -H15     : 100.474775
 C20     -Pd2     -N2      -C25     : -34.472612
 C20     -C19     -C18     -H24     : 179.054882
 C20     -C21     -C22     -H27     : 179.985036
 C21     -C20     -C19     -H25     : 175.849042
 C21     -C22     -C17     -F10     : 179.712107
 C22     -C17     -C18     -H24     :-179.100024
 F10     -C17     -C18     -H24     :   0.881345
 F10     -C17     -C22     -H27     :  -0.714783
 H24     -C18     -C19     -H25     :   3.485343
 H26     -C21     -C22     -H27     :   0.330428
 H15     -N2      -C25     -C24     : -31.431191
 H15     -N2      -C25     -C26     : 148.304430
 C16     -C23     -C24     -C25     :  -0.043915
 C16     -C23     -C24     -H28     :-179.816414
 C16     -C27     -C26     -C25     :   0.000443
 C16     -C27     -C26     -H29     :-179.737325
 C23     -C16     -C27     -C26     :  -0.052358
 C23     -C16     -C27     -H30     :-179.979828
 C23     -C24     -C25     -C26     :  -0.008011
 C24     -C23     -C16     -C27     :   0.074023
 C24     -C23     -C16     -H22     : 179.984042
 C24     -C25     -C26     -C27     :   0.029708
 C24     -C25     -C26     -H29     : 179.769156
 C25     -C24     -C23     -H23     : 179.968957
 C25     -C26     -C27     -H30     : 179.928041
 C26     -C25     -C24     -H28     : 179.765621
 C26     -C27     -C16     -H22     :-179.962318
 C27     -C16     -C23     -H23     :-179.938850
 H22     -C16     -C23     -H23     :  -0.028830
 H22     -C16     -C27     -H30     :   0.110213
 H23     -C23     -C24     -H28     :   0.196458
 H29     -C26     -C27     -H30     :   0.190273
 C6      -C7      -P1      -C10     : -63.473047
 C6      -C7      -P1      -C14     :  53.847177
 C6      -C7      -C8      -H32     : 171.249678
 C6      -C7      -C8      -H33     :  52.546703
 C6      -C7      -C8      -H34     : -66.661074
 C6      -C7      -C9      -H35     :  70.298843
 C6      -C7      -C9      -H36     : -50.212101
 C6      -C7      -C9      -H37     :-169.339929
 C7      -P1      -C10     -C11     : -88.673573
 C7      -P1      -C10     -C12     : 153.007042
 C7      -P1      -C10     -C13     :  30.701812
[...]
    C7       X     0.00001   0.00001   0.00002  -0.00001  -0.00001  -0.00000
    C7       Y    -0.00001   0.00001   0.00003   0.00002   0.00002  -0.00002
    C7       Z     0.00001   0.00001   0.00001  -0.00000   0.00000  -0.00003
    C8       X    -0.00017  -0.00011  -0.00015  -0.00001   0.00002  -0.00001
    C8       Y     0.00176   0.00007   0.00054   0.00000  -0.00000  -0.00000
    C8       Z     0.00165   0.00018   0.00074  -0.00001  -0.00004  -0.00001
    C9       X     0.00001   0.00002  -0.00022  -0.00001  -0.00001  -0.00001
    C9       Y     0.00002  -0.00001   0.00035  -0.00001  -0.00001  -0.00000
    C9       Z     0.00017   0.00004   0.00100   0.00002   0.00000  -0.00000
    C10      X    -0.00000  -0.00000  -0.00001   0.00001   0.00000   0.00000
    C10      Y    -0.00001   0.00001  -0.00000   0.00001   0.00001  -0.00001
    C10      Z     0.00000  -0.00001   0.00001   0.00002   0.00001  -0.00000
    C11      X    -0.00015   0.00025  -0.00014  -0.00004  -0.00003   0.00000
    C11      Y    -0.00002   0.00002  -0.00001  -0.00002  -0.00001  -0.00000
    C11      Z     0.00024  -0.00041   0.00021   0.00006   0.00002   0.00000
    C12      X     0.00000   0.00002  -0.00000   0.00002   0.00001  -0.00000
    C12      Y     0.00003  -0.00023  -0.00000  -0.00002  -0.00013   0.00000
    C12      Z     0.00008  -0.00052  -0.00001   0.00001  -0.00009   0.00000
    C13      X    -0.00000   0.00001   0.00004   0.00001  -0.00001  -0.00000
    C13      Y    -0.00001  -0.00001   0.00001  -0.00003  -0.00001   0.00000
    C13      Z    -0.00000   0.00000  -0.00001   0.00001   0.00001   0.00000
    C14      X    -0.00000  -0.00004  -0.00001   0.00004  -0.00000  -0.00001
    C14      Y    -0.00001   0.00005  -0.00000   0.00018  -0.00003  -0.00001
    C14      Z     0.00002  -0.00004   0.00001   0.00004  -0.00009   0.00003
    C15      X    -0.00002   0.00016   0.00001   0.00004  -0.00004   0.00000
    C15      Y     0.00003  -0.00014  -0.00000  -0.00009   0.00015  -0.00001
    C15      Z    -0.00001   0.00011  -0.00002  -0.00008   0.00001  -0.00001
    C37      X     0.00001  -0.00001   0.00001   0.00011  -0.00004   0.00000
    C37      Y     0.00000   0.00002  -0.00000   0.00045   0.00008   0.00001
    C37      Z    -0.00001  -0.00002  -0.00000  -0.00002   0.00004  -0.00000
    C38      X     0.00027  -0.00184   0.00002  -0.00010   0.00012  -0.00002
    C38      Y    -0.00025   0.00103   0.00005   0.00005  -0.00035  -0.00002
    C38      Z     0.00008  -0.00018  -0.00001  -0.00002   0.00125  -0.00000
    C39      X    -0.00411   0.02141   0.00014   0.00075  -0.02312  -0.00001
    C39      Y     0.00185  -0.01103  -0.00007  -0.00039   0.01165   0.00009
    C39      Z     0.00103  -0.00684   0.00001  -0.00019   0.00819   0.00004
    C40      X    -0.00207   0.01832  -0.00012   0.00056  -0.03496  -0.00000
    C40      Y     0.00130  -0.01319   0.00009  -0.00039   0.02402  -0.00001
    C40      Z    -0.00294   0.02821  -0.00018   0.00080  -0.04612   0.00005
    C41      X    -0.00019   0.00614   0.00003  -0.00010   0.01660   0.00000
    C41      Y    -0.00029   0.00137   0.00000   0.00003  -0.00114  -0.00005
    C41      Z     0.00191  -0.02647  -0.00009   0.00006  -0.04278  -0.00006
    C42      X    -0.00556   0.04639  -0.00002   0.00049   0.02198   0.00003
    C42      Y     0.00252  -0.02085   0.00000  -0.00022  -0.01022  -0.00003
    C42      Z     0.00135  -0.01082   0.00000  -0.00014  -0.00327   0.00006
    C43      X    -0.00302   0.02235  -0.00010   0.00037   0.00642  -0.00001
    C43      Y     0.00193  -0.01400   0.00005  -0.00024  -0.00413  -0.00001
    C43      Z    -0.00446   0.03319  -0.00008   0.00053   0.01006  -0.00008
    C44      X     0.00003  -0.00011  -0.00001  -0.00010   0.00002  -0.00000
    C44      Y    -0.00000  -0.00001  -0.00002  -0.00159  -0.00001   0.00000
    C44      Z    -0.00001   0.00004   0.00001  -0.00003  -0.00005   0.00000
    C45      X    -0.00034   0.00133   0.00030   0.02067   0.00012   0.00000
    C45      Y     0.00022  -0.00085  -0.00021  -0.01502  -0.00013  -0.00000
    C45      Z     0.00025  -0.00098  -0.00022  -0.01495  -0.00009  -0.00000
    C46      X    -0.00009   0.00021   0.00037   0.03240   0.00041  -0.00000
    C46      Y    -0.00010   0.00030   0.00026   0.02225   0.00028  -0.00000
    C46      Z     0.00005  -0.00011  -0.00021  -0.01844  -0.00023   0.00000
    C47      X     0.00002  -0.00010  -0.00000   0.00015  -0.00000  -0.00000
    C47      Y     0.00029  -0.00126   0.00048   0.04845   0.00045  -0.00000
    C47      Z     0.00001  -0.00004   0.00004   0.00393   0.00004   0.00000
    C48      X    -0.00035   0.00143  -0.00026  -0.03112  -0.00027   0.00000
    C48      Y     0.00022  -0.00091   0.00015   0.01811   0.00015   0.00000
    C48      Z     0.00023  -0.00094   0.00017   0.02040   0.00018   0.00000
    C28      X    -0.00032   0.00125  -0.00013  -0.01936  -0.00014   0.00000
    C28      Y    -0.00025   0.00101  -0.00011  -0.01556  -0.00013   0.00000
    C28      Z     0.00017  -0.00065   0.00007   0.01008   0.00007  -0.00000
    H50      X    -0.00037  -0.00019  -0.00002   0.00016   0.00009  -0.00001
    H50      Y     0.00030   0.00017   0.00004  -0.00002  -0.00010   0.00001
    H50      Z    -0.00077  -0.00039  -0.00007   0.00026   0.00021  -0.00001
    H51      X     0.00000   0.00009  -0.00022  -0.00040  -0.00002   0.00000
    H51      Y    -0.00007   0.00036  -0.00106  -0.00152   0.00017  -0.00004
    H51      Z    -0.00002  -0.00000  -0.00001   0.00019  -0.00001   0.00000
    H31      X    -0.00031  -0.00007  -0.00034   0.00031   0.00036   0.00004
    H31      Y    -0.00002  -0.00001   0.00004   0.00010   0.00004  -0.00003
    H31      Z     0.00008   0.00006   0.00008  -0.00006  -0.00005  -0.00004
    H32      X     0.00373   0.00037   0.00095  -0.00002  -0.00007   0.00004
    H32      Y    -0.01169  -0.00139  -0.00544   0.00003   0.00041  -0.00000
    H32      Z    -0.02248  -0.00236  -0.00988   0.00009   0.00052   0.00017
    H33      X     0.00258   0.00068   0.00119   0.00030  -0.00004  -0.00010
    H33      Y    -0.00002   0.00003   0.00011  -0.00002  -0.00002   0.00002
    H33      Z    -0.00009  -0.00010  -0.00006  -0.00004   0.00003   0.00007
    H34      X    -0.00383   0.00013  -0.00104  -0.00008  -0.00013   0.00004
    H34      Y    -0.00856   0.00061  -0.00242  -0.00001  -0.00037   0.00001
    H34      Z     0.00100   0.00017   0.00025   0.00002  -0.00010   0.00001
    H35      X    -0.00031  -0.00011  -0.00136  -0.00006  -0.00002  -0.00000
    H35      Y     0.00049   0.00022   0.00197   0.00006  -0.00001  -0.00001
    H35      Z    -0.00091  -0.00036  -0.00437  -0.00012  -0.00001   0.00005
    H36      X    -0.00031  -0.00019  -0.00016   0.00030   0.00025   0.00001
    H36      Y    -0.00001   0.00001   0.00017   0.00004   0.00003  -0.00000
    H36      Z     0.00009   0.00002   0.00050  -0.00001  -0.00001   0.00002
    H37      X     0.00049   0.00010   0.00395   0.00002  -0.00003   0.00003
    H37      Y    -0.00089  -0.00016  -0.00637  -0.00005   0.00001   0.00002
    H37      Z    -0.00116  -0.00020  -0.00785  -0.00010   0.00003  -0.00003
    H38      X     0.00134  -0.00213   0.00126   0.00045   0.00033   0.00002
    H38      Y     0.00039  -0.00064   0.00033   0.00012   0.00010   0.00001
    H38      Z    -0.00014   0.00023  -0.00019  -0.00004  -0.00003  -0.00003
    H39      X     0.00062  -0.00108   0.00043   0.00016   0.00005  -0.00004
    H39      Y    -0.00035   0.00058  -0.00028  -0.00010  -0.00004  -0.00005
    H39      Z    -0.00272   0.00462  -0.00249  -0.00066  -0.00021   0.00004
    H40      X    -0.00022   0.00025  -0.00009  -0.00022  -0.00009   0.00001
    H40      Y     0.00019  -0.00019   0.00004   0.00028   0.00011   0.00000
    H40      Z    -0.00013   0.00013   0.00006  -0.00019  -0.00007   0.00001
    H41      X     0.00022  -0.00140  -0.00005   0.00002  -0.00026   0.00001
    H41      Y    -0.00001  -0.00002   0.00000  -0.00003  -0.00015   0.00002
    H41      Z    -0.00085   0.00558   0.00004  -0.00002   0.00102   0.00004
    H42      X    -0.00009   0.00056   0.00000   0.00006   0.00031  -0.00001
    H42      Y    -0.00039   0.00247   0.00003   0.00000   0.00119  -0.00002
    H42      Z    -0.00013   0.00090   0.00002   0.00004   0.00050  -0.00003
    H43      X    -0.00013   0.00038   0.00001  -0.00023  -0.00015  -0.00000
    H43      Y     0.00015  -0.00046  -0.00003   0.00029   0.00024  -0.00002
    H43      Z    -0.00011   0.00030   0.00003  -0.00021  -0.00020   0.00001
    H44      X     0.00005  -0.00014  -0.00044   0.00008   0.00018   0.00001
    H44      Y    -0.00000  -0.00005  -0.00014   0.00001   0.00006   0.00000
    H44      Z    -0.00001   0.00004   0.00010  -0.00000  -0.00003  -0.00000
    H45      X    -0.00002  -0.00005  -0.00007  -0.00022  -0.00009   0.00001
    H45      Y     0.00001   0.00006   0.00004   0.00024   0.00009  -0.00002
    H45      Z    -0.00003  -0.00003  -0.00002  -0.00019  -0.00006   0.00000
    H46      X     0.00001   0.00002  -0.00000   0.00003  -0.00000  -0.00000
    H46      Y     0.00008   0.00012   0.00001   0.00008  -0.00001  -0.00000
    H46      Z     0.00003   0.00007   0.00001   0.00007   0.00003  -0.00001
    H47      X     0.00001   0.00007  -0.00000  -0.00133  -0.00015   0.00002
    H47      Y     0.00004  -0.00004  -0.00001  -0.00526  -0.00068   0.00003
    H47      Z     0.00003   0.00003  -0.00000  -0.00003   0.00001   0.00005
    H48      X    -0.00004  -0.00020  -0.00008  -0.00026   0.00072  -0.00003
    H48      Y    -0.00001  -0.00007  -0.00002   0.00009   0.00013  -0.00001
    H48      Z     0.00002   0.00021   0.00009   0.00007  -0.00073   0.00003
    H49      X    -0.00000   0.00007  -0.00001   0.00036   0.00002   0.00002
    H49      Y    -0.00000  -0.00003   0.00001  -0.00023  -0.00011  -0.00001
    H49      Z     0.00001  -0.00009   0.00000  -0.00006  -0.00009   0.00002
    H71      X     0.04271  -0.24081  -0.00145  -0.00834   0.25157   0.00008
    H71      Y    -0.02353   0.12586   0.00081   0.00433  -0.13141  -0.00010
    H71      Z    -0.01093   0.06000   0.00033   0.00198  -0.06402  -0.00002
    H72      X     0.02334  -0.22509   0.00142  -0.00642   0.38515  -0.00023
    H72      Y    -0.01532   0.15469  -0.00099   0.00444  -0.26317   0.00018
    H72      Z     0.03109  -0.30581   0.00190  -0.00867   0.51324  -0.00035
    H52      X     0.00662  -0.09805  -0.00039   0.00037  -0.17105  -0.00023
    H52      Y    -0.00002   0.00139  -0.00000  -0.00004   0.00721  -0.00014
    H52      Z    -0.01996   0.28414   0.00104  -0.00075   0.46938   0.00050
    H53      X     0.06136  -0.51277   0.00020  -0.00546  -0.23387  -0.00042
    H53      Y    -0.02786   0.23306  -0.00010   0.00248   0.10667   0.00014
    H53      Z    -0.01380   0.11411  -0.00006   0.00127   0.04949   0.00003
    H54      X     0.03612  -0.26621   0.00084  -0.00422  -0.07615   0.00011
    H54      Y    -0.02176   0.16039  -0.00051   0.00254   0.04604  -0.00011
    H54      Z     0.04847  -0.35756   0.00109  -0.00566  -0.10324   0.00022
    H55      X     0.00389  -0.01489  -0.00340  -0.23360  -0.00144  -0.00005
    H55      Y    -0.00248   0.00950   0.00217   0.15152   0.00122   0.00002
    H55      Z    -0.00282   0.01097   0.00243   0.16809   0.00121   0.00002
    H56      X     0.00113  -0.00288  -0.00404  -0.35029  -0.00447   0.00002
    H56      Y     0.00086  -0.00229  -0.00289  -0.24963  -0.00319   0.00001
    H56      Z    -0.00064   0.00164   0.00229   0.19888   0.00249  -0.00001
    H57      X    -0.00004   0.00015  -0.00001  -0.00175  -0.00001  -0.00000
    H57      Y    -0.00325   0.01395  -0.00521  -0.52892  -0.00506   0.00002
    H57      Z    -0.00024   0.00105  -0.00042  -0.04247  -0.00043   0.00000
    H58      X     0.00384  -0.01583   0.00278   0.33524   0.00288  -0.00002
    H58      Y    -0.00238   0.00983  -0.00170  -0.20617  -0.00179   0.00002
    H58      Z    -0.00252   0.01041  -0.00183  -0.22001  -0.00190   0.00002
    H59      X     0.00371  -0.01454   0.00149   0.21876   0.00151  -0.00001
    H59      Y     0.00268  -0.01052   0.00109   0.15897   0.00114  -0.00002
    H59      Z    -0.00196   0.00772  -0.00079  -0.11577  -0.00083   0.00001
  
  Number of imaginary frequencies:   0
   
  Writing vibrational animation data to red_elim_Ar_trans_L1_PL747_2.vib
  Writing IR vibrational spectrum data to red_elim_Ar_trans_L1_PL747_2_vib.spm
  rotational symmetry number:  1

  rotational temperatures (K):      0.006053      0.003584      0.002812
   
  The Quasi-Harmonic approximation will be applied to compute
  vibrational constributions to thermodynamic properties.
  Frequencies will be adjusted to a minimum value of  100.00 cm^-1.

  vibrational temperatures:
       mode:      1        2        3        4        5        6
  temp. (K):   143.88   143.88   143.88   143.88   143.88   143.88
   
       mode:      7        8        9       10       11       12
  temp. (K):   143.88   143.88   143.88   143.88   143.88   144.48
   
       mode:     13       14       15       16       17       18
  temp. (K):   157.17   167.55   178.40   187.54   194.80   210.95
   
       mode:     19       20       21       22       23       24
  temp. (K):   211.97   224.74   239.54   260.20   264.90   280.38
   
       mode:     25       26       27       28       29       30
  temp. (K):   294.65   313.82   323.62   325.64   344.49   361.33
   
       mode:     31       32       33       34       35       36
  temp. (K):   366.35   368.08   375.64   402.27   407.18   418.73
   
       mode:     37       38       39       40       41       42
  temp. (K):   435.87   446.07   449.42   454.32   481.27   490.39
   
       mode:     43       44       45       46       47       48
  temp. (K):   500.04   531.67   536.93   561.40   582.29   584.93
   
       mode:     49       50       51       52       53       54
  temp. (K):   589.29   595.77   597.79   604.87   609.10   616.46
   
       mode:     55       56       57       58       59       60
  temp. (K):   618.69   671.76   684.74   706.33   717.95   744.97
   
       mode:     61       62       63       64       65       66
  temp. (K):   757.54   790.78   794.45   830.86   849.34   858.29
   
       mode:     67       68       69       70       71       72
  temp. (K):   889.04   896.54   902.94   912.91   914.77   917.79
   
       mode:     73       74       75       76       77       78
  temp. (K):   954.56   995.21  1019.83  1027.55  1031.67  1042.64
   
       mode:     79       80       81       82       83       84
  temp. (K):  1090.61  1099.92  1115.52  1117.24  1154.95  1189.04
   
       mode:     85       86       87       88       89       90
  temp. (K):  1194.72  1198.52  1201.99  1205.97  1207.66  1231.27
   
       mode:     91       92       93       94       95       96
  temp. (K):  1242.94  1255.67  1275.55  1333.60  1357.06  1361.86
   
       mode:     97       98       99      100      101      102
  temp. (K):  1373.30  1377.00  1378.74  1380.66  1383.47  1392.05
   
       mode:    103      104      105      106      107      108
  temp. (K):  1403.88  1406.20  1415.58  1422.25  1424.75  1442.04
   
       mode:    109      110      111      112      113      114
  temp. (K):  1446.91  1453.97  1461.23  1463.42  1467.84  1471.36
   
       mode:    115      116      117      118      119      120
  temp. (K):  1479.57  1500.76  1512.12  1517.76  1519.78  1526.72
   
       mode:    121      122      123      124      125      126
  temp. (K):  1527.09  1529.73  1537.26  1553.11  1603.30  1611.26
   
       mode:    127      128      129      130      131      132
  temp. (K):  1617.57  1621.23  1665.75  1720.97  1725.82  1734.38
   
       mode:    133      134      135      136      137      138
  temp. (K):  1736.21  1738.07  1748.71  1749.76  1756.36  1759.17
   
       mode:    139      140      141      142      143      144
  temp. (K):  1765.07  1773.34  1784.35  1794.69  1799.37  1807.49
   
       mode:    145      146      147      148      149      150
  temp. (K):  1839.08  1878.62  1902.90  1925.25  1929.18  1930.09
   
       mode:    151      152      153      154      155      156
  temp. (K):  1944.94  1984.41  1985.99  1997.99  2019.99  2043.13
   
       mode:    157      158      159      160      161      162
  temp. (K):  2049.94  2053.41  2054.47  2055.45  2070.24  2092.61
   
       mode:    163      164      165      166      167      168
  temp. (K):  2106.96  2138.11  2145.70  2158.47  2159.57  2164.99
   
       mode:    169      170      171      172      173      174
  temp. (K):  2170.92  2175.33  2180.06  2181.08  2183.00  2193.91
   
       mode:    175      176      177      178      179      180
  temp. (K):  2196.35  2199.13  2201.49  2209.15  2214.52  2216.63
   
       mode:    181      182      183      184      185      186
  temp. (K):  2218.15  2218.74  2231.65  2238.90  2338.43  2348.61
   
       mode:    187      188      189      190      191      192
  temp. (K):  2361.75  2363.29  2376.16  2378.22  2384.69  2397.37
   
       mode:    193      194      195      196      197      198
  temp. (K):  2403.28  4372.56  4379.25  4380.62  4385.88  4387.88
   
       mode:    199      200      201      202      203      204
  temp. (K):  4395.21  4416.48  4477.21  4480.20  4486.96  4488.89
   
       mode:    205      206      207      208      209      210
  temp. (K):  4497.29  4517.30  4521.61  4529.06  4536.19  4544.32
   
       mode:    211      212      213      214      215      216
  temp. (K):  4547.37  4550.11  4559.27  4567.88  4571.00  4576.32
   
       mode:    217      218      219      220      221      222
  temp. (K):  4584.06  4587.83  4589.33  4595.10  4599.45  4602.72
   
       mode:    223      224      225      226      227      228
  temp. (K):  4605.94  4607.47  4610.36  4614.17  4616.52  4617.51
   
       mode:    229      230      231      232      233      234
  temp. (K):  4620.29  4621.87  4626.50  4627.78  4637.12  5045.57
   
   
  Thermodynamic properties calculated assuming an ideal gas

  In the table below, the units for temperature
  are kelvins, the units for U, H, and G are
  kcal/mol and the units for Cv and S are cal/(mol K)

  The zero point energy (ZPE):    424.976 kcal/mol
  is not included in U, H, or G in the table below
  
 
  =============================================================================
  Thermodynamic properties for P = 1.00E+00 atm, calculated at   1 temperatures


  T =   298.15 K, P = 1.00E+00 atm
   
                  U         Cv          S          H          G        ln(Q)
              =========  =========  =========  =========  =========  =========
  trans.          0.889      2.981     45.210      1.481    -11.998   20.25056
  rot.            0.889      2.981     37.608      0.889    -10.324   17.42493
  vib.           22.228    148.924    133.326     22.228    -17.523   29.57514
  elec.           0.000      0.000      0.000      0.000      0.000    0.00000
  ----------------------------------------------------------------------------
  total          24.006    154.886    216.144     24.598    -39.845   67.25063
   
   Total internal energy, Utot(SCFE + ZPE + U):   -1979.942395 hartrees
   Total enthalpy, Htot (Utot + nRT), with n=1:   -1979.941451 hartrees
    Total Gibbs free energy, Gtot (Htot - T*S):   -1980.044147 hartrees
   
  end of program freq
   
 Time(freq)  user:       0.402  user+sys:       0.402  wallclock:       0.574
  
  start of program post
  
  Writing input files for PBF
  end of program post
   
 Time(post)  user:       0.182  user+sys:       0.182  wallclock:       0.151

 Total cpu seconds     user:  102197.311   user+sys:  102197.311
  
 Total elapsed time:    58441 seconds

Job red_elim_Ar_trans_L1_PL747_2 completed on bp1-compute081.data.bp.acrc.priv at Fri Apr 25 06:39:52 2025
