Job red_elim_TS_L1_PL747_3 started on bp1-compute059.data.bp.acrc.priv at Thu Apr 10 14:11:07 2025
jobid: bp1-compute059-0-67f7c359

  +--------------------------------------------------------------------+
  |  Jaguar version 12.5, release 138                                  |
  |                                                                    |
  |  Copyright Schrodinger, Inc.                                       |
  |  All Rights Reserved.                                              |
  |                                                                    |
  |  The following have contributed to Jaguar (listed alphabetically): |
  |  Ty Balduf, Mike Beachy, Chandler Bennett, Art Bochevarov,         |
  |  Dale Braden, Yixiang Cao, Alan Chien, Chris Cortis,               |
  |  Rich Friesner, Jim Furness, Bill Goddard, Hod Greeley,            |
  |  Tom Hughes, Leif Jacobson, Jean-Marc Langlois, Daniel Levine,     |
  |  Rob Murphy, Dean Philipp, Tom Pollard, Murco Ringnalda,           |
  |  Daniel Mainz, Pablo Videla, Mark Watson, Haoyu Yu.                |
  |                                                                    |
  |  Use of this program should be acknowledged in publications as:    |
  |                                                                    |
  |  Jaguar, version 12.5, Schrodinger, Inc., New York, NY, 2024.      |
  |                                                                    |
  |  A. D. Bochevarov, E. Harder, T. F. Hughes, J. R. Greenwood,       |
  |  D. A. Braden, D. M. Philipp, D. Rinaldo, M. D. Halls,             |
  |  J. Zhang, R. A. Friesner, "Jaguar: A High-Performance Quantum     |
  |  Chemistry Software Program with Strengths in Life and Materials   |
  |  Sciences", Int. J. Quantum Chem., 2013, 113(18), 2110-2142.       |
  +--------------------------------------------------------------------+
  
  start of program pre
  
  Job name: red_elim_TS_L1_PL747_3
  Executables used: /software/local/apps/schrodinger2024-3/jaguar-v12.5/bin/Linux-x86_64
  Temporary files : /tmp/ar21627/red_elim_TS_L1_PL747_3#bp1-compute059-0-67f7c359
  Basis file : using default basis file from /software/local/apps/schrodinger2024-3
  Maestro file (input):  red_elim_TS_L1_PL747_3.mae
  Maestro file (output): red_elim_TS_L1_PL747_3.01.mae
  
 Contents of input file: &gen and (if present) &atomic sections only
 ----------------Contents start----------------
&gen
dftname=b3pw91-d3
basis=6-31G*
numd=5
ip11=2
iaccg=3
isolv=2
igeopt=2
solvent=benzene
ifreq=1
&
&atomic
atom basis
Pd2 lacv3p*
&
 -----------------Contents end-----------------
 
  PS calculation requested. Using PS version of 6-31g*
  basis set:               non_standard                    
  net molecular charge:    0
  multiplicity:            1
  
  Using up to   4 threads per process
  
  This run will use ECP on 1 atom
  number of basis functions....          649
  
 Input geometry:
                                   angstroms
  atom               x                 y                 z
  P1            0.0000000000      0.0000000000      0.0000000000 
  Pd2           0.0000000000      0.0000000000      2.2771142511 
  N2            0.3514866680      0.3370635960      4.2567560518 
  C16           3.5615078862      3.1348638839      2.9789194635 
  C17           3.8024245565      1.7583273601      3.0126747929 
  C18           2.7601984696      0.8308722070      3.0509340949 
  C19           1.4231799531      1.2589491970      3.0461273258 
  C20           1.1717815694      2.6424760839      3.0228057649 
  C21           2.2246686123      3.5538425418      2.9838869298 
  F10           4.5562348361      4.0213150161      2.9387736627 
  H23           4.8300827867      1.3943457193      3.0081425236 
  H24           2.9967689169     -0.2294099080      3.0718998975 
  H25           0.1503050901      3.0130353745      3.0218715726 
  H26           1.9978209653      4.6201215799      2.9573892758 
  H18           1.0779044629     -0.2271673092      4.8600475840 
  C22          -1.4885541954      3.4494233600      6.5114605407 
  C23          -1.7594645406      3.3219097113      5.1391624301 
  C24          -1.1529566976      2.2960245559      4.3959746111 
  C25          -0.2755385094      1.3976530492      5.0250849027 
  C26          -0.0045849810      1.5250936551      6.3973300985 
  C27          -0.6111360072      2.5510518533      7.1405708322 
  H22          -1.9650374663      4.2553768526      7.0953220142 
  H27          -2.4488279569      4.0277799413      4.6450168052 
  H28          -1.3657936753      2.1958682383      3.3179146021 
  H29           0.6846880639      0.8193281691      6.8914463685 
  H30          -0.3982990450      2.6512081586      8.2186308454 
  C6            2.4711615246      0.0807276150     -1.6428024141 
  C7            1.8417756257      0.2769820460     -0.2399989394 
  C8            2.6676928592     -0.6730593661      0.6722959902 
  C9            2.2165556191      1.7023487694      0.2038598898 
  C10          -1.0442422168      1.0525620250     -1.2245682407 
  C11          -1.4860189141      2.4068635562     -0.6186336630 
  C12          -2.3367912708      0.3331721453     -1.7052096288 
  C13          -0.3250889897      1.4259492335     -2.5340722034 
  C14          -0.6347117209     -1.6922415293     -0.3828062666 
  C15          -1.3841519880     -2.5222254848      0.4041161690 
  C37          -0.2938166751     -2.0585557246     -1.8067197044 
  C38          -1.9664567853     -2.1360512081      1.7378026206 
  C39          -1.7448746467     -2.9208735046      2.8987527998 
  C40          -2.2356582237     -2.6046160509      4.1730717173 
  C41          -2.9869896940     -1.4390884095      4.3764023325 
  C42          -3.2133245631     -0.6143551212      3.2728500999 
  C43          -2.7044111001     -0.9703342012      2.0091848033 
  C44          -1.6426161025     -3.9272638899     -0.0512511351 
  C45          -2.8344958419     -4.6058949971      0.3091368604 
  C46          -3.1442851443     -5.9150376473     -0.0996823042 
  C47          -2.2478147830     -6.6309924113     -0.9038276065 
  C48          -1.0541157551     -6.0032436614     -1.2871214072 
  C28          -0.7815727375     -4.6909478180     -0.8683136673 
  H50           2.0641924527      0.7408474721     -2.4260140769 
  H51           2.4046575006     -0.9705909735     -2.0117284774 
  H31           3.5616087846      0.3032108795     -1.6377063314 
  H32           2.4702647742     -0.5011103316      1.7474614104 
  H33           3.7592541491     -0.5262640124      0.5448398224 
  H34           2.4546277564     -1.7356734747      0.4270318101 
  H35           1.6678651693      2.4854219762     -0.3618070999 
  H36           3.2969233760      1.9136939808      0.0734002740 
  H37           2.0139451784      1.8632859064      1.2870802031 
  H38          -0.6157427779      3.0122505336     -0.2973626647 
  H39          -2.1831377681      2.2877233763      0.2375526023 
  H40          -2.0479247989      3.0245050227     -1.3585909559 
  H41          -3.0368992754      0.0578162296     -0.8875143619 
  H42          -2.1139318149     -0.5972890217     -2.2671034618 
  H43          -2.9294144919      0.9726865205     -2.3898585036 
  H44           0.5506695379      2.0950297279     -2.3609297955 
  H45          -0.9761293915      2.0030120040     -3.2222182302 
  H46          -0.0026444036      0.5379374497     -3.1141278566 
  H47          -1.0073083385     -2.7644526887     -2.2844739532 
  H48           0.7565172582     -2.4248098375     -1.8972324291 
  H49          -0.3871082816     -1.1749765931     -2.4761706694 
  H71          -1.1131704220     -3.8157359395      2.8805320659 
  H72          -2.0172289721     -3.2595778918      5.0313482747 
  H52          -3.3770477515     -1.1768191261      5.3733845463 
  H53          -3.7902846033      0.3163970334      3.3906700421 
  H54          -2.9426729314     -0.2621075359      1.2214314851 
  H55          -3.6222381039     -4.1011217141      0.8924612568 
  H56          -4.0938708034     -6.3861926119      0.2129853716 
  H57          -2.4699632492     -7.6584043959     -1.2206472286 
  H58          -0.3345425363     -6.5532772690     -1.9172621956 
  H59           0.2018292781     -4.3095191646     -1.1891448661 
   
  principal moments of inertia:
        amu*angstrom^2:              3969.36651              7286.37135              9091.28766
                g*cm^2:          6.59128734E-37          1.20993028E-36          1.50964364E-36
   
  rotational constants:
               cm^(-1):      0.00424693      0.00231358      0.00185426
                   GHz:      0.12731981      0.06935949      0.05558938
   
  Molecular weight:     631.20 amu
   
  Stoichiometry: PdC35PNH41F
  Molecular Point Group: C1      
  Point Group used: C1
  
 
Number of optimization coordinates:   270
Number of independent coordinates:    270
Number of non-redundant coordinates:  234
Number of frozen coordinates:           0
Number of harmonic constraints:         0
 
Number of geometric degrees of freedom:   234
Maximum geometric degrees of freedom:     234
 " " " " " excluding dummy atoms:         234
 
 
  bond lengths (angstroms):
 
 P1      -Pd2     :   2.277114      P1      -C7      :   1.877886
 P1      -C10     :   1.922991      P1      -C14     :   1.847453
 Pd2     -N2      :   2.038660      Pd2     -C19     :   2.049823
 N2      -H18     :   1.100000      N2      -C25     :   1.452012
 C16     -C17     :   1.397867      C16     -C21     :   1.400966
 C16     -F10     :   1.333000      C17     -C18     :   1.395662
 C17     -H23     :   1.090222      C18     -C19     :   1.403884
 C18     -H24     :   1.086556      C19     -C20     :   1.406375
 C20     -C21     :   1.393081      C20     -H25     :   1.086614
 C21     -H26     :   1.090465      C22     -C23     :   1.404583
 C22     -C27     :   1.404533      C22     -H22     :   1.103400
 C23     -C24     :   1.404500      C23     -H27     :   1.103474
 C24     -C25     :   1.404533      C24     -H28     :   1.103424
 C25     -C26     :   1.404533      C26     -C27     :   1.404600
 C26     -H29     :   1.103337      C27     -H30     :   1.103424
 C6      -C7      :   1.550000      C6      -H50     :   1.102181
 C6      -H51     :   1.116154      C6      -H31     :   1.112924
 C7      -C8      :   1.554670      C7      -C9      :   1.539201
 C8      -H32     :   1.106583      C8      -H33     :   1.108738
 C8      -H34     :   1.111171      C9      -H35     :   1.110965
 C9      -H36     :   1.108549      C9      -H37     :   1.113696
 C10     -C11     :   1.548049      C10     -C12     :   1.555385
 C10     -C13     :   1.539935      C11     -H38     :   1.107740
 C11     -H39     :   1.110506      C11     -H40     :   1.115686
 C12     -H41     :   1.111124      C12     -H42     :   1.109572
 C12     -H43     :   1.108569      C13     -H44     :   1.115616
 C13     -H45     :   1.109234      C13     -H46     :   1.108603
 C14     -C15     :   1.367399      C14     -C37     :   1.509280
 C15     -C38     :   1.505632      C15     -C44     :   1.499432
 C37     -H47     :   1.111580      C37     -H48     :   1.116036
 C37     -H49     :   1.112466      C38     -C39     :   1.418749
 C38     -C43     :   1.406101      C39     -C40     :   1.401705
 C39     -H71     :   1.095519      C40     -C41     :   1.401534
 C40     -H72     :   1.101510      C41     -C42     :   1.396152
 C41     -H52     :   1.102227      C42     -C43     :   1.408036
 C42     -H53     :   1.101392      C43     -H54     :   1.085776
 C44     -C45     :   1.418096      C44     -C28     :   1.411453
 C45     -C46     :   1.406043      C45     -H55     :   1.102543
 C46     -C47     :   1.401035      C46     -H56     :   1.105197
 C47     -C48     :   1.402106      C47     -H57     :   1.097862
 C48     -C28     :   1.404208      C48     -H58     :   1.103359
 C28     -H59     :   1.102497
 
  bond angles:
 
 C7      -P1      -Pd2     :  97.342638  C10     -P1      -Pd2     : 129.553898
 C10     -P1      -C7      : 111.744572  C14     -P1      -Pd2     : 101.958762
 C14     -P1      -C7      : 116.460285  C14     -P1      -C10     : 100.536212
 N2      -Pd2     -P1      : 166.179838  C19     -Pd2     -P1      : 112.034244
 C19     -Pd2     -N2      :  54.158247  H18     -N2      -Pd2     : 124.167840
 C25     -N2      -Pd2     : 124.065642  C25     -N2      -H18     : 111.692617
 C21     -C16     -C17     : 117.314332  F10     -C16     -C17     : 121.801242
 F10     -C16     -C21     : 120.884022  C18     -C17     -C16     : 121.759000
 H23     -C17     -C16     : 119.414265  H23     -C17     -C18     : 118.826706
 C19     -C18     -C17     : 120.561964  H24     -C18     -C17     : 119.104155
 H24     -C18     -C19     : 120.329433  C18     -C19     -Pd2     : 118.374570
 C20     -C19     -Pd2     : 118.285530  C20     -C19     -C18     : 118.051717
 C21     -C20     -C19     : 120.593282  H25     -C20     -C19     : 120.234262
 H25     -C20     -C21     : 119.167684  C20     -C21     -C16     : 121.712047
 H26     -C21     -C16     : 119.396539  H26     -C21     -C20     : 118.891399
 C27     -C22     -C23     : 120.002746  H22     -C22     -C23     : 120.000393
 H22     -C22     -C27     : 119.996860  C24     -C23     -C22     : 120.000393
 H27     -C23     -C22     : 119.995826  H27     -C23     -C24     : 120.003781
 C25     -C24     -C23     : 119.996860  H28     -C24     -C23     : 119.999284
 H28     -C24     -C25     : 120.003855  C24     -C25     -N2      : 119.996860
 C26     -C25     -N2      : 119.996860  C26     -C25     -C24     : 120.006279
 C27     -C26     -C25     : 119.996860  H29     -C26     -C25     : 120.001259
 H29     -C26     -C27     : 120.001881  C26     -C27     -C22     : 119.996860
 H30     -C27     -C22     : 120.003855  H30     -C27     -C26     : 119.999284
 H50     -C6      -C7      : 114.667671  H51     -C6      -C7      : 113.216762
 H51     -C6      -H50     : 107.893773  H31     -C6      -C7      : 111.616907
 H31     -C6      -H50     : 104.199965  H31     -C6      -H51     : 104.370416
 C6      -C7      -P1      : 119.685427  C8      -C7      -P1      : 110.848869
 C8      -C7      -C6      : 103.768090  C9      -C7      -P1      : 109.788049
 C9      -C7      -C6      : 106.222348  C9      -C7      -C8      : 105.505012
 H32     -C8      -C7      : 112.359211  H33     -C8      -C7      : 112.002951
 H33     -C8      -H32     : 105.472016  H34     -C8      -C7      : 110.670603
 H34     -C8      -H32     : 109.198763  H34     -C8      -H33     : 106.858970
 H35     -C9      -C7      : 112.683762  H36     -C9      -C7      : 112.328328
 H36     -C9      -H35     : 106.680106  H37     -C9      -C7      : 111.715700
 H37     -C9      -H35     : 107.669515  H37     -C9      -H36     : 105.320351
 C11     -C10     -P1      : 112.616616  C12     -C10     -P1      : 113.259062
 C12     -C10     -C11     : 106.764108  C13     -C10     -P1      : 114.874709
 C13     -C10     -C11     : 104.714106  C13     -C10     -C12     : 103.736378
 H38     -C11     -C10     : 111.557046  H39     -C11     -C10     : 112.772054
 H39     -C11     -H38     : 109.159948  H40     -C11     -C10     : 111.619353
 H40     -C11     -H38     : 106.587826  H40     -C11     -H39     : 104.748381
 H41     -C12     -C10     : 114.256512  H42     -C12     -C10     : 112.174739
 H42     -C12     -H41     : 106.942602  H43     -C12     -C10     : 111.609504
 H43     -C12     -H41     : 105.107199  H43     -C12     -H42     : 106.163418
 H44     -C13     -C10     : 112.336163  H45     -C13     -C10     : 112.308433
 H45     -C13     -H44     : 104.182669  H46     -C13     -C10     : 112.739674
 H46     -C13     -H44     : 109.468348  H46     -C13     -H45     : 105.237954
 C15     -C14     -P1      : 128.684936  C37     -C14     -P1      : 109.889446
 C37     -C14     -C15     : 121.292777  C38     -C15     -C14     : 124.475500
 C44     -C15     -C14     : 119.240168  C44     -C15     -C38     : 116.275301
 H47     -C37     -C14     : 114.496636  H48     -C37     -C14     : 111.637587
 H48     -C37     -H47     : 111.150763  H49     -C37     -C14     : 110.856140
 H49     -C37     -H47     : 101.064513  H49     -C37     -H48     : 106.904158
 C39     -C38     -C15     : 121.503772  C43     -C38     -C15     : 125.914389
 C43     -C38     -C39     : 112.497504  C40     -C39     -C38     : 124.362798
 H71     -C39     -C38     : 121.891101  H71     -C39     -C40     : 113.660382
 C41     -C40     -C39     : 120.478961  H72     -C40     -C39     : 120.316905
 H72     -C40     -C41     : 119.192149  C42     -C41     -C40     : 117.611883
 H52     -C41     -C40     : 121.252466  H52     -C41     -C42     : 121.132845
 C43     -C42     -C41     : 120.095366  H53     -C42     -C41     : 119.971301
 H53     -C42     -C43     : 119.933325  C42     -C43     -C38     : 124.924857
 H54     -C43     -C38     : 121.057891  H54     -C43     -C42     : 114.010856
 C45     -C44     -C15     : 121.072537  C28     -C44     -C15     : 125.285237
 C28     -C44     -C45     : 113.635329  C46     -C45     -C44     : 123.838833
 H55     -C45     -C44     : 121.055335  H55     -C45     -C46     : 115.004393
 C47     -C46     -C45     : 120.112978  H56     -C46     -C45     : 120.263401
 H56     -C46     -C47     : 119.623423  C48     -C47     -C46     : 118.220572
 H57     -C47     -C46     : 120.956461  H57     -C47     -C48     : 120.821812
 C28     -C48     -C47     : 120.140430  H58     -C48     -C47     : 119.219895
 H58     -C48     -C28     : 120.639506  C48     -C28     -C44     : 124.048634
 H59     -C28     -C44     : 121.695734  H59     -C28     -C48     : 114.183109
 
  torsional angles:
 
 P1      -Pd2     -N2      -H18     : -90.894794
 P1      -Pd2     -N2      -C25     :  85.716918
 P1      -Pd2     -C19     -C18     : -77.619552
 P1      -Pd2     -C19     -C20     :  76.225373
 P1      -C7      -C6      -H50     :  60.423601
 P1      -C7      -C6      -H51     : -63.971781
 P1      -C7      -C6      -H31     : 178.610880
 P1      -C7      -C8      -H32     : -61.557565
 P1      -C7      -C8      -H33     : 179.931233
 P1      -C7      -C8      -H34     :  60.802319
 P1      -C7      -C9      -H35     : -59.094664
 P1      -C7      -C9      -H36     :-179.623589
 P1      -C7      -C9      -H37     :  62.275757
 P1      -C10     -C11     -H38     :  58.116114
 P1      -C10     -C11     -H39     : -65.152471
 P1      -C10     -C11     -H40     : 177.243530
 P1      -C10     -C12     -H41     :  59.561348
 P1      -C10     -C12     -H42     : -62.364252
 P1      -C10     -C12     -H43     : 178.637193
 P1      -C10     -C13     -H44     : -64.845351
 P1      -C10     -C13     -H45     : 178.096263
 P1      -C10     -C13     -H46     :  59.410745
 P1      -C14     -C15     -C38     :   6.457709
 P1      -C14     -C15     -C44     :-172.406568
 P1      -C14     -C37     -H47     :-151.247671
 P1      -C14     -C37     -H48     :  81.355884
 P1      -C14     -C37     -H49     : -37.714256
 Pd2     -P1      -C7      -C6      : 167.664689
 Pd2     -P1      -C7      -C8      :  46.984917
 Pd2     -P1      -C7      -C9      : -69.184384
 Pd2     -P1      -C10     -C11     :  26.616122
 Pd2     -P1      -C10     -C12     : -94.660115
 Pd2     -P1      -C10     -C13     : 146.381420
 Pd2     -P1      -C14     -C15     :  22.602308
 Pd2     -P1      -C14     -C37     :-161.606813
 Pd2     -N2      -C25     -C24     :  -2.118093
 Pd2     -N2      -C25     -C26     : 177.881907
 Pd2     -C19     -C18     -C17     : 152.938170
 Pd2     -C19     -C18     -H24     : -26.287739
 Pd2     -C19     -C20     -C21     :-152.915797
 Pd2     -C19     -C20     -H25     :  26.282939
 N2      -Pd2     -P1      -C7      :  35.247461
 N2      -Pd2     -P1      -C10     : -90.972660
 N2      -Pd2     -P1      -C14     : 154.359641
 N2      -Pd2     -C19     -C18     : 103.059193
 N2      -Pd2     -C19     -C20     :-103.095882
 N2      -C25     -C24     -C23     : 179.999999
 N2      -C25     -C24     -H28     :   0.000001
 N2      -C25     -C26     -C27     : 180.000000
 N2      -C25     -C26     -H29     :   0.000001
 C16     -C17     -C18     -C19     :   0.500634
 C16     -C17     -C18     -H24     : 179.735934
 C16     -C21     -C20     -C19     :  -0.593138
 C16     -C21     -C20     -H25     :-179.800338
 C17     -C16     -C21     -C20     :   0.094014
 C17     -C16     -C21     -H26     :-179.949620
 C17     -C18     -C19     -C20     :  -0.968159
 C18     -C17     -C16     -C21     :  -0.047584
 C18     -C17     -C16     -F10     :-179.818198
 C18     -C19     -C20     -C21     :   1.014029
 C18     -C19     -C20     -H25     :-179.787235
 C19     -Pd2     -P1      -C7      :  32.943530
 C19     -Pd2     -P1      -C10     : -93.276591
 C19     -Pd2     -P1      -C14     : 152.055710
 C19     -Pd2     -N2      -H18     : -88.260041
 C19     -Pd2     -N2      -C25     :  88.351671
 C19     -C18     -C17     -H23     :-179.436968
 C19     -C20     -C21     -H26     : 179.450282
 C20     -C19     -C18     -H24     : 179.805933
 C20     -C21     -C16     -F10     : 179.866853
 C21     -C16     -C17     -H23     : 179.889660
 F10     -C16     -C17     -H23     :   0.119046
 F10     -C16     -C21     -H26     :  -0.176781
 H23     -C17     -C18     -H24     :  -0.201667
 H25     -C20     -C21     -H26     :   0.243082
 H18     -N2      -C25     -C24     : 174.865144
 H18     -N2      -C25     -C26     :  -5.134856
 C22     -C23     -C24     -C25     :   0.000000
 C22     -C23     -C24     -H28     : 179.999999
 C22     -C27     -C26     -C25     :   0.000000
 C22     -C27     -C26     -H29     : 179.999999
 C23     -C22     -C27     -C26     :   0.000000
 C23     -C22     -C27     -H30     : 180.000000
 C23     -C24     -C25     -C26     :   0.000000
 C24     -C23     -C22     -C27     :   0.000000
 C24     -C23     -C22     -H22     : 180.000000
 C24     -C25     -C26     -C27     :   0.000000
 C24     -C25     -C26     -H29     :-179.999999
 C25     -C24     -C23     -H27     : 180.000000
 C25     -C26     -C27     -H30     : 180.000000
 C26     -C25     -C24     -H28     :-179.999999
 C26     -C27     -C22     -H22     : 180.000000
 C27     -C22     -C23     -H27     : 180.000000
 H22     -C22     -C23     -H27     :   0.000000
 H22     -C22     -C27     -H30     :   0.000000
 H27     -C23     -C24     -H28     :  -0.000001
 H29     -C26     -C27     -H30     :  -0.000002
 C6      -C7      -P1      -C10     : -54.377571
 C6      -C7      -P1      -C14     :  60.356994
 C6      -C7      -C8      -H32     : 168.730180
 C6      -C7      -C8      -H33     :  50.218977
 C6      -C7      -C8      -H34     : -68.909937
 C6      -C7      -C9      -H35     :  71.659901
 C6      -C7      -C9      -H36     : -48.869024
 C6      -C7      -C9      -H37     :-166.969678
 C7      -P1      -C10     -C11     : -93.906048
 C7      -P1      -C10     -C12     : 144.817715
 C7      -P1      -C10     -C13     :  25.859250
 C7      -P1      -C14     -C15     : 127.159309
 C7      -P1      -C14     -C37     : -57.049812
 C8      -C7      -P1      -C10     :-175.057343
 C8      -C7      -P1      -C14     : -60.322778
 C8      -C7      -C6      -H50     :-175.418780
 C8      -C7      -C6      -H51     :  60.185837
 C8      -C7      -C6      -H31     : -57.231501
 C8      -C7      -C9      -H35     :-178.588850
 C8      -C7      -C9      -H36     :  60.882225
 C8      -C7      -C9      -H37     : -57.218429
 C9      -C7      -P1      -C10     :  68.773356
 C9      -C7      -P1      -C14     :-176.492079
 C9      -C7      -C6      -H50     : -64.445286
 C9      -C7      -C6      -H51     : 171.159331
 C9      -C7      -C6      -H31     :  53.741993
 C9      -C7      -C8      -H32     :  57.232106
 C9      -C7      -C8      -H33     : -61.279096
 C9      -C7      -C8      -H34     : 179.591989
 C10     -P1      -C14     -C15     :-111.944224
 C10     -P1      -C14     -C37     :  63.846655
 C11     -C10     -P1      -C14     : 141.891313
 C11     -C10     -C12     -H41     : -64.954754
 C11     -C10     -C12     -H42     : 173.119646
 C11     -C10     -C12     -H43     :  54.121091
 C11     -C10     -C13     -H44     :  59.211664
 C11     -C10     -C13     -H45     : -57.846722
 C11     -C10     -C13     -H46     :-176.532241
 C12     -C10     -P1      -C14     :  20.615076
 C12     -C10     -C11     -H38     :-176.975318
 C12     -C10     -C11     -H39     :  59.756098
 C12     -C10     -C11     -H40     : -57.847901
 C12     -C10     -C13     -H44     : 171.000437
 C12     -C10     -C13     -H45     :  53.942051
 C12     -C10     -C13     -H46     : -64.743467
 C13     -C10     -P1      -C14     : -98.343389
 C13     -C10     -C11     -H38     : -67.371767
 C13     -C10     -C11     -H39     : 169.359648
 C13     -C10     -C11     -H40     :  51.755650
 C13     -C10     -C12     -H41     :-175.241344
 C13     -C10     -C12     -H42     :  62.833056
 C13     -C10     -C12     -H43     : -56.165499
 C14     -C15     -C38     -C39     :-127.235098
 C14     -C15     -C38     -C43     :  49.168980
 C14     -C15     -C44     -C45     :-149.696363
 C14     -C15     -C44     -C28     :  29.285990
 C15     -C14     -C37     -H47     :  24.907935
 C15     -C14     -C37     -H48     :-102.488509
 C15     -C14     -C37     -H49     : 138.441351
 C15     -C38     -C39     -C40     : 178.726145
 C15     -C38     -C39     -H71     :   2.308983
 C15     -C38     -C43     -C42     :-178.439997
 C15     -C38     -C43     -H54     :   2.536328
 C15     -C44     -C45     -C46     : 179.109877
 C15     -C44     -C45     -H55     :   2.957507
 C15     -C44     -C28     -C48     :-179.550474
 C15     -C44     -C28     -H59     :   3.728784
 C37     -C14     -C15     -C38     :-168.909534
 C37     -C14     -C15     -C44     :  12.226189
 C38     -C15     -C44     -C45     :  31.347763
 C38     -C15     -C44     -C28     :-149.669883
 C38     -C39     -C40     -C41     :  -0.866591
 C38     -C39     -C40     -H72     :-179.597121
 C38     -C43     -C42     -C41     :   0.617818
 C38     -C43     -C42     -H53     :-179.415086
 C39     -C38     -C15     -C44     :  51.659704
 C39     -C38     -C43     -C42     :  -1.758124
 C39     -C38     -C43     -H54     : 179.218201
 C39     -C40     -C41     -C42     :  -0.456317
 C39     -C40     -C41     -H52     :-179.853482
 C40     -C39     -C38     -C43     :   1.877878
 C40     -C41     -C42     -C43     :   0.577604
 C40     -C41     -C42     -H53     :-179.389480
 C41     -C40     -C39     -H71     : 175.812513
 C41     -C42     -C43     -H54     : 179.702229
 C42     -C41     -C40     -H72     : 178.288383
 C43     -C38     -C15     -C44     :-131.936218
 C43     -C38     -C39     -H71     :-174.539284
 C43     -C42     -C41     -H52     : 179.975530
 C44     -C45     -C46     -C47     :   0.421801
 C44     -C45     -C46     -H56     :-179.740833
 C44     -C28     -C48     -C47     :   0.549223
 C44     -C28     -C48     -H58     :-179.299700
 C45     -C44     -C28     -C48     :  -0.501907
 C45     -C44     -C28     -H59     :-177.222650
 C45     -C46     -C47     -C48     :  -0.381911
 C45     -C46     -C47     -H57     : 179.230315
 C46     -C45     -C44     -C28     :   0.016620
 C46     -C47     -C48     -C28     :  -0.075670
 C46     -C47     -C48     -H58     : 179.775393
 C47     -C46     -C45     -H55     : 176.785067
 C47     -C48     -C28     -H59     : 177.490866
 C48     -C47     -C46     -H56     : 179.779681
 C28     -C44     -C45     -H55     :-176.135750
 C28     -C48     -C47     -H57     :-179.688441
 H71     -C39     -C40     -H72     :  -2.918018
 H72     -C40     -C41     -H52     :  -1.108782
 H52     -C41     -C42     -H53     :   0.008447
 H53     -C42     -C43     -H54     :  -0.330674
 H55     -C45     -C46     -H56     :  -3.377567
 H56     -C46     -C47     -H57     :  -0.608094
 H57     -C47     -C48     -H58     :   0.162623
 H58     -C48     -C28     -H59     :  -2.358057
 
  nuclear repulsion energy.......          5228.742727138 hartrees
  
  Detected an organometallic with only one TM atom. 
  
  Oxidation state on metal       2 is     2
  Formal multiplet on metal      2 is     1
  Formal charge on ligand        3 is    -1
  Formal multiplet on ligand     3 is     1
  Formal charge on ligand        4 is    -1
  Formal multiplet on ligand     4 is     1
  
 
  Will use High-Quality Initial guess for organometallics
       including d-d repulsion (iguess=30)
 
 Non-default options chosen:
   SCF calculation type: DFT(b3pw91-d3)              
   DFT=Becke_3_Parameter/HF+Slater+Becke88+PW91+PW-GGAIIC (B3PW91-D3)
   Transition state optimization
   Geometry will be optimized in redundant internal coordinates
   Culot/Fletcher trust radius adjustment
      initial trust radius:  0.100
   P-RFO level-shifting used
   Solvation energy will be computed using PBF
     -solute cavity energy will not be included
     -surface area terms will not be included
   Vibrational frequencies and related properties will be computed
      from analytic second derivatives
   IR intensities will be computed
   Thermochemical properties will be computed
   Maximum number of geometry steps: 100
   Scaling standard convergence criteria by a factor of   5.00
   Mixed Murtagh-Sargent/Powell Hessian-updating used
   Solvent: benzene                                                         
   Internal dielectric constant:    1.000
   Continuum dielectric constant:   2.283
   Solvent probe molecule radius:   2.600
  
 Non-default print settings:
     11=  2
  
 Temporary integer options set:
     21= -1  73=  2
  
  atom       vdw   vdw2    cov     mass  grid  daf  charge   basis
  P1        2.147  2.074  1.060   30.974    Y    Y      Y    ps_6-31g*
  Pd2       1.450  1.450  1.280  105.903    Y    Y      Y    lacv3p*
  N2        1.831  1.600  0.750   14.003    Y    Y      Y    ps_6-31g*
  C16       1.949  1.900  0.770   12.000    Y    Y      Y    ps_6-31g*
  C17       1.949  1.900  0.770   12.000    Y    Y      Y    ps_6-31g*
  C18       1.949  1.900  0.770   12.000    Y    Y      Y    ps_6-31g*
  C19       1.949  1.900  0.770   12.000    Y    Y      Y    ps_6-31g*
  C20       1.949  1.900  0.770   12.000    Y    Y      Y    ps_6-31g*
  C21       1.949  1.900  0.770   12.000    Y    Y      Y    ps_6-31g*
  F10       1.736  1.682  0.720   18.998    Y    Y      Y    ps_6-31g*
  H23       1.597  1.150  0.320    1.008    Y    Y      Y    ps_6-31g*
  H24       1.597  1.150  0.320    1.008    Y    Y      Y    ps_6-31g*
  H25       1.597  1.150  0.320    1.008    Y    Y      Y    ps_6-31g*
  H26       1.597  1.150  0.320    1.008    Y    Y      Y    ps_6-31g*
  H18       1.597  1.150  0.320    1.008    Y    Y      Y    ps_6-31g*
  C22       1.949  1.900  0.770   12.000    Y    Y      Y    ps_6-31g*
  C23       1.949  1.900  0.770   12.000    Y    Y      Y    ps_6-31g*
  C24       1.949  1.900  0.770   12.000    Y    Y      Y    ps_6-31g*
  C25       1.949  1.900  0.770   12.000    Y    Y      Y    ps_6-31g*
  C26       1.949  1.900  0.770   12.000    Y    Y      Y    ps_6-31g*
  C27       1.949  1.900  0.770   12.000    Y    Y      Y    ps_6-31g*
  H22       1.597  1.150  0.320    1.008    Y    Y      Y    ps_6-31g*
  H27       1.597  1.150  0.320    1.008    Y    Y      Y    ps_6-31g*
  H28       1.597  1.150  0.320    1.008    Y    Y      Y    ps_6-31g*
  H29       1.597  1.150  0.320    1.008    Y    Y      Y    ps_6-31g*
  H30       1.597  1.150  0.320    1.008    Y    Y      Y    ps_6-31g*
  C6        1.949  1.900  0.770   12.000    Y    Y      Y    ps_6-31g*
  C7        1.949  1.900  0.770   12.000    Y    Y      Y    ps_6-31g*
  C8        1.949  1.900  0.770   12.000    Y    Y      Y    ps_6-31g*
  C9        1.949  1.900  0.770   12.000    Y    Y      Y    ps_6-31g*
  C10       1.949  1.900  0.770   12.000    Y    Y      Y    ps_6-31g*
  C11       1.949  1.900  0.770   12.000    Y    Y      Y    ps_6-31g*
  C12       1.949  1.900  0.770   12.000    Y    Y      Y    ps_6-31g*
  C13       1.949  1.900  0.770   12.000    Y    Y      Y    ps_6-31g*
  C14       1.949  1.900  0.770   12.000    Y    Y      Y    ps_6-31g*
  C15       1.949  1.900  0.770   12.000    Y    Y      Y    ps_6-31g*
  C37       1.949  1.900  0.770   12.000    Y    Y      Y    ps_6-31g*
  C38       1.949  1.900  0.770   12.000    Y    Y      Y    ps_6-31g*
  C39       1.949  1.900  0.770   12.000    Y    Y      Y    ps_6-31g*
  C40       1.949  1.900  0.770   12.000    Y    Y      Y    ps_6-31g*
  C41       1.949  1.900  0.770   12.000    Y    Y      Y    ps_6-31g*
  C42       1.949  1.900  0.770   12.000    Y    Y      Y    ps_6-31g*
  C43       1.949  1.900  0.770   12.000    Y    Y      Y    ps_6-31g*
  C44       1.949  1.900  0.770   12.000    Y    Y      Y    ps_6-31g*
  C45       1.949  1.900  0.770   12.000    Y    Y      Y    ps_6-31g*
  C46       1.949  1.900  0.770   12.000    Y    Y      Y    ps_6-31g*
  C47       1.949  1.900  0.770   12.000    Y    Y      Y    ps_6-31g*
  C48       1.949  1.900  0.770   12.000    Y    Y      Y    ps_6-31g*
  C28       1.949  1.900  0.770   12.000    Y    Y      Y    ps_6-31g*
  H50       1.597  1.150  0.320    1.008    Y    Y      Y    ps_6-31g*
  H51       1.597  1.150  0.320    1.008    Y    Y      Y    ps_6-31g*
  H31       1.597  1.150  0.320    1.008    Y    Y      Y    ps_6-31g*
  H32       1.597  1.150  0.320    1.008    Y    Y      Y    ps_6-31g*
  H33       1.597  1.150  0.320    1.008    Y    Y      Y    ps_6-31g*
  H34       1.597  1.150  0.320    1.008    Y    Y      Y    ps_6-31g*
  H35       1.597  1.150  0.320    1.008    Y    Y      Y    ps_6-31g*
  H36       1.597  1.150  0.320    1.008    Y    Y      Y    ps_6-31g*
  H37       1.597  1.150  0.320    1.008    Y    Y      Y    ps_6-31g*
  H38       1.597  1.150  0.320    1.008    Y    Y      Y    ps_6-31g*
  H39       1.597  1.150  0.320    1.008    Y    Y      Y    ps_6-31g*
  H40       1.597  1.150  0.320    1.008    Y    Y      Y    ps_6-31g*
  H41       1.597  1.150  0.320    1.008    Y    Y      Y    ps_6-31g*
  H42       1.597  1.150  0.320    1.008    Y    Y      Y    ps_6-31g*
  H43       1.597  1.150  0.320    1.008    Y    Y      Y    ps_6-31g*
  H44       1.597  1.150  0.320    1.008    Y    Y      Y    ps_6-31g*
  H45       1.597  1.150  0.320    1.008    Y    Y      Y    ps_6-31g*
  H46       1.597  1.150  0.320    1.008    Y    Y      Y    ps_6-31g*
  H47       1.597  1.150  0.320    1.008    Y    Y      Y    ps_6-31g*
  H48       1.597  1.150  0.320    1.008    Y    Y      Y    ps_6-31g*
  H49       1.597  1.150  0.320    1.008    Y    Y      Y    ps_6-31g*
  H71       1.597  1.150  0.320    1.008    Y    Y      Y    ps_6-31g*
  H72       1.597  1.150  0.320    1.008    Y    Y      Y    ps_6-31g*
  H52       1.597  1.150  0.320    1.008    Y    Y      Y    ps_6-31g*
  H53       1.597  1.150  0.320    1.008    Y    Y      Y    ps_6-31g*
  H54       1.597  1.150  0.320    1.008    Y    Y      Y    ps_6-31g*
  H55       1.597  1.150  0.320    1.008    Y    Y      Y    ps_6-31g*
  H56       1.597  1.150  0.320    1.008    Y    Y      Y    ps_6-31g*
  H57       1.597  1.150  0.320    1.008    Y    Y      Y    ps_6-31g*
  H58       1.597  1.150  0.320    1.008    Y    Y      Y    ps_6-31g*
  H59       1.597  1.150  0.320    1.008    Y    Y      Y    ps_6-31g*
 
  atom      formal  2spin      esp    mulk    frag
  P1           0       0        Y    0.000       0
  Pd2          2       0        Y    0.000       0
  N2          -1       0        Y    0.000       0
  C16         -1       0        Y    0.000       0
  
  end of program pre
   
 Time(pre)  user:       1.064  user+sys:       1.064  wallclock:       1.525
  
  start of program onee
  
  smallest eigenvalue of S:    4.515E-04
  number of canonical orbitals.....          646
  end of program onee
   
 Time(onee)  user:       5.773  user+sys:       5.773  wallclock:       4.419
  
  start of program hfig
  
  initial wavefunction generated automatically from atomic wavefunctions
  Only one state below 0.010000
  Skip d-d repulsion considerations 
 
  Irreducible     Total no   No of occupied orbitals 
  representation  orbitals   Shell_1  Shell_2    ...
  No Symm          646        150
  ------------------------
  Orbital occupation/shell    1.000
 
  end of program hfig
   
 Time(hfig)  user:       1.360  user+sys:       1.360  wallclock:       1.542
  
  start of program probe
  
  end of program probe
   
 Time(probe)  user:       0.728  user+sys:       0.728  wallclock:       0.639
  
  start of program grid
  
   grid     grid set  grid #  grid sym
  ------    --------  ------  --------
  coarse        0        0        1
  medium        2        1        1
  fine          0        0        1
  ultrafine     4        2        1
  charge       -1        3        1
  gradient      4        2        1
  density       0        0        1
  DFT-fine    -11        4        1
  DFT-med.    -10        5        1
  DFT-grad    -12        6        1
  DFT-der2     -8        7        1
  DFT-cphf     -9        8        1
  LMP2-enrg     4        2        1
  LMP2-grad     2        1        1
  DFT-cphf2   -15        9        1
  PBF-dens      0        0        1
  plotting      0        0        1
  Rel-grad    -17        0        1
  
  number of gridpoints: 
     atom           P1         Pd2          N2         C16         C17         C18         C19
  grid # 1         608         357         105          78          95          93          95
  grid # 2         430         311         383         326         323         314         342
  grid # 3           6         237          15          32          25          16          11
  grid # 4        8714        8714        8714        8714        8714        8714        8714
  grid # 5        1192        1192        1192        1192        1192        1192        1192
  grid # 6        9132        9132        5922        5922        5922        5922        5922
  grid # 7       23034       32968       13958       13950       13950       13950       13950
  grid # 8         722        1150         756         748         748         748         748
  grid # 9         366        2198         406         394         394         394         394
   
  number of gridpoints: 
     atom          C20         C21         F10         H23         H24         H25         H26
  grid # 1          93          93         584         116         105         104         115
  grid # 2         318         323         564         464         419         422         465
  grid # 3          16          24         355         370         195         117         387
  grid # 4        8714        8714        8714        8714        8714        8714        8714
  grid # 5        1192        1192        1192        1192        1192        1192        1192
  grid # 6        5922        5922        5922        5922        5922        5922        5922
  grid # 7       13950       13950       23190       15206       15206       15206       15206
  grid # 8         748         748         770         786         786         786         786
  grid # 9         394         394         420         420         420         420         420
   
  number of gridpoints: 
     atom          H18         C22         C23         C24         C25         C26         C27
  grid # 1         110          97          95          94          99          95          97
  grid # 2         449         324         324         315         355         324         324
  grid # 3         221          44          32          19          23          34          44
  grid # 4        8714        8714        8714        8714        8714        8714        8714
  grid # 5        1192        1192        1192        1192        1192        1192        1192
  grid # 6        5922        5922        5922        5922        5922        5922        5922
  grid # 7       15206       13950       13950       13950       13950       13950       13950
  grid # 8         786         748         748         748         748         748         748
  grid # 9         420         394         394         394         394         394         394
   
  number of gridpoints: 
     atom          H22         H27         H28         H29         H30          C6          C7
  grid # 1         118         118         104         115         118          82          88
  grid # 2         467         465         426         456         467         245         367
  grid # 3         422         392         102         339         422           6           6
  grid # 4        8714        8714        8714        8714        8714        8714        8714
  grid # 5        1192        1192        1192        1192        1192        1192        1192
  grid # 6        5922        5922        5922        5922        5922        5922        5922
  grid # 7       15206       15206       15206       15206       15206       13950       13950
  grid # 8         786         786         786         786         786         748         748
  grid # 9         420         420         420         420         420         394         394
   
  number of gridpoints: 
     atom           C8          C9         C10         C11         C12         C13         C14
  grid # 1          80          82          88          80          82          82          87
  grid # 2         244         240         371         247         246         245         390
  grid # 3           6           6           6           6           6           6           9
  grid # 4        8714        8714        8714        8714        8714        8714        8714
  grid # 5        1192        1192        1192        1192        1192        1192        1192
  grid # 6        5922        5922        5922        5922        5922        5922        5922
  grid # 7       13950       13950       13950       13950       13950       13950       13950
  grid # 8         748         748         748         748         748         748         748
  grid # 9         394         394         394         394         394         394         394
   
  number of gridpoints: 
     atom          C15         C37         C38         C39         C40         C41         C42
  grid # 1          99          79          97          92          94          95          96
  grid # 2         362         241         360         322         324         321         325
  grid # 3          20           6           9          10          26          29          26
  grid # 4        8714        8714        8714        8714        8714        8714        8714
  grid # 5        1192        1192        1192        1192        1192        1192        1192
  grid # 6        5922        5922        5922        5922        5922        5922        5922
  grid # 7       13950       13950       13950       13950       13950       13950       13950
  grid # 8         748         748         748         748         748         748         748
  grid # 9         394         394         394         394         394         394         394
   
  number of gridpoints: 
     atom          C43         C44         C45         C46         C47         C48         C28
  grid # 1          93          97          94          97          97          96          93
  grid # 2         322         361         325         327         325         326         324
  grid # 3          16          19          32          49          52          45          21
  grid # 4        8714        8714        8714        8714        8714        8714        8714
  grid # 5        1192        1192        1192        1192        1192        1192        1192
  grid # 6        5922        5922        5922        5922        5922        5922        5922
  grid # 7       13950       13950       13950       13950       13950       13950       13950
  grid # 8         748         748         748         748         748         748         748
  grid # 9         394         394         394         394         394         394         394
   
  number of gridpoints: 
     atom          H50         H51         H31         H32         H33         H34         H35
  grid # 1         102         106         107          95         107         105         101
  grid # 2         428         436         440         392         441         445         431
  grid # 3         149         187         254          43         225         224         145
  grid # 4        8714        8714        8714        8714        8714        8714        8714
  grid # 5        1192        1192        1192        1192        1192        1192        1192
  grid # 6        5922        5922        5922        5922        5922        5922        5922
  grid # 7       15206       15206       15206       15206       15206       15206       15206
  grid # 8         786         786         786         786         786         786         786
  grid # 9         420         420         420         420         420         420         420
   
  number of gridpoints: 
     atom          H36         H37         H38         H39         H40         H41         H42
  grid # 1         106          96         105         105         107         103         103
  grid # 2         440         398         440         443         443         435         424
  grid # 3         203          25         175         186         269         173         147
  grid # 4        8714        8714        8714        8714        8714        8714        8714
  grid # 5        1192        1192        1192        1192        1192        1192        1192
  grid # 6        5922        5922        5922        5922        5922        5922        5922
  grid # 7       15206       15206       15206       15206       15206       15206       15206
  grid # 8         786         786         786         786         786         786         786
  grid # 9         420         420         420         420         420         420         420
   
  number of gridpoints: 
     atom          H43         H44         H45         H46         H47         H48         H49
  grid # 1         107         105         107         102         105         101          93
  grid # 2         444         427         443         422         435         426         404
  grid # 3         270         150         262         148         214         135          76
  grid # 4        8714        8714        8714        8714        8714        8714        8714
  grid # 5        1192        1192        1192        1192        1192        1192        1192
  grid # 6        5922        5922        5922        5922        5922        5922        5922
  grid # 7       15206       15206       15206       15206       15206       15206       15206
  grid # 8         786         786         786         786         786         786         786
  grid # 9         420         420         420         420         420         420         420
   
  number of gridpoints: 
     atom          H71         H72         H52         H53         H54         H55         H56
  grid # 1         115         117         117         116         108         115         118
  grid # 2         457         465         468         458         433         453         466
  grid # 3         312         397         391         324         123         299         423
  grid # 4        8714        8714        8714        8714        8714        8714        8714
  grid # 5        1192        1192        1192        1192        1192        1192        1192
  grid # 6        5922        5922        5922        5922        5922        5922        5922
  grid # 7       15206       15206       15206       15206       15206       15206       15206
  grid # 8         786         786         786         786         786         786         786
  grid # 9         420         420         420         420         420         420         420
   
  number of gridpoints: 
     atom          H57         H58         H59       total
  grid # 1         118         118         107        9288
  grid # 2         467         466         438       30868
  grid # 3         431         416         201       11294
  grid # 4        8714        8714        8714      697120
  grid # 5        1192        1192        1192       95360
  grid # 6        5922        5922        5922      480180
  grid # 7       15206       15206       15206     1204846
  grid # 8         786         786         786       61804
  grid # 9         420         420         420       34400
   
  end of program grid
   
 Time(grid)  user:     394.595  user+sys:     394.595  wallclock:     200.955
  
  start of program rwr
  
  end of program rwr
   
 Time(rwr)  user:      19.154  user+sys:      19.154  wallclock:      23.923
  
  start of program scf
  
 number of electrons..........        300
 number of alpha electrons....        150
 number of beta electrons.....        150
 number of orbitals, total....        646
 number of doubly-occ'd orbs..        150
 number of open shell orbs....          0
 number of occupied orbitals..        150
 number of virtual orbitals...        496
 number of hamiltonians.......          1
 number of shells.............          1
 SCF type: DFT=Becke_3_Parameter/HF+Slater+Becke88+PW91+PW-GGAIIC (B3PW91-D3)
 Energy computed using pseudospectral method.
 Convergence Criterion:
    Energy (econv):       1.00E-05
    RMS density (dconv):  5.00E-06
  
       i  u  d  i  g                   
       t  p  i  c  r                                 RMS    maximum
       e  d  i  u  i                       energy  density   DIIS  
       r  t  s  t  d       total energy    change  change    error 
  
etot    1  N  N  5  M   -1975.43769102739           2.0E-03  1.7E-01
etot    2  Y  Y  6  M   -1978.80127896179  3.4E+00  3.2E-03  9.4E-02
etot    3  Y  Y  6  M   -1980.07592604387  1.3E+00  1.2E-03  4.7E-02
etot    4  N  Y  2  U   -1980.26730819616  1.9E-01  1.0E-03  4.4E-02
etot    5  Y  Y  6  M   -1980.34226826764  7.5E-02  6.8E-04  2.6E-02
etot    6  N  Y  2  U   -1980.34985267083  7.6E-03  5.8E-04  1.3E-02
etot    7  Y  Y  6  M   -1980.35608133975  6.2E-03  1.2E-04  4.1E-03
etot    8  N  Y  2  U   -1980.36351237044  7.4E-03  3.7E-05  1.2E-03
etot    9  N  Y  2  U   -1980.36383160576  3.2E-04  1.1E-05  2.3E-04
etot   10  N  Y  2  U   -1980.36384140591  9.8E-06  4.3E-06  9.2E-05
etot   11  N  N  2  U   -1980.36384451307  3.1E-06  0.0E+00  0.0E+00
 
  Computing the dispersion energy correction and its gradients...
  
  
 Energy components, in hartrees:
   (A)  Nuclear repulsion............    5228.74272713777
   (E)  Total one-electron terms.....  -13164.49901410074
   (F)    Electron-nuclear...........  -15052.79075254870
   (H)    Kinetic....................    1888.29173844797
   (I)  Total two-electron terms.....    5955.39244244989
   (J)    Coulomb....................    6213.40326245115
   (K)    Exchange+Correlation.......    -258.01082000126
   (L)  Electronic energy............   -7209.10657165084  (E+I)
   (N0) D3 correction................      -0.13959256719
   (N)  Total energy.................   -1980.50343708026  (A+L+N0)
   (O)  Gas phase energy.............   -1980.50343708026
  
 SCFE: SCF energy: DFT(b3pw91-d3)     -1980.50343708026 hartrees   iterations:  11
  
 
 HOMO energy:    -0.15005
 LUMO energy:    -0.05943
 
  Orbital energies (hartrees): 
   -77.06843   -24.67178   -14.33424   -10.22726   -10.21108   -10.21059
   -10.19941   -10.19869   -10.19857   -10.19836   -10.19788   -10.19592
   -10.18434   -10.18355   -10.18337   -10.18309   -10.18261   -10.18179
   -10.17865   -10.17701   -10.17660   -10.17586   -10.17209   -10.16995
   -10.16974   -10.16720   -10.16498   -10.16426   -10.16081   -10.15970
   -10.15906   -10.15744   -10.15634   -10.15542   -10.15484   -10.14685
   -10.14647   -10.13634    -6.56950    -4.72777    -4.72703    -4.72389
    -3.29847    -2.03446    -2.02257    -2.00573    -1.20828    -0.88613
    -0.87525    -0.85687    -0.84356    -0.83413    -0.81583    -0.81520
    -0.80534    -0.76529    -0.75306    -0.74727    -0.74446    -0.74117
    -0.73491    -0.72615    -0.70387    -0.69697    -0.69234    -0.68778
    -0.67488    -0.67247    -0.65687    -0.61513    -0.61185    -0.61041
    -0.60098    -0.59772    -0.59288    -0.58961    -0.57538    -0.55932
    -0.55304    -0.53164    -0.52730    -0.51643    -0.50411    -0.49358
    -0.47804    -0.47547    -0.47393    -0.46898    -0.46694    -0.46234
    -0.45553    -0.45157    -0.45007    -0.44869    -0.44614    -0.44329
    -0.43905    -0.43676    -0.43456    -0.42706    -0.42364    -0.42146
    -0.42006    -0.41459    -0.41295    -0.40916    -0.40833    -0.40106
    -0.39151    -0.38707    -0.38639    -0.38531    -0.38155    -0.37885
    -0.37624    -0.37107    -0.36953    -0.36875    -0.36575    -0.36166
    -0.35453    -0.35191    -0.34528    -0.34310    -0.34073    -0.33788
    -0.33714    -0.33223    -0.33073    -0.32824    -0.32390    -0.31649
    -0.31570    -0.30798    -0.29322    -0.29110    -0.27778    -0.26888
    -0.26290    -0.25533    -0.25236    -0.24227    -0.23757    -0.23336
    -0.22927    -0.22526    -0.21948    -0.20732    -0.19947    -0.15005
    -0.05943    -0.01937    -0.01846    -0.01029    -0.00119     0.00298
     0.01202     0.01832     0.02190     0.03434
 
  end of program scf
   
 Time(scf)  user:     494.780  user+sys:     494.780  wallclock:     265.590
  
  start of program der1a
  
  end of program der1a
   
 Time(der1a)  user:      17.569  user+sys:      17.569  wallclock:       9.794
  
  start of program rwr
  
  end of program rwr
   
 Time(rwr)  user:      22.613  user+sys:      22.613  wallclock:      28.396
  
  start of program der1b
  
   
  forces (hartrees/bohr) : total     
   
 atom  label           x              y              z
 ---- --------   -------------  -------------  -------------
    1 P1         -1.669955E-02   8.916833E-04   2.474553E-02
    2 Pd2        -2.030701E-02   8.158488E-03   2.500484E-03
    3 N2          1.943552E-02   6.960890E-03   4.968681E-02
    4 C16        -2.889506E-02  -2.122487E-02   7.635264E-04
    5 C17         1.207530E-02  -1.495481E-03   2.808077E-03
    6 C18         1.011637E-02   1.472845E-02   2.475336E-02
    7 C19        -6.025080E-03  -5.398085E-03   1.921235E-02
    8 C20         1.105278E-02   1.081719E-02  -1.964794E-03
    9 C21         2.996665E-03   9.075484E-03   1.600613E-03
   10 F10         8.114773E-03   5.100370E-03  -6.160174E-04
   11 H23        -8.153250E-04   1.910982E-03   5.546714E-05
   12 H24         3.719898E-03   7.222352E-03   1.569483E-02
   13 H25         1.385379E-02   2.657037E-03  -4.848804E-03
   14 H26         1.828466E-03  -1.482911E-03  -7.087392E-04
   15 H18        -3.641234E-02   3.024847E-02  -3.020847E-02
   16 C22        -2.147280E-03   3.903485E-03   2.124745E-03
   17 C23         2.108758E-03  -3.790310E-03   1.494594E-03
   18 C24        -1.710842E-02   5.211007E-03   5.071859E-03
   19 C25         1.156753E-02  -3.891925E-02  -8.608132E-03
   20 C26        -1.247330E-03   5.666035E-03   6.568646E-03
   21 C27         4.146098E-04  -2.193136E-03  -2.624764E-03
   22 H22         4.642723E-03  -7.732020E-03  -5.571973E-03
   23 H27         6.832282E-03  -7.091274E-03   4.108312E-03
   24 H28        -3.936840E-03  -5.248084E-03   1.333117E-02
   25 H29        -5.922722E-03   6.239076E-03  -5.225216E-03
   26 H30        -1.760760E-03  -1.417564E-03  -1.044351E-02
   27 C6          3.232476E-03  -8.737024E-03  -1.909788E-02
   28 C7          4.595927E-02  -4.823008E-03  -2.296668E-02
   29 C8         -1.155888E-02  -2.069547E-02   1.039905E-04
   30 C9         -1.168633E-02   2.054254E-02   4.850578E-03
   31 C10        -1.715943E-02   1.831361E-02  -2.095442E-02
   32 C11        -2.796366E-03   6.413003E-03   1.221298E-02
   33 C12        -1.040425E-02  -1.429150E-02   6.915591E-03
   34 C13         1.767046E-02   6.179461E-03  -1.089966E-02
   35 C14         7.617213E-03  -1.503507E-03  -2.183433E-02
   36 C15         3.309836E-03   6.522168E-04   2.896751E-03
   37 C37         2.719749E-03   3.878197E-04  -2.243605E-02
   38 C38         8.346628E-03  -1.471045E-03   2.393175E-02
   39 C39         7.386899E-03  -1.498041E-02   7.933188E-03
   40 C40        -1.427132E-03   5.144062E-03  -6.206195E-04
   41 C41        -2.169485E-04   3.179010E-04  -1.231046E-03
   42 C42        -6.189422E-04  -4.632497E-03   2.492911E-03
   43 C43        -8.010164E-03   1.895166E-02  -6.924529E-03
   44 C44        -1.573933E-02  -1.526627E-02  -5.880022E-04
   45 C45        -1.644643E-02   1.369009E-03   3.644794E-03
   46 C46         3.247753E-03   7.937779E-04  -1.327200E-04
   47 C47         1.179240E-03   3.134548E-03   1.057779E-03
   48 C48        -6.057763E-03  -5.145171E-04   2.925634E-03
   49 C28         2.314131E-02  -6.354069E-03  -4.655547E-03
   50 H50         2.621114E-04  -5.735196E-03   6.469573E-03
   51 H51        -3.174476E-03   1.083505E-02   4.273683E-03
   52 H31        -9.208501E-03  -9.587520E-04   6.892024E-03
   53 H32        -4.655187E-03  -1.296326E-02  -3.276001E-02
   54 H33        -8.260415E-03   3.699455E-03  -3.762126E-03
   55 H34         1.083508E-03   6.622097E-03   2.033831E-03
   56 H35         4.100751E-03  -6.076298E-03   2.868912E-03
   57 H36        -7.497260E-03  -7.616461E-03  -3.476694E-03
   58 H37         7.578967E-04  -3.924992E-04  -3.600393E-02
   59 H38        -6.683885E-03  -5.115570E-03   1.050638E-03
   60 H39         9.722633E-03  -1.710266E-03  -2.990203E-03
   61 H40         7.335540E-03  -9.464583E-03   2.926007E-03
   62 H41         9.105301E-03   1.771380E-03  -4.295924E-03
   63 H42        -6.025684E-03   1.099441E-02   6.164414E-03
   64 H43         8.712472E-03   7.200601E-04   5.026404E-03
   65 H44        -7.946455E-03  -1.075790E-02  -1.009199E-03
   66 H45        -1.996055E-03  -4.552330E-03   8.806889E-03
   67 H46         9.336882E-04   8.787552E-03   5.408096E-03
   68 H47         1.045713E-02  -3.703736E-04   8.861225E-03
   69 H48        -1.294369E-02   1.959297E-03  -2.569203E-03
   70 H49         1.105310E-02  -8.200389E-03   1.115754E-02
   71 H71        -3.728865E-03   2.961116E-03  -9.850597E-03
   72 H72        -2.939193E-04   3.970479E-03  -9.425069E-03
   73 H52         4.153668E-03  -2.193671E-03  -9.473991E-03
   74 H53         6.507465E-03  -7.879389E-03  -3.100884E-03
   75 H54         2.014942E-03  -3.531558E-03  -6.005775E-03
   76 H55         1.173213E-02  -2.911866E-05  -2.158310E-03
   77 H56         9.633848E-03   7.226804E-03  -2.550187E-03
   78 H57         1.199251E-03   6.882238E-03   1.838955E-03
   79 H58        -4.992345E-03   7.975967E-03   6.633830E-03
   80 H59        -1.160065E-02  -8.332277E-04   7.888007E-03
 -------------   -------------  -------------  -------------
     total       -1.071327E-03  -2.246641E-03  -8.076470E-04
   
  end of program der1b
   
 Time(der1b)  user:     176.022  user+sys:     176.022  wallclock:      93.759
  
  start of program geopt
  
 ----------------------------------------------------------------------------
  Geometry optimization step  1
  Total energy:     -1980.50343708026 hartrees
 ----------------------------------------------------------------------------
  
  Hessian eigenvalues: 
    0.00000E+00    0.00000E+00    0.00000E+00    0.00000E+00    0.00000E+00
    0.00000E+00    0.00000E+00    0.00000E+00    0.00000E+00    0.00000E+00
    0.00000E+00    0.00000E+00    0.00000E+00    0.00000E+00    0.00000E+00
    0.00000E+00    0.00000E+00    0.00000E+00    0.00000E+00    0.00000E+00
    0.00000E+00    0.00000E+00    0.00000E+00    0.00000E+00    0.00000E+00
    0.00000E+00    0.00000E+00    0.00000E+00    0.00000E+00    0.00000E+00
    0.00000E+00    0.00000E+00    0.00000E+00    0.00000E+00    0.00000E+00
    0.00000E+00    8.70890E-03    9.67941E-03    1.71979E-02    1.81878E-02
    1.83331E-02    1.85555E-02    1.91452E-02    1.96018E-02    2.14077E-02
    2.21722E-02    2.29273E-02    2.40364E-02    2.50469E-02    2.85928E-02
    2.95577E-02    2.98620E-02    3.05227E-02    3.11075E-02    3.18692E-02
    3.41465E-02    3.70888E-02    3.85080E-02    4.17883E-02    4.52794E-02
    4.63768E-02    4.63786E-02    4.90298E-02    5.59979E-02    5.78048E-02
    6.10788E-02    6.15449E-02    6.28789E-02    6.81671E-02    6.90860E-02
    6.97300E-02    6.97589E-02    7.10990E-02    7.20643E-02    7.69368E-02
    7.82781E-02    1.14177E-01    1.20661E-01    1.26946E-01    1.28008E-01
    1.28247E-01    1.28359E-01    1.30156E-01    1.31631E-01    1.32658E-01
    1.33587E-01    1.35031E-01    1.37789E-01    1.43337E-01    1.45371E-01
    1.49820E-01    1.53594E-01    1.54285E-01    1.55224E-01    1.57213E-01
    1.62024E-01    1.62283E-01    1.62632E-01    1.66794E-01    1.71606E-01
    1.71911E-01    1.78498E-01    1.80920E-01    1.97993E-01    1.98619E-01
    1.99274E-01    2.00287E-01    2.00624E-01    2.01033E-01    2.02395E-01
    2.05581E-01    2.10557E-01    2.11261E-01    2.11699E-01    2.14341E-01
    2.18445E-01    2.19472E-01    2.22492E-01    2.26088E-01    2.26575E-01
    2.28531E-01    2.29435E-01    2.30590E-01    2.36241E-01    2.37666E-01
    2.38178E-01    2.41842E-01    2.42644E-01    2.42762E-01    2.43882E-01
    2.46728E-01    2.47452E-01    2.48339E-01    2.51197E-01    2.52770E-01
    2.58970E-01    2.61993E-01    2.64271E-01    2.66763E-01    2.69053E-01
    2.75592E-01    2.79433E-01    2.82091E-01    2.85665E-01    2.90339E-01
    2.95009E-01    2.96460E-01    2.97947E-01    2.98375E-01    3.03954E-01
    3.07681E-01    3.09705E-01    3.13183E-01    3.13287E-01    3.13667E-01
    3.13723E-01    3.16463E-01    3.16924E-01    3.17115E-01    3.17511E-01
    3.17840E-01    3.18234E-01    3.18277E-01    3.18441E-01    3.18913E-01
    3.20179E-01    3.20252E-01    3.20763E-01    3.20888E-01    3.20935E-01
    3.20953E-01    3.21776E-01    3.24423E-01    3.24889E-01    3.26243E-01
    3.26296E-01    3.26321E-01    3.26323E-01    3.26365E-01    3.26402E-01
    3.27239E-01    3.27319E-01    3.27568E-01    3.27741E-01    3.28333E-01
    3.28459E-01    3.30354E-01    3.32264E-01    3.34826E-01    3.35226E-01
    3.39130E-01    3.40455E-01    3.40726E-01    3.44449E-01    3.44867E-01
    3.45750E-01    3.46073E-01    3.47384E-01    3.49799E-01    3.50363E-01
    3.51187E-01    3.52105E-01    3.53902E-01    3.55518E-01    3.56847E-01
    3.58293E-01    3.58711E-01    3.59049E-01    3.59521E-01    3.59704E-01
    3.59970E-01    3.60132E-01    3.60546E-01    3.61411E-01    3.61684E-01
    3.62362E-01    3.63158E-01    3.63695E-01    3.65556E-01    3.66309E-01
    3.67794E-01    3.68200E-01    3.72683E-01    3.74386E-01    3.75627E-01
    3.76661E-01    3.76876E-01    3.77886E-01    3.80552E-01    3.81322E-01
    3.81557E-01    3.83158E-01    3.93479E-01    3.97453E-01    3.99805E-01
    4.03850E-01    4.06067E-01    4.07347E-01    4.11692E-01    4.12024E-01
    4.16078E-01    4.26083E-01    4.29758E-01    4.35151E-01    4.39449E-01
    4.59678E-01    4.62342E-01    4.84963E-01    5.13479E-01    5.30299E-01
    5.30831E-01    5.32449E-01    5.34145E-01    5.34727E-01    5.35657E-01
    5.43567E-01    5.77073E-01    5.85869E-01    6.00067E-01    6.10841E-01
    6.15518E-01    6.39362E-01    6.51386E-01    6.73609E-01    6.81199E-01
    7.13379E-01    7.91267E-01    8.40981E-01    1.22832E+00    2.02436E+00
  
 WARNING: Hessian has wrong number of negative eigenvalues:           0
  
  TS search will follow eigenvector  37 on this iteration
  
  Selected vector:  eigenvalue     8.70890E-03

 37)  C39-C38-C15-C44(202)  0.40428
      C14-C15-C38-C39(172)  0.39347
      C43-C38-C15-C44(224)  0.37839
          C19-C41-C42( 81)  0.34817
      C18-C19-C20-C22( 70) -0.24581
       C19-Pd2-N2-H18( 74)  0.23729
  
  
  Level shifts adjusted to satisfy step-size constraints
   Step size:    0.1005104
   Cos(theta):   0.9907132
   Final level shift:  -4.3127895E+00
  
  gradient maximum:        3.4699E-01 .  (  2.2500E-03 )
  gradient rms:            3.5533E-02 .  (  1.5000E-03 )
  displacement maximum:    5.7538E-02 .  (  9.0000E-03 )
  displacement rms:        6.1168E-03 .  (  6.0000E-03 )
  
  predicted energy change:  -5.0854E-02
  step size:     0.10051
  trust radius:  0.10000
  
  molecular structure not yet converged...
  
  center of mass moved by:
     x:     6.8492E-03     y:     9.6530E-03     z:     2.2503E-02
  
  new geometry: 
                                   angstroms
  atom               x                 y                 z
  P1            0.0003896645      0.0075504694     -0.0247874906 
  Pd2           0.0141095260      0.0222844247      2.2586692666 
  N2            0.2932989544      0.3252041944      4.2572360936 
  C16           3.5703177409      3.1331489729      3.1104291561 
  C17           3.8077345141      1.7571909631      3.1444124574 
  C18           2.7622370769      0.8334982774      3.1373631167 
  C19           1.4253050199      1.2637507682      3.0864078520 
  C20           1.1816115803      2.6500579841      3.0649841701 
  C21           2.2373359904      3.5582177273      3.0702988375 
  F10           4.5687239883      4.0179520306      3.1132163800 
  H23           4.8344648900      1.3922727782      3.1743871986 
  H24           2.9963919201     -0.2264559361      3.1660699208 
  H25           0.1650062855      3.0285640088      3.0318640696 
  H26           2.0172539082      4.6256606739      3.0420205813 
  H18           0.9883981635     -0.2504713059      4.8748094632 
  C22          -1.6291054795      3.3931444637      6.5014652487 
  C23          -1.8624821648      3.2771375686      5.1228924072 
  C24          -1.2287756934      2.2652950382      4.3857828015 
  C25          -0.3606513453      1.3652076854      5.0253912197 
  C26          -0.1296076594      1.4810129511      6.4055816040 
  C27          -0.7626843497      2.4940983431      7.1423945066 
  H22          -2.1271696623      4.1882972503      7.0798200080 
  H27          -2.5425953457      3.9821869291      4.6175896770 
  H28          -1.4149397483      2.1724512782      3.3035174960 
  H29           0.5527937290      0.7781125210      6.9106418450 
  H30          -0.5779567681      2.5834533220      8.2253318903 
  C6            2.3575583458     -0.0054977766     -1.8227219832 
  C7            1.8308976173      0.2284251618     -0.3840371022 
  C8            2.6726121521     -0.7550020834      0.4733350220 
  C9            2.2609657308      1.6563632183     -0.0056181618 
  C10          -1.0327763960      1.1029495956     -1.2204889920 
  C11          -1.4077234359      2.4630141587     -0.5848136143 
  C12          -2.3626153136      0.4323547116     -1.6667435502 
  C13          -0.3251707449      1.4620585228     -2.5405031411 
  C14          -0.6095411247     -1.6953505466     -0.3985241303 
  C15          -1.3436581570     -2.5242894707      0.4035987082 
  C37          -0.2617678911     -2.0667998400     -1.8204876731 
  C38          -1.9168263197     -2.1238130628      1.7354317757 
  C39          -1.6869825364     -2.8956040521      2.9023335700 
  C40          -2.1738795873     -2.5632253171      4.1727923399 
  C41          -2.9273680117     -1.3973101909      4.3628319093 
  C42          -3.1564189093     -0.5844924242      3.2513681224 
  C43          -2.6530055228     -0.9533815350      1.9903208205 
  C44          -1.6116638710     -3.9347574954     -0.0257167060 
  C45          -2.8040529293     -4.6014077709      0.3514659661 
  C46          -3.1182812654     -5.9148576643     -0.0362827540 
  C47          -2.2274794822     -6.6452276706     -0.8331728810 
  C48          -1.0335435317     -6.0267788847     -1.2275139660 
  C28          -0.7540103691     -4.7110646685     -0.8319996817 
  H50           1.9179967795      0.6560982925     -2.5854974558 
  H51           2.2335928528     -1.0578103789     -2.1693518417 
  H31           3.4510423334      0.1839771539     -1.8909659060 
  H32           2.5429647002     -0.5828111638      1.5556464196 
  H33           3.7580992868     -0.6435026002      0.2815992617 
  H34           2.4083122471     -1.8070518472      0.2361481384 
  H35           1.6979879370      2.4343053414     -0.5625181927 
  H36           3.3356206275      1.8353659074     -0.2052338704 
  H37           2.1219013531      1.8539015673      1.0784620577 
  H38          -0.5083957168      3.0305864667     -0.2778818168 
  H39          -2.0843912541      2.3558998521      0.2879883174 
  H40          -1.9632765324      3.1095396576     -1.3026915767 
  H41          -3.0481659664      0.1817780892     -0.8304054468 
  H42          -2.1909039931     -0.5032249491     -2.2350313129 
  H43          -2.9468395410      1.0964387572     -2.3336312409 
  H44           0.5739341746      2.0998378452     -2.3787253137 
  H45          -0.9715355498      2.0643814528     -3.2099305190 
  H46          -0.0412953531      0.5695766549     -3.1316547471 
  H47          -0.9655405314     -2.7837414331     -2.2934523880 
  H48           0.7912439145     -2.4213180833     -1.9087900227 
  H49          -0.3603981507     -1.1885477767     -2.4934939976 
  H71          -1.0554503565     -3.7899910699      2.8847177175 
  H72          -1.9507823671     -3.2062525910      5.0374413416 
  H52          -3.3140875279     -1.1227342320      5.3564686566 
  H53          -3.7342871462      0.3455151164      3.3591414915 
  H54          -2.8926187918     -0.2599549126      1.1896636499 
  H55          -3.5837427824     -4.0816305278      0.9303686749 
  H56          -4.0668126231     -6.3774471540      0.2873173064 
  H57          -2.4537462824     -7.6758506234     -1.1333524425 
  H58          -0.3171898612     -6.5855431831     -1.8514030007 
  H59           0.2278391867     -4.3344970863     -1.1582185416 
   
 
  bond lengths (angstroms):
 
 P1      -Pd2     :   2.283546      P1      -C7      :   1.878458
 P1      -C10     :   1.922767      P1      -C14     :   1.847043
 Pd2     -N2      :   2.040582      Pd2     -C19     :   2.053744
 N2      -H18     :   1.093601      N2      -C25     :   1.448903
 C16     -C17     :   1.396704      C16     -C21     :   1.399691
 C16     -F10     :   1.334054      C17     -C18     :   1.395107
 C17     -H23     :   1.090064      C18     -C19     :   1.405383
 C18     -H24     :   1.085889      C19     -C20     :   1.407726
 C20     -C21     :   1.392601      C20     -H25     :   1.085288
 C21     -H26     :   1.090262      C22     -C23     :   1.402992
 C22     -C27     :   1.403481      C22     -H22     :   1.102193
 C23     -C24     :   1.403118      C23     -H27     :   1.102261
 C24     -C25     :   1.404598      C24     -H28     :   1.102078
 C25     -C26     :   1.404179      C26     -C27     :   1.403574
 C26     -H29     :   1.102192      C27     -H30     :   1.102208
 C6      -C7      :   1.549808      C6      -H50     :   1.101249
 C6      -H51     :   1.114846      C6      -H31     :   1.111875
 C7      -C8      :   1.552643      C7      -C9      :   1.538560
 C8      -H32     :   1.103565      C8      -H33     :   1.107916
 C8      -H34     :   1.110370      C9      -H35     :   1.110079
 C9      -H36     :   1.107597      C9      -H37     :   1.110671
 C10     -C11     :   1.547399      C10     -C12     :   1.554771
 C10     -C13     :   1.540163      C11     -H38     :   1.106859
 C11     -H39     :   1.109566      C11     -H40     :   1.114443
 C12     -H41     :   1.110058      C12     -H42     :   1.108037
 C12     -H43     :   1.107730      C13     -H44     :   1.114147
 C13     -H45     :   1.108473      C13     -H46     :   1.107506
 C14     -C15     :   1.367285      C14     -C37     :   1.510265
 C15     -C38     :   1.504222      C15     -C44     :   1.498519
 C37     -H47     :   1.110404      C37     -H48     :   1.114592
 C37     -H49     :   1.110852      C38     -C39     :   1.417797
 C38     -C43     :   1.406001      C39     -C40     :   1.400575
 C39     -H71     :   1.095021      C40     -C41     :   1.401149
 C40     -H72     :   1.100397      C41     -C42     :   1.395883
 C41     -H52     :   1.101026      C42     -C43     :   1.407034
 C42     -H53     :   1.100209      C43     -H54     :   1.085959
 C44     -C45     :   1.417209      C44     -C28     :   1.410076
 C45     -C46     :   1.405076      C45     -H55     :   1.101459
 C46     -C47     :   1.400715      C46     -H56     :   1.103820
 C47     -C48     :   1.401238      C47     -H57     :   1.097036
 C48     -C28     :   1.402025      C48     -H58     :   1.102097
 C28     -H59     :   1.101022
 
  bond angles:
 
 C7      -P1      -Pd2     : 100.639339  C10     -P1      -Pd2     : 128.417954
 C10     -P1      -C7      : 109.736805  C14     -P1      -Pd2     : 102.138065
 C14     -P1      -C7      : 113.047879  C14     -P1      -C10     : 102.824891
 N2      -Pd2     -P1      : 168.858154  C19     -Pd2     -P1      : 114.270934
 C19     -Pd2     -N2      :  54.655735  H18     -N2      -Pd2     : 124.187814
 C25     -N2      -Pd2     : 124.336280  C25     -N2      -H18     : 111.427875
 C21     -C16     -C17     : 117.500515  F10     -C16     -C17     : 121.744065
 F10     -C16     -C21     : 120.755304  C18     -C17     -C16     : 121.651483
 H23     -C17     -C16     : 119.378169  H23     -C17     -C18     : 118.970119
 C19     -C18     -C17     : 120.689688  H24     -C18     -C17     : 118.983049
 H24     -C18     -C19     : 120.326319  C18     -C19     -Pd2     : 118.895695
 C20     -C19     -Pd2     : 118.047777  C20     -C19     -C18     : 117.821567
 C21     -C20     -C19     : 120.724915  H25     -C20     -C19     : 120.402726
 H25     -C20     -C21     : 118.868277  C20     -C21     -C16     : 121.602956
 H26     -C21     -C16     : 119.361371  H26     -C21     -C20     : 119.035667
 C27     -C22     -C23     : 119.897185  H22     -C22     -C23     : 120.005427
 H22     -C22     -C27     : 120.097304  C24     -C23     -C22     : 120.045933
 H27     -C23     -C22     : 120.012712  H27     -C23     -C24     : 119.941262
 C25     -C24     -C23     : 120.134798  H28     -C24     -C23     : 120.023346
 H28     -C24     -C25     : 119.841303  C24     -C25     -N2      : 119.835066
 C26     -C25     -N2      : 120.400387  C26     -C25     -C24     : 119.764390
 C27     -C26     -C25     : 120.085963  H29     -C26     -C25     : 119.978939
 H29     -C26     -C27     : 119.934658  C26     -C27     -C22     : 120.071605
 H30     -C27     -C22     : 120.014537  H30     -C27     -C26     : 119.913838
 H50     -C6      -C7      : 114.624158  H51     -C6      -C7      : 113.160738
 H51     -C6      -H50     : 107.898320  H31     -C6      -C7      : 111.435756
 H31     -C6      -H50     : 104.338858  H31     -C6      -H51     : 104.544046
 C6      -C7      -P1      : 119.402087  C8      -C7      -P1      : 110.377030
 C8      -C7      -C6      : 103.460943  C9      -C7      -P1      : 109.541007
 C9      -C7      -C6      : 105.867642  C9      -C7      -C8      : 107.487340
 H32     -C8      -C7      : 112.274845  H33     -C8      -C7      : 111.828840
 H33     -C8      -H32     : 105.612286  H34     -C8      -C7      : 110.678638
 H34     -C8      -H32     : 109.230497  H34     -C8      -H33     : 106.953518
 H35     -C9      -C7      : 112.659823  H36     -C9      -C7      : 112.140492
 H36     -C9      -H35     : 106.761870  H37     -C9      -C7      : 111.724037
 H37     -C9      -H35     : 107.549256  H37     -C9      -H36     : 105.583898
 C11     -C10     -P1      : 112.053087  C12     -C10     -P1      : 113.101785
 C12     -C10     -C11     : 106.843260  C13     -C10     -P1      : 114.767639
 C13     -C10     -C11     : 104.979445  C13     -C10     -C12     : 104.331900
 H38     -C11     -C10     : 111.576172  H39     -C11     -C10     : 112.709876
 H39     -C11     -H38     : 109.079449  H40     -C11     -C10     : 111.473400
 H40     -C11     -H38     : 106.629496  H40     -C11     -H39     : 104.992824
 H41     -C12     -C10     : 114.163865  H42     -C12     -C10     : 112.261978
 H42     -C12     -H41     : 106.948871  H43     -C12     -C10     : 111.427863
 H43     -C12     -H41     : 105.259530  H43     -C12     -H42     : 106.209833
 H44     -C13     -C10     : 112.320216  H45     -C13     -C10     : 112.110159
 H45     -C13     -H44     : 104.312196  H46     -C13     -C10     : 112.789120
 H46     -C13     -H44     : 109.387502  H46     -C13     -H45     : 105.366539
 C15     -C14     -P1      : 128.137359  C37     -C14     -P1      : 109.951705
 C37     -C14     -C15     : 121.794861  C38     -C15     -C14     : 124.235678
 C44     -C15     -C14     : 119.907190  C44     -C15     -C38     : 115.855546
 H47     -C37     -C14     : 114.449336  H48     -C37     -C14     : 111.738550
 H48     -C37     -H47     : 111.080115  H49     -C37     -C14     : 110.825836
 H49     -C37     -H47     : 101.311153  H49     -C37     -H48     : 106.699653
 C39     -C38     -C15     : 121.467623  C43     -C38     -C15     : 125.566727
 C43     -C38     -C39     : 112.881753  C40     -C39     -C38     : 124.127360
 H71     -C39     -C38     : 121.659815  H71     -C39     -C40     : 114.137121
 C41     -C40     -C39     : 120.494371  H72     -C40     -C39     : 120.238644
 H72     -C40     -C41     : 119.255651  C42     -C41     -C40     : 117.696202
 H52     -C41     -C40     : 121.251703  H52     -C41     -C42     : 121.046505
 C43     -C42     -C41     : 120.149481  H53     -C42     -C41     : 120.026712
 H53     -C42     -C43     : 119.823545  C42     -C43     -C38     : 124.615095
 H54     -C43     -C38     : 120.892250  H54     -C43     -C42     : 114.483561
 C45     -C44     -C15     : 121.130140  C28     -C44     -C15     : 124.975786
 C28     -C44     -C45     : 113.888193  C46     -C45     -C44     : 123.671917
 H55     -C45     -C44     : 120.895685  H55     -C45     -C46     : 115.331770
 C47     -C46     -C45     : 120.145556  H56     -C46     -C45     : 120.200381
 H56     -C46     -C47     : 119.653888  C48     -C47     -C46     : 118.154258
 H57     -C47     -C46     : 120.954858  H57     -C47     -C48     : 120.888821
 C28     -C48     -C47     : 120.310103  H58     -C48     -C47     : 119.299371
 H58     -C48     -C28     : 120.390526  C48     -C28     -C44     : 123.827101
 H59     -C28     -C44     : 121.568715  H59     -C28     -C48     : 114.530384
 
  torsional angles:
 
 P1      -Pd2     -N2      -H18     : -94.952505
 P1      -Pd2     -N2      -C25     :  82.308686
 P1      -Pd2     -C19     -C18     : -78.535733
 P1      -Pd2     -C19     -C20     :  75.371897
 P1      -C7      -C6      -H50     :  60.464809
 P1      -C7      -C6      -H51     : -63.853080
 P1      -C7      -C6      -H31     : 178.669940
 P1      -C7      -C8      -H32     : -61.367430
 P1      -C7      -C8      -H33     :-179.881003
 P1      -C7      -C8      -H34     :  60.979639
 P1      -C7      -C9      -H35     : -59.244502
 P1      -C7      -C9      -H36     :-179.726277
 P1      -C7      -C9      -H37     :  61.958306
 P1      -C10     -C11     -H38     :  58.137939
 P1      -C10     -C11     -H39     : -64.992772
 P1      -C10     -C11     -H40     : 177.232927
 P1      -C10     -C12     -H41     :  59.503300
 P1      -C10     -C12     -H42     : -62.428545
 P1      -C10     -C12     -H43     : 178.579167
 P1      -C10     -C13     -H44     : -64.855729
 P1      -C10     -C13     -H45     : 178.064735
 P1      -C10     -C13     -H46     :  59.318394
 P1      -C14     -C15     -C38     :   6.384714
 P1      -C14     -C15     -C44     :-173.137608
 P1      -C14     -C37     -H47     :-151.154650
 P1      -C14     -C37     -H48     :  81.498583
[...]
    C7       Y     0.00000   0.00002   0.00000  -0.00002  -0.00001  -0.00001
    C7       Z    -0.00000   0.00001  -0.00001  -0.00001   0.00002  -0.00002
    C8       X     0.00003  -0.00003   0.00000   0.00002  -0.00002  -0.00000
    C8       Y     0.00004  -0.00004   0.00002   0.00004   0.00001   0.00001
    C8       Z     0.00003  -0.00002   0.00001   0.00004   0.00004   0.00000
    C9       X     0.00000  -0.00001  -0.00001   0.00000  -0.00020  -0.00001
    C9       Y     0.00001  -0.00001  -0.00001   0.00001   0.00018   0.00000
    C9       Z    -0.00004   0.00003   0.00002  -0.00001   0.00050   0.00002
    C10      X    -0.00001   0.00002   0.00000   0.00000  -0.00003   0.00001
    C10      Y    -0.00000   0.00001  -0.00001  -0.00002   0.00006  -0.00002
    C10      Z    -0.00001   0.00002   0.00008   0.00006  -0.00001  -0.00002
    C11      X    -0.00002   0.00000  -0.00009  -0.00007  -0.00022  -0.00001
    C11      Y    -0.00000  -0.00002  -0.00005  -0.00002  -0.00049  -0.00001
    C11      Z     0.00001  -0.00000   0.00011   0.00008   0.00139  -0.00000
    C12      X    -0.00000   0.00002  -0.00039  -0.00035   0.00000   0.00001
    C12      Y    -0.00002  -0.00003   0.00009   0.00017   0.00004   0.00000
    C12      Z    -0.00001   0.00000   0.00216   0.00170   0.00004  -0.00000
    C13      X    -0.00002   0.00000  -0.00003  -0.00001  -0.00001  -0.00001
    C13      Y     0.00001  -0.00002  -0.00004   0.00000   0.00004   0.00000
    C13      Z    -0.00001   0.00000  -0.00003  -0.00002   0.00002   0.00000
    C14      X     0.00003   0.00008   0.00001   0.00000   0.00001   0.00001
    C14      Y    -0.00001   0.00021  -0.00006  -0.00004  -0.00001   0.00001
    C14      Z     0.00002   0.00010   0.00009   0.00013   0.00001  -0.00002
    C15      X    -0.00034  -0.00001  -0.00009  -0.00010   0.00000   0.00000
    C15      Y     0.00011  -0.00006   0.00017   0.00006   0.00000  -0.00000
    C15      Z     0.00028  -0.00006  -0.00004  -0.00009  -0.00001  -0.00001
    C37      X    -0.00104  -0.00057  -0.00004   0.00001  -0.00001  -0.00001
    C37      Y     0.00120   0.00053  -0.00005  -0.00006   0.00001  -0.00001
    C37      Z    -0.00006   0.00011   0.00005   0.00000  -0.00001   0.00000
    C38      X     0.00011  -0.00005   0.00123   0.00149   0.00003   0.00003
    C38      Y     0.00002   0.00008  -0.00115  -0.00114  -0.00002   0.00001
    C38      Z     0.00006  -0.00001  -0.00039  -0.00118  -0.00001  -0.00001
    C39      X    -0.00112   0.00019  -0.00944   0.00354   0.00003   0.00004
    C39      Y     0.00107  -0.00018   0.00846  -0.00322  -0.00004   0.00000
    C39      Z     0.00034  -0.00005   0.00505  -0.00135  -0.00001  -0.00003
    C40      X    -0.00014   0.00015  -0.01231   0.00509   0.00005   0.00000
    C40      Y     0.00019  -0.00017   0.01430  -0.00577  -0.00005  -0.00002
    C40      Z    -0.00036   0.00018  -0.01676   0.00617   0.00004   0.00007
    C41      X    -0.00024  -0.00024   0.01509  -0.00637  -0.00006  -0.00003
    C41      Y     0.00005   0.00007  -0.00483   0.00104   0.00001  -0.00002
    C41      Z     0.00091   0.00080  -0.05056   0.02722   0.00028  -0.00001
    C42      X    -0.00038  -0.00050   0.01963  -0.04146  -0.00050   0.00004
    C42      Y     0.00035   0.00042  -0.01738   0.03499   0.00042   0.00002
    C42      Z     0.00007   0.00011  -0.00269   0.01422   0.00019   0.00005
    C43      X     0.00068   0.00030  -0.02656  -0.02708  -0.00033   0.00004
    C43      Y    -0.00061  -0.00031   0.02623   0.02758   0.00036   0.00006
    C43      Z     0.00088   0.00038  -0.03687  -0.04241  -0.00054  -0.00001
    C44      X     0.00270  -0.00036   0.00006   0.00001  -0.00000  -0.00000
    C44      Y    -0.00064  -0.00189  -0.00002   0.00001   0.00000  -0.00000
    C44      Z    -0.00136  -0.00038  -0.00000   0.00005   0.00000   0.00000
    C45      X    -0.03119   0.01953  -0.00052  -0.00030  -0.00001   0.00000
    C45      Y     0.03379  -0.02154   0.00047   0.00031   0.00002  -0.00000
    C45      Z     0.02456  -0.01544   0.00039   0.00025   0.00001  -0.00000
    C46      X    -0.03077   0.03397   0.00037  -0.00018  -0.00001  -0.00000
    C46      Y    -0.01223   0.01092   0.00006  -0.00008  -0.00001  -0.00000
    C46      Z     0.00893  -0.01068  -0.00014   0.00005   0.00000   0.00000
    C47      X     0.00164   0.01225   0.00028  -0.00002  -0.00000  -0.00000
    C47      Y    -0.00376   0.04064   0.00083  -0.00008  -0.00001  -0.00000
    C47      Z    -0.00179   0.00731   0.00014  -0.00002  -0.00000   0.00000
    C48      X    -0.01740  -0.02657  -0.00061   0.00006   0.00000   0.00000
    C48      Y     0.02008   0.02582   0.00060  -0.00005  -0.00000   0.00000
    C48      Z     0.01279   0.01812   0.00042  -0.00005  -0.00000  -0.00000
    C28      X    -0.04478  -0.03514  -0.00095  -0.00001  -0.00000   0.00000
    C28      Y    -0.01619  -0.01308  -0.00036   0.00000  -0.00000  -0.00000
    C28      Z     0.01215   0.00938   0.00025   0.00000   0.00000  -0.00000
    H50      X     0.00069  -0.00002  -0.00000   0.00006   0.00020  -0.00002
    H50      Y    -0.00080   0.00006  -0.00001  -0.00006  -0.00028   0.00002
    H50      Z     0.00097  -0.00001   0.00002   0.00007   0.00033  -0.00002
    H51      X    -0.00064  -0.00012  -0.00004  -0.00004  -0.00002   0.00001
    H51      Y    -0.00229  -0.00042  -0.00005  -0.00023  -0.00005   0.00002
    H51      Z    -0.00046  -0.00005  -0.00001  -0.00005  -0.00000   0.00003
    H31      X    -0.00024   0.00025   0.00026  -0.00018   0.00012   0.00008
    H31      Y    -0.00001   0.00001   0.00001  -0.00002   0.00000  -0.00002
    H31      Z    -0.00002  -0.00006  -0.00008   0.00000  -0.00003  -0.00007
    H32      X     0.00002  -0.00002  -0.00001   0.00003  -0.00001  -0.00008
    H32      Y    -0.00006   0.00011   0.00006  -0.00010  -0.00024  -0.00009
    H32      Z    -0.00034   0.00027  -0.00003  -0.00046  -0.00061  -0.00005
    H33      X    -0.00013   0.00028   0.00019  -0.00006   0.00027   0.00007
    H33      Y    -0.00004  -0.00005  -0.00004  -0.00001  -0.00005  -0.00003
    H33      Z     0.00003  -0.00006  -0.00005  -0.00000  -0.00005  -0.00004
    H34      X    -0.00010   0.00020  -0.00015  -0.00017   0.00004   0.00003
    H34      Y    -0.00030   0.00043  -0.00024  -0.00038   0.00014   0.00008
    H34      Z    -0.00007   0.00001  -0.00009  -0.00007   0.00009   0.00004
    H35      X     0.00009  -0.00008  -0.00005   0.00003  -0.00010  -0.00002
    H35      Y    -0.00025   0.00014   0.00011  -0.00005   0.00012   0.00006
    H35      Z     0.00021  -0.00013  -0.00010   0.00005   0.00012  -0.00001
    H36      X     0.00001   0.00034   0.00026  -0.00008   0.00124   0.00009
    H36      Y     0.00002   0.00002  -0.00000  -0.00002  -0.00017   0.00000
    H36      Z    -0.00001  -0.00002  -0.00002  -0.00000  -0.00001  -0.00001
    H37      X    -0.00006   0.00003   0.00000  -0.00001   0.00134   0.00003
    H37      Y     0.00008  -0.00008  -0.00005   0.00003  -0.00221  -0.00010
    H37      Z     0.00026  -0.00022  -0.00011   0.00009  -0.00649  -0.00033
    H38      X     0.00016   0.00006   0.00073   0.00048  -0.00300   0.00011
    H38      Y     0.00006  -0.00000   0.00017   0.00011  -0.00071   0.00002
    H38      Z     0.00003   0.00001   0.00002  -0.00004   0.00107  -0.00002
    H39      X     0.00009  -0.00000   0.00043   0.00028   0.00762  -0.00003
    H39      Y     0.00002  -0.00002   0.00004   0.00007   0.00162   0.00001
    H39      Z    -0.00023   0.00002  -0.00134  -0.00102  -0.01717   0.00000
    H40      X     0.00005  -0.00016  -0.00020   0.00002  -0.00236  -0.00001
    H40      Y    -0.00012   0.00031   0.00030  -0.00006   0.00335   0.00005
    H40      Z     0.00004  -0.00012  -0.00014   0.00004  -0.00218   0.00001
    H41      X    -0.00004  -0.00001   0.00915   0.00758   0.00017  -0.00001
    H41      Y    -0.00009  -0.00005   0.00507   0.00474   0.00015  -0.00002
    H41      Z     0.00001   0.00006  -0.02482  -0.02037  -0.00030   0.00004
    H42      X    -0.00003   0.00006  -0.00142  -0.00125  -0.00025   0.00002
    H42      Y     0.00013   0.00003  -0.00609  -0.00519  -0.00069   0.00003
    H42      Z     0.00014   0.00008  -0.00324  -0.00292  -0.00046   0.00002
    H43      X     0.00006  -0.00022  -0.00193  -0.00112   0.00015  -0.00006
    H43      Y    -0.00006   0.00035   0.00289   0.00150  -0.00014   0.00004
    H43      Z     0.00002  -0.00017  -0.00108  -0.00037   0.00011  -0.00002
    H44      X     0.00016   0.00011   0.00038  -0.00003   0.00003   0.00003
    H44      Y     0.00005   0.00002   0.00011  -0.00001   0.00005  -0.00000
    H44      Z    -0.00003  -0.00000   0.00003   0.00006   0.00001  -0.00000
    H45      X     0.00013  -0.00017  -0.00014   0.00004   0.00014  -0.00003
    H45      Y    -0.00020   0.00024   0.00022  -0.00001  -0.00018   0.00008
    H45      Z     0.00007  -0.00014  -0.00014  -0.00002   0.00014  -0.00009
    H46      X     0.00001   0.00003   0.00006   0.00003  -0.00006   0.00001
    H46      Y     0.00017   0.00009   0.00026   0.00005  -0.00068   0.00002
    H46      Z     0.00003   0.00008   0.00020  -0.00001  -0.00064   0.00004
    H47      X    -0.00085  -0.00094   0.00005   0.00006   0.00006  -0.00002
    H47      Y     0.00068  -0.00006   0.00011   0.00003   0.00004  -0.00004
    H47      Z    -0.00001   0.00008   0.00002   0.00005   0.00001  -0.00004
    H48      X     0.01372   0.00821   0.00038  -0.00038   0.00008   0.00000
    H48      Y    -0.00838  -0.00524  -0.00022   0.00030  -0.00007  -0.00001
    H48      Z    -0.00464  -0.00277  -0.00019   0.00018  -0.00003  -0.00000
    H49      X     0.00043   0.00026  -0.00004   0.00004  -0.00000   0.00001
    H49      Y    -0.00818  -0.00237   0.00062   0.00021  -0.00010   0.00001
    H49      Z     0.00531   0.00141  -0.00044   0.00003   0.00010   0.00002
    H71      X     0.01242  -0.00218   0.10535  -0.03665  -0.00040  -0.00015
    H71      Y    -0.01156   0.00193  -0.09695   0.03378   0.00042   0.00017
    H71      Z    -0.00425   0.00074  -0.03988   0.01330   0.00014   0.00010
    H72      X     0.00203  -0.00133   0.12393  -0.04746  -0.00040  -0.00008
    H72      Y    -0.00251   0.00160  -0.14844   0.05657   0.00044   0.00029
    H72      Z     0.00342  -0.00201   0.18932  -0.07126  -0.00057  -0.00028
    H52      X     0.00300   0.00258  -0.16581   0.08189   0.00084  -0.00002
    H52      Y    -0.00094  -0.00080   0.05247  -0.02476  -0.00025  -0.00004
    H52      Z    -0.01032  -0.00878   0.56402  -0.28671  -0.00298   0.00010
    H53      X     0.00440   0.00548  -0.21793   0.45516   0.00550  -0.00003
    H53      Y    -0.00389  -0.00470   0.18807  -0.38976  -0.00471  -0.00005
    H53      Z    -0.00138  -0.00171   0.06679  -0.15107  -0.00183  -0.00002
    H54      X    -0.00712  -0.00333   0.30323   0.31749   0.00404  -0.00004
    H54      Y     0.00722   0.00323  -0.30323  -0.31877  -0.00403  -0.00008
    H54      Z    -0.01045  -0.00470   0.43778   0.46569   0.00589  -0.00002
    H55      X     0.36330  -0.22520   0.00569   0.00318   0.00016  -0.00003
    H55      Y    -0.36980   0.22964  -0.00511  -0.00302  -0.00018   0.00001
    H55      Z    -0.27898   0.17297  -0.00431  -0.00265  -0.00014   0.00000
    H56      X     0.34187  -0.36751  -0.00386   0.00213   0.00015   0.00000
    H56      Y     0.11788  -0.12313  -0.00121   0.00077   0.00005  -0.00000
    H56      Z    -0.10559   0.11447   0.00121  -0.00064  -0.00005   0.00000
    H57      X     0.00695  -0.13156  -0.00278   0.00027   0.00002   0.00000
    H57      Y     0.03601  -0.44310  -0.00934   0.00086   0.00009   0.00001
    H57      Z     0.00818  -0.08024  -0.00169   0.00016   0.00002   0.00000
    H58      X     0.20477   0.28607   0.00665  -0.00063  -0.00003  -0.00001
    H58      Y    -0.20733  -0.28341  -0.00662   0.00064   0.00003   0.00001
    H58      Z    -0.14185  -0.19617  -0.00458   0.00044   0.00002   0.00001
    H59      X     0.51006   0.39362   0.01071   0.00042   0.00001  -0.00002
    H59      Y     0.17208   0.13346   0.00363   0.00009   0.00000  -0.00001
    H59      Z    -0.14310  -0.11004  -0.00299  -0.00010  -0.00001   0.00002
  
  Number of imaginary frequencies:   1
   
  Writing vibrational animation data to red_elim_TS_L1_PL747_3.vib
  Writing IR vibrational spectrum data to red_elim_TS_L1_PL747_3_vib.spm
  rotational symmetry number:  1

  rotational temperatures (K):      0.005822      0.003546      0.002770
   
  The Quasi-Harmonic approximation will be applied to compute
  vibrational constributions to thermodynamic properties.
  Frequencies will be adjusted to a minimum value of  100.00 cm^-1.

    1 vibrational frequencies below    0.0 cm-1 not included in zero-point
  energy or thermochemical analysis.  Set freqcut to change the frequency
  cutoff value.

  vibrational temperatures:
       mode:      2        3        4        5        6        7
  temp. (K):   143.88   143.88   143.88   143.88   143.88   143.88
   
       mode:      8        9       10       11       12       13
  temp. (K):   143.88   143.88   143.88   143.88   143.88   143.88
   
       mode:     14       15       16       17       18       19
  temp. (K):   155.89   159.56   170.30   178.97   185.27   192.80
   
       mode:     20       21       22       23       24       25
  temp. (K):   214.11   222.91   231.08   249.95   266.12   298.71
   
       mode:     26       27       28       29       30       31
  temp. (K):   305.12   315.26   334.42   337.71   344.62   354.21
   
       mode:     32       33       34       35       36       37
  temp. (K):   358.15   369.24   385.38   390.47   399.29   407.11
   
       mode:     38       39       40       41       42       43
  temp. (K):   425.62   427.26   450.48   466.81   470.43   477.59
   
       mode:     44       45       46       47       48       49
  temp. (K):   497.11   535.47   563.36   572.24   577.91   588.03
   
       mode:     50       51       52       53       54       55
  temp. (K):   589.23   594.29   600.89   607.64   615.09   628.63
   
       mode:     56       57       58       59       60       61
  temp. (K):   662.74   675.93   690.63   708.48   738.04   757.15
   
       mode:     62       63       64       65       66       67
  temp. (K):   792.17   796.16   802.91   841.25   850.06   887.85
   
       mode:     68       69       70       71       72       73
  temp. (K):   897.47   902.87   908.43   908.69   914.03   961.09
   
       mode:     74       75       76       77       78       79
  temp. (K):   984.50   997.21  1028.87  1030.51  1043.20  1090.01
   
       mode:     80       81       82       83       84       85
  temp. (K):  1097.18  1113.14  1117.33  1160.72  1165.91  1173.52
   
       mode:     86       87       88       89       90       91
  temp. (K):  1181.62  1197.83  1205.34  1213.14  1237.42  1245.52
   
       mode:     92       93       94       95       96       97
  temp. (K):  1255.49  1291.64  1330.96  1341.99  1344.55  1358.94
   
       mode:     98       99      100      101      102      103
  temp. (K):  1372.78  1376.17  1377.04  1383.84  1385.69  1410.08
   
       mode:    104      105      106      107      108      109
  temp. (K):  1411.08  1413.61  1416.19  1430.34  1441.50  1446.45
   
       mode:    110      111      112      113      114      115
  temp. (K):  1448.12  1454.34  1461.59  1464.23  1468.07  1472.11
   
       mode:    116      117      118      119      120      121
  temp. (K):  1483.18  1495.41  1503.08  1515.56  1516.11  1523.80
   
       mode:    122      123      124      125      126      127
  temp. (K):  1524.64  1529.60  1535.68  1602.32  1603.12  1615.64
   
       mode:    128      129      130      131      132      133
  temp. (K):  1630.53  1667.08  1716.73  1721.47  1732.98  1733.68
   
       mode:    134      135      136      137      138      139
  temp. (K):  1738.28  1746.49  1749.26  1752.20  1756.55  1763.79
   
       mode:    140      141      142      143      144      145
  temp. (K):  1772.93  1782.30  1790.81  1799.14  1827.36  1840.57
   
       mode:    146      147      148      149      150      151
  temp. (K):  1876.72  1894.78  1918.19  1923.69  1929.14  1944.21
   
       mode:    152      153      154      155      156      157
  temp. (K):  1978.65  1984.71  1986.99  2030.19  2042.73  2047.86
   
       mode:    158      159      160      161      162      163
  temp. (K):  2048.95  2053.30  2068.39  2079.89  2090.99  2105.25
   
       mode:    164      165      166      167      168      169
  temp. (K):  2132.38  2145.50  2155.52  2157.14  2161.46  2166.14
   
       mode:    170      171      172      173      174      175
  temp. (K):  2168.83  2171.94  2175.72  2177.42  2183.59  2187.13
   
       mode:    176      177      178      179      180      181
  temp. (K):  2193.03  2200.06  2207.52  2213.41  2214.57  2219.23
   
       mode:    182      183      184      185      186      187
  temp. (K):  2220.73  2226.54  2230.17  2331.30  2340.47  2358.02
   
       mode:    188      189      190      191      192      193
  temp. (K):  2361.01  2376.42  2378.50  2382.02  2401.22  2403.27
   
       mode:    194      195      196      197      198      199
  temp. (K):  4371.14  4374.27  4376.93  4382.54  4383.73  4388.60
   
       mode:    200      201      202      203      204      205
  temp. (K):  4411.83  4471.44  4483.83  4486.55  4488.87  4496.53
   
       mode:    206      207      208      209      210      211
  temp. (K):  4500.40  4516.39  4524.98  4539.60  4542.32  4547.65
   
       mode:    212      213      214      215      216      217
  temp. (K):  4554.90  4555.94  4559.39  4563.79  4573.14  4580.90
   
       mode:    218      219      220      221      222      223
  temp. (K):  4581.46  4582.84  4583.53  4589.66  4593.09  4605.84
   
       mode:    224      225      226      227      228      229
  temp. (K):  4606.14  4608.47  4614.98  4615.13  4617.27  4618.33
   
       mode:    230      231      232      233      234
  temp. (K):  4626.07  4627.64  4645.08  4646.90  5157.64
   
   
  Thermodynamic properties calculated assuming an ideal gas

  In the table below, the units for temperature
  are kelvins, the units for U, H, and G are
  kcal/mol and the units for Cv and S are cal/(mol K)

  The zero point energy (ZPE):    423.859 kcal/mol
  is not included in U, H, or G in the table below
  
 
  =============================================================================
  Thermodynamic properties for P = 1.00E+00 atm, calculated at   1 temperatures


  T =   298.15 K, P = 1.00E+00 atm
   
                  U         Cv          S          H          G        ln(Q)
              =========  =========  =========  =========  =========  =========
  trans.          0.889      2.981     45.210      1.481    -11.998   20.25056
  rot.            0.889      2.981     37.672      0.889    -10.343   17.45732
  vib.           22.141    147.927    133.259     22.141    -17.590   29.68884
  elec.           0.000      0.000      0.000      0.000      0.000    0.00000
  ----------------------------------------------------------------------------
  total          23.918    153.888    216.141     24.511    -39.932   67.39672
   
   Total internal energy, Utot(SCFE + ZPE + U):   -1979.923071 hartrees
   Total enthalpy, Htot (Utot + nRT), with n=1:   -1979.922127 hartrees
    Total Gibbs free energy, Gtot (Htot - T*S):   -1980.024823 hartrees
   
  end of program freq
   
 Time(freq)  user:       0.378  user+sys:       0.378  wallclock:       0.466
  
  start of program post
  
  Writing input files for PBF
  end of program post
   
 Time(post)  user:       0.201  user+sys:       0.201  wallclock:       0.153

 Total cpu seconds     user:  102923.071   user+sys:  102923.071
  
 Total elapsed time:    59126 seconds

Job red_elim_TS_L1_PL747_3 completed on bp1-compute059.data.bp.acrc.priv at Fri Apr 11 06:36:33 2025
