Job red_elim_complex_L1_PL747 started on bp1-compute050.data.bp.acrc.priv at Wed Apr  2 01:24:09 2025
jobid: bp1-compute050-0-67ec8366

  +--------------------------------------------------------------------+
  |  Jaguar version 12.5, release 138                                  |
  |                                                                    |
  |  Copyright Schrodinger, Inc.                                       |
  |  All Rights Reserved.                                              |
  |                                                                    |
  |  The following have contributed to Jaguar (listed alphabetically): |
  |  Ty Balduf, Mike Beachy, Chandler Bennett, Art Bochevarov,         |
  |  Dale Braden, Yixiang Cao, Alan Chien, Chris Cortis,               |
  |  Rich Friesner, Jim Furness, Bill Goddard, Hod Greeley,            |
  |  Tom Hughes, Leif Jacobson, Jean-Marc Langlois, Daniel Levine,     |
  |  Rob Murphy, Dean Philipp, Tom Pollard, Murco Ringnalda,           |
  |  Daniel Mainz, Pablo Videla, Mark Watson, Haoyu Yu.                |
  |                                                                    |
  |  Use of this program should be acknowledged in publications as:    |
  |                                                                    |
  |  Jaguar, version 12.5, Schrodinger, Inc., New York, NY, 2024.      |
  |                                                                    |
  |  A. D. Bochevarov, E. Harder, T. F. Hughes, J. R. Greenwood,       |
  |  D. A. Braden, D. M. Philipp, D. Rinaldo, M. D. Halls,             |
  |  J. Zhang, R. A. Friesner, "Jaguar: A High-Performance Quantum     |
  |  Chemistry Software Program with Strengths in Life and Materials   |
  |  Sciences", Int. J. Quantum Chem., 2013, 113(18), 2110-2142.       |
  +--------------------------------------------------------------------+
  
  start of program pre
  
  Job name: red_elim_complex_L1_PL747
  Executables used: /software/local/apps/schrodinger2024-3/jaguar-v12.5/bin/Linux-x86_64
  Temporary files : /tmp/ar21627/red_elim_complex_L1_PL747#bp1-compute050-0-67ec8366
  Basis file : using default basis file from /software/local/apps/schrodinger2024-3
  Maestro file (input):  red_elim_complex_L1_PL747.mae
  Maestro file (output): red_elim_complex_L1_PL747.01.mae
  
 Contents of input file: &gen and (if present) &atomic sections only
 ----------------Contents start----------------
&gen
dftname=b3pw91-d3
basis=6-31G*
numd=5
ip11=2
iaccg=3
isolv=2
igeopt=1
solvent=benzene
ifreq=1
&
&atomic
atom basis
Pd2 lacv3p*
&
 -----------------Contents end-----------------
 
  PS calculation requested. Using PS version of 6-31g*
  basis set:               non_standard                    
  net molecular charge:    0
  multiplicity:            1
  
  Using up to   4 threads per process
  
  This run will use ECP on 1 atom
  number of basis functions....          649
  
  input atom labels were not unique
  original atom labels:
 P1       Pd2      N2       C16      C17      C18      C19      C20     
 C21      F22      H23      H24      H25      H26      H30      C28     
 C29      C30      C31      C32      C33      H34      H35      H36     
 H37      H38      C6       C7       C8       C9       C10      C11     
 C12      C13      C14      C15      C16      C17      C18      C19     
 C20      C21      C22      C23      C24      C25      C26      C27     
 C28      H29      H30      H31      H32      H33      H34      H35     
 H36      H37      H38      H39      H40      H41      H42      H43     
 H44      H45      H46      H47      H48      H49      H50      H51     
 H52      H53      H54      H55      H56      H57      H58      H59     
  new atom labels:
 P1       Pd2      N3       C4       C5       C6       C7       C8      
 C9       F10      H11      H12      H13      H14      H15      C16     
 C17      C18      C19      C20      C21      H22      H23      H24     
 H25      H26      C27      C28      C29      C30      C31      C32     
 C33      C34      C35      C36      C37      C38      C39      C40     
 C41      C42      C43      C44      C45      C46      C47      C48     
 C49      H50      H51      H52      H53      H54      H55      H56     
 H57      H58      H59      H60      H61      H62      H63      H64     
 H65      H66      H67      H68      H69      H70      H71      H72     
 H73      H74      H75      H76      H77      H78      H79      H80     
 
  
 Input geometry:
                                   angstroms
  atom               x                 y                 z
  P1            0.0000000000      0.0000000000      0.0000000000 
  Pd2           0.0000000000      0.0000000000      2.2372247470 
  N3            3.6028119467      0.0000000000      4.8907452314 
  C4           -0.5870665381      0.7444484452      4.4457014812 
  C5            0.3312217589      1.8005969248      4.6196257807 
  C6            1.6923097801      1.5734002052      4.8126200131 
  C7            2.2246526163      0.2701511467      4.7653994282 
  C8            1.3317018124     -0.7914093582      4.5350388636 
  C9           -0.0548069600     -0.5707862879      4.4190706022 
  F10          -1.9007655275      0.9631192733      4.5028594562 
  H11          -0.0456376397      2.8216739840      4.6526301188 
  H12           2.3412913844      2.4245568961      4.9937145601 
  H13           1.7106243663     -1.8069642967      4.4566821476 
  H14          -0.7292870340     -1.4269715828      4.4102190347 
  H15           4.2407940099      0.7795456251      4.8173456027 
  C16           4.7221022400     -2.7392151271      7.9751511998 
  C17           4.4535113324     -3.2115414229      6.6799210872 
  C18           4.0857220036     -2.3114584873      5.6664113592 
  C19           3.9865235825     -0.9390492560      5.9481317438 
  C20           4.2550883036     -0.4666588747      7.2432896948 
  C21           4.6229038188     -1.3668058958      8.2568715845 
  H22           5.0110440116     -3.4463361869      8.7713823342 
  H23           4.5314815990     -4.2898004082      6.4587134967 
  H24           3.8747242929     -2.6825323396      4.6489004687 
  H25           4.1771372616      0.6114601947      7.4645046294 
  H26           4.8339015102     -0.9957320460      9.2743824798 
  C27           2.4859719890      0.0000000000     -1.6223129383 
  C28           1.8417756257      0.2769820460     -0.2399989394 
  C29           2.6663087097     -0.6082138621      0.7365118888 
  C30           2.2012755100      1.7300295336      0.1185451052 
  C31          -1.0442422168      1.0525620250     -1.2245682407 
  C32          -1.4860189141      2.4068635562     -0.6186336630 
  C33          -2.3367912708      0.3331721453     -1.7052096288 
  C34          -0.3250889897      1.4259492335     -2.5340722034 
  C35          -0.6347117209     -1.6922415293     -0.3828062666 
  C36          -1.6302748092     -2.3927843535      0.2399897583 
  C37           0.0498481859     -2.2307293172     -1.6154187915 
  C38          -2.5205641274     -1.8331540020      1.3175461603 
  C39          -3.2361967390     -2.6805096353      2.2022542455 
  C40          -4.0600273760     -2.2250561135      3.2408307573 
  C41          -4.2109305406     -0.8520848934      3.4784760050 
  C42          -3.5076587701      0.0284255940      2.6542490346 
  C43          -2.6925367435     -0.4708665801      1.6203982685 
  C44          -1.8623523873     -3.8259187935     -0.1349257984 
  C45          -3.1554951512     -4.4027058888     -0.0568525067 
  C46          -3.4421022397     -5.7330231762     -0.4105038771 
  C47          -2.4188354248     -6.5759441177     -0.8636145833 
  C48          -1.1216326943     -6.0523033683     -0.9583005987 
  C49          -0.8732314023     -4.7159716000     -0.6057184053 
  H50           2.0813719627      0.6072601128     -2.4483495804 
  H51           2.4311175010     -1.0725477374     -1.9263398058 
  H52           3.5745669595      0.2314293317     -1.6211068800 
  H53           2.4573412261     -0.3720653966      1.7972151899 
  H54           3.7578638055     -0.4604751279      0.6100969397 
  H55           2.4638157099     -1.6856423925      0.5552817953 
  H56           1.6519446043      2.4722168973     -0.4992230335 
  H57           3.2811668996      1.9419156510     -0.0149459428 
  H58           1.9871346933      1.9556400374      1.1879195070 
  H59          -0.6157427779      3.0122505336     -0.2973626647 
  H60          -2.1831377681      2.2877233763      0.2375526023 
  H61          -2.0479247989      3.0245050227     -1.3585909559 
  H62          -3.0368992754      0.0578162296     -0.8875143619 
  H63          -2.1139318149     -0.5972890217     -2.2671034618 
  H64          -2.9294144919      0.9726865205     -2.3898585036 
  H65           0.5506695379      2.0950297279     -2.3609297955 
  H66          -0.9761293915      2.0030120040     -3.2222182302 
  H67          -0.0026444036      0.5379374497     -3.1141278566 
  H68          -0.5594442697     -2.9507240190     -2.2036197206 
  H69           1.0543217752     -2.6543280660     -1.3763938799 
  H70           0.2089887201     -1.4238140282     -2.3645129156 
  H71          -3.1419181795     -3.7712210074      2.1619894233 
  H72          -4.5804963435     -2.9436655974      3.8935462111 
  H73          -4.8535231849     -0.4799595536      4.2930319729 
  H74          -3.5899332507      1.1152026592      2.8130272456 
  H75          -2.1961053731      0.2994317511      1.0380707185 
  H76          -4.0307812875     -3.7991870334      0.2351071833 
  H77          -4.4739698759     -6.1207038115     -0.3304170105 
  H78          -2.6247252347     -7.6205234697     -1.1315014316 
  H79          -0.3025493460     -6.7027232928     -1.3096642141 
  H80           0.1864454950     -4.4198743842     -0.6757991606 
   
  principal moments of inertia:
        amu*angstrom^2:              4677.81966              8632.68915              9388.72155
                g*cm^2:          7.76770133E-37          1.43349158E-36          1.55903370E-36
   
  rotational constants:
               cm^(-1):      0.00360374      0.00195277      0.00179552
                   GHz:      0.10803730      0.05854248      0.05382831
   
  Molecular weight:     631.20 amu
   
  Stoichiometry: PdC35PNH41F
  Molecular Point Group: C1      
  Point Group used: C1
  
 
Number of optimization coordinates:   277
Number of independent coordinates:    277
Number of non-redundant coordinates:  234
Number of frozen coordinates:           0
Number of harmonic constraints:         0
 
Number of geometric degrees of freedom:   234
Maximum geometric degrees of freedom:     234
 " " " " " excluding dummy atoms:         234
 
 
  bond lengths (angstroms):
 
 P1      -Pd2     :   2.237225      P1      -C28     :   1.877886
 P1      -C31     :   1.922991      P1      -C35     :   1.847453
 Pd2     -C4      :   2.403377      Pd2     -C9      :   2.255937
 N3      -C7      :   1.409970      N3      -H15     :   1.010000
 N3      -C19     :   1.465304      C4      -C5      :   1.410302
 C4      -C9      :   1.419102      C4      -F10     :   1.333000
 C5      -C6      :   1.393351      C5      -H11     :   1.088903
 C6      -C7      :   1.408573      C6      -H12     :   1.085560
 C7      -C8      :   1.406178      C8      -C9      :   1.408733
 C8      -H13     :   1.086772      C9      -H14     :   1.089979
 C16     -C17     :   1.404583      C16     -C21     :   1.404533
 C16     -H22     :   1.103400      C17     -C18     :   1.404500
 C17     -H23     :   1.103474      C18     -C19     :   1.404533
 C18     -H24     :   1.103424      C19     -C20     :   1.404533
 C20     -C21     :   1.404600      C20     -H25     :   1.103337
 C21     -H26     :   1.103424      C27     -C28     :   1.550000
 C27     -H50     :   1.102181      C27     -H51     :   1.116154
 C27     -H52     :   1.112924      C28     -C29     :   1.554670
 C28     -C30     :   1.539201      C29     -H53     :   1.106583
 C29     -H54     :   1.108738      C29     -H55     :   1.111171
 C30     -H56     :   1.110965      C30     -H57     :   1.108549
 C30     -H58     :   1.113696      C31     -C32     :   1.548049
 C31     -C33     :   1.555385      C31     -C34     :   1.539935
 C32     -H59     :   1.107740      C32     -H60     :   1.110506
 C32     -H61     :   1.115686      C33     -H62     :   1.111124
 C33     -H63     :   1.109572      C33     -H64     :   1.108569
 C34     -H65     :   1.115616      C34     -H66     :   1.109234
 C34     -H67     :   1.108603      C35     -C36     :   1.367399
 C35     -C37     :   1.509280      C36     -C38     :   1.505632
 C36     -C44     :   1.499432      C37     -H68     :   1.111580
 C37     -H69     :   1.116036      C37     -H70     :   1.112466
 C38     -C39     :   1.418749      C38     -C43     :   1.406101
 C39     -C40     :   1.401705      C39     -H71     :   1.095519
 C40     -C41     :   1.401534      C40     -H72     :   1.101510
 C41     -C42     :   1.396152      C41     -H73     :   1.102227
 C42     -C43     :   1.408036      C42     -H74     :   1.101392
 C43     -H75     :   1.085776      C44     -C45     :   1.418096
 C44     -C49     :   1.411453      C45     -C46     :   1.406043
 C45     -H76     :   1.102543      C46     -C47     :   1.401035
 C46     -H77     :   1.105197      C47     -C48     :   1.402106
 C47     -H78     :   1.097862      C48     -C49     :   1.404208
 C48     -H79     :   1.103359      C49     -H80     :   1.102497
 
  bond angles:
 
 C28     -P1      -Pd2     :  97.342638  C31     -P1      -Pd2     : 129.553898
 C31     -P1      -C28     : 111.744572  C35     -P1      -Pd2     : 101.958762
 C35     -P1      -C28     : 116.460285  C35     -P1      -C31     : 100.536212
 C4      -Pd2     -P1      : 156.766629  C9      -Pd2     -P1      : 165.275065
 C9      -Pd2     -C4      :  35.284987  H15     -N3      -C7      : 117.585448
 C19     -N3      -C7      : 116.288852  C19     -N3      -H15     : 112.436635
 C5      -C4      -Pd2     : 100.733458  C9      -C4      -Pd2     :  66.675353
 C9      -C4      -C5      : 116.882693  F10     -C4      -Pd2     : 109.326162
 F10     -C4      -C5      : 120.901465  F10     -C4      -C9      : 121.498685
 C6      -C5      -C4      : 122.074592  H11     -C5      -C4      : 118.726060
 H11     -C5      -C6      : 119.129165  C7      -C6      -C5      : 121.024324
 H12     -C6      -C5      : 118.636186  H12     -C6      -C7      : 120.337843
 C6      -C7      -N3      : 122.935719  C8      -C7      -N3      : 119.380807
 C8      -C7      -C6      : 117.643977  C9      -C8      -C7      : 121.349523
 H13     -C8      -C7      : 119.726173  H13     -C8      -C9      : 118.919471
 C4      -C9      -Pd2     :  78.039661  C8      -C9      -Pd2     :  95.470370
 C8      -C9      -C4      : 120.847442  H14     -C9      -Pd2     : 101.883610
 H14     -C9      -C4      : 119.740527  H14     -C9      -C8      : 119.123130
 C21     -C16     -C17     : 120.002746  H22     -C16     -C17     : 120.000393
 H22     -C16     -C21     : 119.996861  C18     -C17     -C16     : 120.000393
 H23     -C17     -C16     : 119.995826  H23     -C17     -C18     : 120.003781
 C19     -C18     -C17     : 119.996860  H24     -C18     -C17     : 119.999284
 H24     -C18     -C19     : 120.003855  C18     -C19     -N3      : 119.996860
 C20     -C19     -N3      : 119.996860  C20     -C19     -C18     : 120.006279
 C21     -C20     -C19     : 119.996860  H25     -C20     -C19     : 120.001259
 H25     -C20     -C21     : 120.001881  C20     -C21     -C16     : 119.996860
 H26     -C21     -C16     : 120.003855  H26     -C21     -C20     : 119.999284
 H50     -C27     -C28     : 114.667671  H51     -C27     -C28     : 113.216762
 H51     -C27     -H50     : 107.893773  H52     -C27     -C28     : 111.616907
 H52     -C27     -H50     : 104.199965  H52     -C27     -H51     : 104.370416
 C27     -C28     -P1      : 119.685427  C29     -C28     -P1      : 110.848869
 C29     -C28     -C27     : 103.768090  C30     -C28     -P1      : 109.788049
 C30     -C28     -C27     : 106.222348  C30     -C28     -C29     : 105.505012
 H53     -C29     -C28     : 112.359211  H54     -C29     -C28     : 112.002951
 H54     -C29     -H53     : 105.472016  H55     -C29     -C28     : 110.670603
 H55     -C29     -H53     : 109.198763  H55     -C29     -H54     : 106.858970
 H56     -C30     -C28     : 112.683762  H57     -C30     -C28     : 112.328328
 H57     -C30     -H56     : 106.680106  H58     -C30     -C28     : 111.715700
 H58     -C30     -H56     : 107.669515  H58     -C30     -H57     : 105.320351
 C32     -C31     -P1      : 112.616616  C33     -C31     -P1      : 113.259062
 C33     -C31     -C32     : 106.764108  C34     -C31     -P1      : 114.874709
 C34     -C31     -C32     : 104.714106  C34     -C31     -C33     : 103.736378
 H59     -C32     -C31     : 111.557046  H60     -C32     -C31     : 112.772054
 H60     -C32     -H59     : 109.159948  H61     -C32     -C31     : 111.619353
 H61     -C32     -H59     : 106.587826  H61     -C32     -H60     : 104.748381
 H62     -C33     -C31     : 114.256512  H63     -C33     -C31     : 112.174739
 H63     -C33     -H62     : 106.942602  H64     -C33     -C31     : 111.609504
 H64     -C33     -H62     : 105.107199  H64     -C33     -H63     : 106.163418
 H65     -C34     -C31     : 112.336163  H66     -C34     -C31     : 112.308433
 H66     -C34     -H65     : 104.182669  H67     -C34     -C31     : 112.739674
 H67     -C34     -H65     : 109.468348  H67     -C34     -H66     : 105.237954
 C36     -C35     -P1      : 128.684936  C37     -C35     -P1      : 109.889446
 C37     -C35     -C36     : 121.292777  C38     -C36     -C35     : 124.475500
 C44     -C36     -C35     : 119.240168  C44     -C36     -C38     : 116.275301
 H68     -C37     -C35     : 114.496636  H69     -C37     -C35     : 111.637587
 H69     -C37     -H68     : 111.150763  H70     -C37     -C35     : 110.856140
 H70     -C37     -H68     : 101.064513  H70     -C37     -H69     : 106.904158
 C39     -C38     -C36     : 121.503772  C43     -C38     -C36     : 125.914389
 C43     -C38     -C39     : 112.497504  C40     -C39     -C38     : 124.362798
 H71     -C39     -C38     : 121.891101  H71     -C39     -C40     : 113.660382
 C41     -C40     -C39     : 120.478961  H72     -C40     -C39     : 120.316905
 H72     -C40     -C41     : 119.192149  C42     -C41     -C40     : 117.611883
 H73     -C41     -C40     : 121.252466  H73     -C41     -C42     : 121.132845
 C43     -C42     -C41     : 120.095366  H74     -C42     -C41     : 119.971301
 H74     -C42     -C43     : 119.933325  C42     -C43     -C38     : 124.924857
 H75     -C43     -C38     : 121.057891  H75     -C43     -C42     : 114.010856
 C45     -C44     -C36     : 121.072537  C49     -C44     -C36     : 125.285237
 C49     -C44     -C45     : 113.635329  C46     -C45     -C44     : 123.838833
 H76     -C45     -C44     : 121.055335  H76     -C45     -C46     : 115.004393
 C47     -C46     -C45     : 120.112978  H77     -C46     -C45     : 120.263401
 H77     -C46     -C47     : 119.623423  C48     -C47     -C46     : 118.220572
 H78     -C47     -C46     : 120.956461  H78     -C47     -C48     : 120.821812
 C49     -C48     -C47     : 120.140430  H79     -C48     -C47     : 119.219895
 H79     -C48     -C49     : 120.639506  C48     -C49     -C44     : 124.048634
 H80     -C49     -C44     : 121.695734  H80     -C49     -C48     : 114.183109
 
  torsional angles:
 
 P1      -Pd2     -C4      -C5      : -82.913656
 P1      -Pd2     -C4      -C9      : 162.286955
 P1      -Pd2     -C4      -F10     :  45.431764
 P1      -Pd2     -C9      -C4      :-151.823722
 P1      -Pd2     -C9      -C8      :  87.762344
 P1      -Pd2     -C9      -H14     : -33.554844
 P1      -C28     -C27     -H50     :  60.423601
 P1      -C28     -C27     -H51     : -63.971781
 P1      -C28     -C27     -H52     : 178.610880
 P1      -C28     -C29     -H53     : -61.557565
 P1      -C28     -C29     -H54     : 179.931233
 P1      -C28     -C29     -H55     :  60.802319
 P1      -C28     -C30     -H56     : -59.094664
 P1      -C28     -C30     -H57     :-179.623589
 P1      -C28     -C30     -H58     :  62.275757
 P1      -C31     -C32     -H59     :  58.116114
 P1      -C31     -C32     -H60     : -65.152471
 P1      -C31     -C32     -H61     : 177.243530
 P1      -C31     -C33     -H62     :  59.561348
 P1      -C31     -C33     -H63     : -62.364252
 P1      -C31     -C33     -H64     : 178.637193
 P1      -C31     -C34     -H65     : -64.845351
 P1      -C31     -C34     -H66     : 178.096263
 P1      -C31     -C34     -H67     :  59.410745
 P1      -C35     -C36     -C38     :   6.457709
 P1      -C35     -C36     -C44     :-172.406568
 P1      -C35     -C37     -H68     :-151.247671
 P1      -C35     -C37     -H69     :  81.355884
 P1      -C35     -C37     -H70     : -37.714256
 Pd2     -P1      -C28     -C27     : 164.064689
 Pd2     -P1      -C28     -C29     :  43.384917
 Pd2     -P1      -C28     -C30     : -72.784384
 Pd2     -P1      -C31     -C32     :  26.616122
 Pd2     -P1      -C31     -C33     : -94.660115
 Pd2     -P1      -C31     -C34     : 146.381420
 Pd2     -P1      -C35     -C36     :  40.002308
 Pd2     -P1      -C35     -C37     :-144.206813
 Pd2     -C4      -C5      -C6      : -71.748605
 Pd2     -C4      -C5      -H11     : 111.326007
 Pd2     -C4      -C9      -C8      :  89.254405
 Pd2     -C4      -C9      -H14     : -96.972894
 Pd2     -C9      -C4      -C5      : -90.504365
 Pd2     -C9      -C4      -F10     :  99.117909
 Pd2     -C9      -C8      -C7      :  83.408039
 Pd2     -C9      -C8      -H13     : -97.394042
 N3      -C7      -C6      -C5      : 176.857126
 N3      -C7      -C6      -H12     :  -2.669570
 N3      -C7      -C8      -C9      : 179.233852
 N3      -C7      -C8      -H13     :   0.042302
 N3      -C19     -C18     -C17     : 180.000000
 N3      -C19     -C18     -H24     :   0.000000
 N3      -C19     -C20     -C21     : 179.999999
 N3      -C19     -C20     -H25     :  -0.000001
 C4      -Pd2     -P1      -C28     : 119.706512
 C4      -Pd2     -P1      -C31     :  -6.513609
 C4      -Pd2     -P1      -C35     :-121.181308
 C4      -Pd2     -C9      -C8      :-120.413934
 C4      -Pd2     -C9      -H14     : 118.268878
 C4      -C5      -C6      -C7      :   3.700747
 C4      -C5      -C6      -H12     :-176.764674
 C4      -C9      -C8      -C7      :   4.086057
 C4      -C9      -C8      -H13     :-176.716024
 C5      -C4      -Pd2     -C9      : 114.799388
 C5      -C4      -C9      -C8      :  -1.249960
 C5      -C4      -C9      -H14     : 172.522741
 C5      -C6      -C7      -C8      :  -0.839770
 C6      -C5      -C4      -C9      :  -2.586277
 C6      -C5      -C4      -F10     : 167.852571
 C6      -C7      -N3      -H15     : -13.028486
 C6      -C7      -N3      -C19     : 124.565051
 C6      -C7      -C8      -C9      :  -2.984375
 C6      -C7      -C8      -H13     : 177.824075
 C7      -N3      -C19     -C18     :  91.254032
 C7      -N3      -C19     -C20     : -88.745968
 C7      -C6      -C5      -H11     :-179.385855
 C7      -C8      -C9      -H14     :-169.724537
 C8      -C7      -N3      -H15     : 164.630145
 C8      -C7      -N3      -C19     : -57.776318
 C8      -C7      -C6      -H12     : 179.633534
 C8      -C9      -C4      -F10     :-171.627686
 C9      -Pd2     -P1      -C28     :-104.037271
 C9      -Pd2     -P1      -C31     : 129.742608
 C9      -Pd2     -P1      -C35     :  15.074909
 C9      -Pd2     -C4      -F10     :-116.855191
 C9      -C4      -C5      -H11     :-179.511665
 F10     -C4      -C5      -H11     :  -9.072817
 F10     -C4      -C9      -H14     :   2.145015
 H11     -C5      -C6      -H12     :   0.148724
 H13     -C8      -C9      -H14     :   9.473381
 H15     -N3      -C19     -C18     :-129.037283
 H15     -N3      -C19     -C20     :  50.962717
 C16     -C17     -C18     -C19     :   0.000000
 C16     -C17     -C18     -H24     :-179.999999
 C16     -C21     -C20     -C19     :   0.000000
 C16     -C21     -C20     -H25     : 180.000000
 C17     -C16     -C21     -C20     :   0.000000
 C17     -C16     -C21     -H26     : 179.999999
 C17     -C18     -C19     -C20     :   0.000000
 C18     -C17     -C16     -C21     :   0.000000
 C18     -C17     -C16     -H22     : 179.999999
 C18     -C19     -C20     -C21     :   0.000000
 C18     -C19     -C20     -H25     : 179.999999
 C19     -C18     -C17     -H23     : 180.000000
 C19     -C20     -C21     -H26     :-179.999999
 C20     -C19     -C18     -H24     : 180.000000
 C20     -C21     -C16     -H22     :-179.999999
 C21     -C16     -C17     -H23     : 180.000000
 H22     -C16     -C17     -H23     :  -0.000001
 H22     -C16     -C21     -H26     :  -0.000001
 H23     -C17     -C18     -H24     :   0.000000
 H25     -C20     -C21     -H26     :   0.000001
 C27     -C28     -P1      -C31     : -57.977571
 C27     -C28     -P1      -C35     :  56.756994
 C27     -C28     -C29     -H53     : 168.730180
 C27     -C28     -C29     -H54     :  50.218977
 C27     -C28     -C29     -H55     : -68.909937
 C27     -C28     -C30     -H56     :  71.659901
 C27     -C28     -C30     -H57     : -48.869024
 C27     -C28     -C30     -H58     :-166.969678
 C28     -P1      -C31     -C32     : -93.906048
 C28     -P1      -C31     -C33     : 144.817715
 C28     -P1      -C31     -C34     :  25.859250
 C28     -P1      -C35     -C36     : 144.559309
 C28     -P1      -C35     -C37     : -39.649812
 C29     -C28     -P1      -C31     :-178.657343
 C29     -C28     -P1      -C35     : -63.922778
 C29     -C28     -C27     -H50     :-175.418780
 C29     -C28     -C27     -H51     :  60.185837
 C29     -C28     -C27     -H52     : -57.231501
 C29     -C28     -C30     -H56     :-178.588850
 C29     -C28     -C30     -H57     :  60.882225
 C29     -C28     -C30     -H58     : -57.218429
 C30     -C28     -P1      -C31     :  65.173356
 C30     -C28     -P1      -C35     : 179.907921
 C30     -C28     -C27     -H50     : -64.445286
 C30     -C28     -C27     -H51     : 171.159331
 C30     -C28     -C27     -H52     :  53.741993
 C30     -C28     -C29     -H53     :  57.232106
 C30     -C28     -C29     -H54     : -61.279096
 C30     -C28     -C29     -H55     : 179.591989
 C31     -P1      -C35     -C36     : -94.544224
 C31     -P1      -C35     -C37     :  81.246655
 C32     -C31     -P1      -C35     : 141.891313
 C32     -C31     -C33     -H62     : -64.954754
 C32     -C31     -C33     -H63     : 173.119646
 C32     -C31     -C33     -H64     :  54.121091
 C32     -C31     -C34     -H65     :  59.211664
 C32     -C31     -C34     -H66     : -57.846722
 C32     -C31     -C34     -H67     :-176.532241
 C33     -C31     -P1      -C35     :  20.615076
 C33     -C31     -C32     -H59     :-176.975318
 C33     -C31     -C32     -H60     :  59.756098
 C33     -C31     -C32     -H61     : -57.847901
 C33     -C31     -C34     -H65     : 171.000437
 C33     -C31     -C34     -H66     :  53.942051
 C33     -C31     -C34     -H67     : -64.743467
 C34     -C31     -P1      -C35     : -98.343389
 C34     -C31     -C32     -H59     : -67.371767
 C34     -C31     -C32     -H60     : 169.359648
 C34     -C31     -C32     -H61     :  51.755650
 C34     -C31     -C33     -H62     :-175.241344
 C34     -C31     -C33     -H63     :  62.833056
 C34     -C31     -C33     -H64     : -56.165499
 C35     -C36     -C38     -C39     :-160.235098
 C35     -C36     -C38     -C43     :  16.168980
 C35     -C36     -C44     -C45     :-149.696363
 C35     -C36     -C44     -C49     :  29.285990
 C36     -C35     -C37     -H68     :  24.907935
 C36     -C35     -C37     -H69     :-102.488509
 C36     -C35     -C37     -H70     : 138.441351
 C36     -C38     -C39     -C40     : 178.726145
 C36     -C38     -C39     -H71     :   2.308983
 C36     -C38     -C43     -C42     :-178.439997
 C36     -C38     -C43     -H75     :   2.536328
 C36     -C44     -C45     -C46     : 179.109877
 C36     -C44     -C45     -H76     :   2.957507
 C36     -C44     -C49     -C48     :-179.550474
 C36     -C44     -C49     -H80     :   3.728784
 C37     -C35     -C36     -C38     :-168.909534
 C37     -C35     -C36     -C44     :  12.226189
 C38     -C36     -C44     -C45     :  31.347763
 C38     -C36     -C44     -C49     :-149.669883
 C38     -C39     -C40     -C41     :  -0.866591
 C38     -C39     -C40     -H72     :-179.597121
 C38     -C43     -C42     -C41     :   0.617818
 C38     -C43     -C42     -H74     :-179.415086
 C39     -C38     -C36     -C44     :  18.659704
 C39     -C38     -C43     -C42     :  -1.758124
 C39     -C38     -C43     -H75     : 179.218201
 C39     -C40     -C41     -C42     :  -0.456317
 C39     -C40     -C41     -H73     :-179.853482
 C40     -C39     -C38     -C43     :   1.877878
 C40     -C41     -C42     -C43     :   0.577604
 C40     -C41     -C42     -H74     :-179.389480
 C41     -C40     -C39     -H71     : 175.812513
 C41     -C42     -C43     -H75     : 179.702229
 C42     -C41     -C40     -H72     : 178.288383
 C43     -C38     -C36     -C44     :-164.936218
 C43     -C38     -C39     -H71     :-174.539284
 C43     -C42     -C41     -H73     : 179.975530
 C44     -C45     -C46     -C47     :   0.421801
 C44     -C45     -C46     -H77     :-179.740833
 C44     -C49     -C48     -C47     :   0.549223
 C44     -C49     -C48     -H79     :-179.299700
 C45     -C44     -C49     -C48     :  -0.501907
 C45     -C44     -C49     -H80     :-177.222650
 C45     -C46     -C47     -C48     :  -0.381911
 C45     -C46     -C47     -H78     : 179.230315
 C46     -C45     -C44     -C49     :   0.016620
 C46     -C47     -C48     -C49     :  -0.075670
 C46     -C47     -C48     -H79     : 179.775393
 C47     -C46     -C45     -H76     : 176.785067
 C47     -C48     -C49     -H80     : 177.490866
 C48     -C47     -C46     -H77     : 179.779681
 C49     -C44     -C45     -H76     :-176.135750
 C49     -C48     -C47     -H78     :-179.688441
 H71     -C39     -C40     -H72     :  -2.918018
 H72     -C40     -C41     -H73     :  -1.108782
 H73     -C41     -C42     -H74     :   0.008447
 H74     -C42     -C43     -H75     :  -0.330674
 H76     -C45     -C46     -H77     :  -3.377567
 H77     -C46     -C47     -H78     :  -0.608094
 H78     -C47     -C48     -H79     :   0.162623
 H79     -C48     -C49     -H80     :  -2.358057
 
  nuclear repulsion energy.......          5073.859967828 hartrees
  
  Detected an organometallic with only one TM atom. 
  
  
 
  Will use High-Quality Initial guess for organometallics
       including d-d repulsion (iguess=30)
 
 Non-default options chosen:
   SCF calculation type: DFT(b3pw91-d3)              
   DFT=Becke_3_Parameter/HF+Slater+Becke88+PW91+PW-GGAIIC (B3PW91-D3)
   Geometry will be optimized in redundant internal coordinates
   Solvation energy will be computed using PBF
     -solute cavity energy will not be included
     -surface area terms will not be included
   Vibrational frequencies and related properties will be computed
      from analytic second derivatives
   IR intensities will be computed
   Thermochemical properties will be computed
   Maximum number of geometry steps: 100
   Scaling standard convergence criteria by a factor of   5.00
   Solvent: benzene                                                         
   Internal dielectric constant:    1.000
   Continuum dielectric constant:   2.283
   Solvent probe molecule radius:   2.600
  
 Non-default print settings:
     11=  2
  
 Temporary integer options set:
     21= -1  73=  2
  
  atom       vdw   vdw2    cov     mass  grid  daf  charge   basis
  P1        2.147  2.074  1.060   30.974    Y    Y      Y    ps_6-31g*
  Pd2       1.450  1.450  1.280  105.903    Y    Y      Y    lacv3p*
  N3        1.831  1.600  0.750   14.003    Y    Y      Y    ps_6-31g*
  C4        1.949  1.900  0.770   12.000    Y    Y      Y    ps_6-31g*
  C5        1.949  1.900  0.770   12.000    Y    Y      Y    ps_6-31g*
  C6        1.949  1.900  0.770   12.000    Y    Y      Y    ps_6-31g*
  C7        1.949  1.900  0.770   12.000    Y    Y      Y    ps_6-31g*
  C8        1.949  1.900  0.770   12.000    Y    Y      Y    ps_6-31g*
  C9        1.949  1.900  0.770   12.000    Y    Y      Y    ps_6-31g*
  F10       1.736  1.682  0.720   18.998    Y    Y      Y    ps_6-31g*
  H11       1.597  1.150  0.320    1.008    Y    Y      Y    ps_6-31g*
  H12       1.597  1.150  0.320    1.008    Y    Y      Y    ps_6-31g*
  H13       1.597  1.150  0.320    1.008    Y    Y      Y    ps_6-31g*
  H14       1.597  1.150  0.320    1.008    Y    Y      Y    ps_6-31g*
  H15       1.597  1.150  0.320    1.008    Y    Y      Y    ps_6-31g*
  C16       1.949  1.900  0.770   12.000    Y    Y      Y    ps_6-31g*
  C17       1.949  1.900  0.770   12.000    Y    Y      Y    ps_6-31g*
  C18       1.949  1.900  0.770   12.000    Y    Y      Y    ps_6-31g*
  C19       1.949  1.900  0.770   12.000    Y    Y      Y    ps_6-31g*
  C20       1.949  1.900  0.770   12.000    Y    Y      Y    ps_6-31g*
  C21       1.949  1.900  0.770   12.000    Y    Y      Y    ps_6-31g*
  H22       1.597  1.150  0.320    1.008    Y    Y      Y    ps_6-31g*
  H23       1.597  1.150  0.320    1.008    Y    Y      Y    ps_6-31g*
  H24       1.597  1.150  0.320    1.008    Y    Y      Y    ps_6-31g*
  H25       1.597  1.150  0.320    1.008    Y    Y      Y    ps_6-31g*
  H26       1.597  1.150  0.320    1.008    Y    Y      Y    ps_6-31g*
  C27       1.949  1.900  0.770   12.000    Y    Y      Y    ps_6-31g*
  C28       1.949  1.900  0.770   12.000    Y    Y      Y    ps_6-31g*
  C29       1.949  1.900  0.770   12.000    Y    Y      Y    ps_6-31g*
  C30       1.949  1.900  0.770   12.000    Y    Y      Y    ps_6-31g*
  C31       1.949  1.900  0.770   12.000    Y    Y      Y    ps_6-31g*
  C32       1.949  1.900  0.770   12.000    Y    Y      Y    ps_6-31g*
  C33       1.949  1.900  0.770   12.000    Y    Y      Y    ps_6-31g*
  C34       1.949  1.900  0.770   12.000    Y    Y      Y    ps_6-31g*
  C35       1.949  1.900  0.770   12.000    Y    Y      Y    ps_6-31g*
  C36       1.949  1.900  0.770   12.000    Y    Y      Y    ps_6-31g*
  C37       1.949  1.900  0.770   12.000    Y    Y      Y    ps_6-31g*
  C38       1.949  1.900  0.770   12.000    Y    Y      Y    ps_6-31g*
  C39       1.949  1.900  0.770   12.000    Y    Y      Y    ps_6-31g*
  C40       1.949  1.900  0.770   12.000    Y    Y      Y    ps_6-31g*
  C41       1.949  1.900  0.770   12.000    Y    Y      Y    ps_6-31g*
  C42       1.949  1.900  0.770   12.000    Y    Y      Y    ps_6-31g*
  C43       1.949  1.900  0.770   12.000    Y    Y      Y    ps_6-31g*
  C44       1.949  1.900  0.770   12.000    Y    Y      Y    ps_6-31g*
  C45       1.949  1.900  0.770   12.000    Y    Y      Y    ps_6-31g*
  C46       1.949  1.900  0.770   12.000    Y    Y      Y    ps_6-31g*
  C47       1.949  1.900  0.770   12.000    Y    Y      Y    ps_6-31g*
  C48       1.949  1.900  0.770   12.000    Y    Y      Y    ps_6-31g*
  C49       1.949  1.900  0.770   12.000    Y    Y      Y    ps_6-31g*
  H50       1.597  1.150  0.320    1.008    Y    Y      Y    ps_6-31g*
  H51       1.597  1.150  0.320    1.008    Y    Y      Y    ps_6-31g*
  H52       1.597  1.150  0.320    1.008    Y    Y      Y    ps_6-31g*
  H53       1.597  1.150  0.320    1.008    Y    Y      Y    ps_6-31g*
  H54       1.597  1.150  0.320    1.008    Y    Y      Y    ps_6-31g*
  H55       1.597  1.150  0.320    1.008    Y    Y      Y    ps_6-31g*
  H56       1.597  1.150  0.320    1.008    Y    Y      Y    ps_6-31g*
  H57       1.597  1.150  0.320    1.008    Y    Y      Y    ps_6-31g*
  H58       1.597  1.150  0.320    1.008    Y    Y      Y    ps_6-31g*
  H59       1.597  1.150  0.320    1.008    Y    Y      Y    ps_6-31g*
  H60       1.597  1.150  0.320    1.008    Y    Y      Y    ps_6-31g*
  H61       1.597  1.150  0.320    1.008    Y    Y      Y    ps_6-31g*
  H62       1.597  1.150  0.320    1.008    Y    Y      Y    ps_6-31g*
  H63       1.597  1.150  0.320    1.008    Y    Y      Y    ps_6-31g*
  H64       1.597  1.150  0.320    1.008    Y    Y      Y    ps_6-31g*
  H65       1.597  1.150  0.320    1.008    Y    Y      Y    ps_6-31g*
  H66       1.597  1.150  0.320    1.008    Y    Y      Y    ps_6-31g*
  H67       1.597  1.150  0.320    1.008    Y    Y      Y    ps_6-31g*
  H68       1.597  1.150  0.320    1.008    Y    Y      Y    ps_6-31g*
  H69       1.597  1.150  0.320    1.008    Y    Y      Y    ps_6-31g*
  H70       1.597  1.150  0.320    1.008    Y    Y      Y    ps_6-31g*
  H71       1.597  1.150  0.320    1.008    Y    Y      Y    ps_6-31g*
  H72       1.597  1.150  0.320    1.008    Y    Y      Y    ps_6-31g*
  H73       1.597  1.150  0.320    1.008    Y    Y      Y    ps_6-31g*
  H74       1.597  1.150  0.320    1.008    Y    Y      Y    ps_6-31g*
  H75       1.597  1.150  0.320    1.008    Y    Y      Y    ps_6-31g*
  H76       1.597  1.150  0.320    1.008    Y    Y      Y    ps_6-31g*
  H77       1.597  1.150  0.320    1.008    Y    Y      Y    ps_6-31g*
  H78       1.597  1.150  0.320    1.008    Y    Y      Y    ps_6-31g*
  H79       1.597  1.150  0.320    1.008    Y    Y      Y    ps_6-31g*
  H80       1.597  1.150  0.320    1.008    Y    Y      Y    ps_6-31g*
 
  atom      formal  2spin      esp    mulk    frag
  P1           0       0        Y    0.000       0
  Pd2          0       0        Y    0.000       0
  N3           0       0        Y    0.000       0
  
  end of program pre
   
 Time(pre)  user:       0.962  user+sys:       0.962  wallclock:       1.560
  
  start of program onee
  
  smallest eigenvalue of S:    4.219E-04
  number of canonical orbitals.....          645
  end of program onee
   
 Time(onee)  user:       5.112  user+sys:       5.112  wallclock:       3.886
  
  start of program hfig
  
  initial wavefunction generated automatically from atomic wavefunctions
  Only one possible d-orb occupation 
  Skip d-d repulsion considerations 
 
  Irreducible     Total no   No of occupied orbitals 
  representation  orbitals   Shell_1  Shell_2    ...
  No Symm          645        150
  ------------------------
  Orbital occupation/shell    1.000
 
  end of program hfig
   
 Time(hfig)  user:       1.211  user+sys:       1.211  wallclock:       1.296
  
  start of program probe
  
  end of program probe
   
 Time(probe)  user:       0.677  user+sys:       0.677  wallclock:       0.618
  
  start of program grid
  
   grid     grid set  grid #  grid sym
  ------    --------  ------  --------
  coarse        0        0        1
  medium        2        1        1
  fine          0        0        1
  ultrafine     4        2        1
  charge       -1        3        1
  gradient      4        2        1
  density       0        0        1
  DFT-fine    -11        4        1
  DFT-med.    -10        5        1
  DFT-grad    -12        6        1
  DFT-der2     -8        7        1
  DFT-cphf     -9        8        1
  LMP2-enrg     4        2        1
  LMP2-grad     2        1        1
  DFT-cphf2   -15        9        1
  PBF-dens      0        0        1
  plotting      0        0        1
  Rel-grad    -17        0        1
  
  number of gridpoints: 
     atom           P1         Pd2          N3          C4          C5          C6          C7
  grid # 1         603         368         107          76          94          95          95
  grid # 2         422         329         356         326         326         326         344
  grid # 3           6         267          19          26          29          27          19
  grid # 4        8714        8714        8714        8714        8714        8714        8714
  grid # 5        1192        1192        1192        1192        1192        1192        1192
  grid # 6        9132        9132        5922        5922        5922        5922        5922
  grid # 7       23034       32968       13958       13950       13950       13950       13950
  grid # 8         722        1150         756         748         748         748         748
  grid # 9         366        2198         406         394         394         394         394
   
  number of gridpoints: 
     atom           C8          C9         F10         H11         H12         H13         H14
  grid # 1          95          93         571         115         116         112         113
  grid # 2         325         323         539         465         457         445         458
  grid # 3          25          26         151         381         326         203         263
  grid # 4        8714        8714        8714        8714        8714        8714        8714
  grid # 5        1192        1192        1192        1192        1192        1192        1192
  grid # 6        5922        5922        5922        5922        5922        5922        5922
  grid # 7       13950       13950       23190       15206       15206       15206       15206
  grid # 8         748         748         770         786         786         786         786
  grid # 9         394         394         420         420         420         420         420
   
  number of gridpoints: 
     atom          H15         C16         C17         C18         C19         C20         C21
  grid # 1         111          97          97          96         100          97          97
  grid # 2         445         326         325         324         354         325         326
  grid # 3         302          54          53          41          37          51          54
  grid # 4        8714        8714        8714        8714        8714        8714        8714
  grid # 5        1192        1192        1192        1192        1192        1192        1192
  grid # 6        5922        5922        5922        5922        5922        5922        5922
  grid # 7       15206       13950       13950       13950       13950       13950       13950
  grid # 8         786         748         748         748         748         748         748
  grid # 9         420         394         394         394         394         394         394
   
  number of gridpoints: 
     atom          H22         H23         H24         H25         H26         C27         C28
  grid # 1         118         118         115         116         118          82          88
  grid # 2         467         467         452         463         467         245         367
  grid # 3         422         421         276         354         422           6           6
  grid # 4        8714        8714        8714        8714        8714        8714        8714
  grid # 5        1192        1192        1192        1192        1192        1192        1192
  grid # 6        5922        5922        5922        5922        5922        5922        5922
  grid # 7       15206       15206       15206       15206       15206       13950       13950
  grid # 8         786         786         786         786         786         748         748
  grid # 9         420         420         420         420         420         394         394
   
  number of gridpoints: 
     atom          C29         C30         C31         C32         C33         C34         C35
  grid # 1          80          82          88          80          82          82          87
  grid # 2         244         240         371         247         246         245         389
  grid # 3           6           6           6           6           6           6           9
  grid # 4        8714        8714        8714        8714        8714        8714        8714
  grid # 5        1192        1192        1192        1192        1192        1192        1192
  grid # 6        5922        5922        5922        5922        5922        5922        5922
  grid # 7       13950       13950       13950       13950       13950       13950       13950
  grid # 8         748         748         748         748         748         748         748
  grid # 9         394         394         394         394         394         394         394
   
  number of gridpoints: 
     atom          C36         C37         C38         C39         C40         C41         C42
  grid # 1          99          79          97          93          96          96          96
  grid # 2         362         241         364         323         324         322         324
  grid # 3          22           6          16          16          30          33          27
  grid # 4        8714        8714        8714        8714        8714        8714        8714
  grid # 5        1192        1192        1192        1192        1192        1192        1192
  grid # 6        5922        5922        5922        5922        5922        5922        5922
  grid # 7       13950       13950       13950       13950       13950       13950       13950
  grid # 8         748         748         748         748         748         748         748
  grid # 9         394         394         394         394         394         394         394
   
  number of gridpoints: 
     atom          C43         C44         C45         C46         C47         C48         C49
  grid # 1          93          97          94          96          97          96          94
  grid # 2         322         361         320         327         325         327         324
  grid # 3          15          20          25          44          52          45          25
  grid # 4        8714        8714        8714        8714        8714        8714        8714
  grid # 5        1192        1192        1192        1192        1192        1192        1192
  grid # 6        5922        5922        5922        5922        5922        5922        5922
  grid # 7       13950       13950       13950       13950       13950       13950       13950
  grid # 8         748         748         748         748         748         748         748
  grid # 9         394         394         394         394         394         394         394
   
  number of gridpoints: 
     atom          H50         H51         H52         H53         H54         H55         H56
  grid # 1         103         104         107         101         107         105         101
  grid # 2         431         430         440         430         444         442         428
  grid # 3         154         170         254          86         250         194         145
  grid # 4        8714        8714        8714        8714        8714        8714        8714
  grid # 5        1192        1192        1192        1192        1192        1192        1192
  grid # 6        5922        5922        5922        5922        5922        5922        5922
  grid # 7       15206       15206       15206       15206       15206       15206       15206
  grid # 8         786         786         786         786         786         786         786
  grid # 9         420         420         420         420         420         420         420
   
  number of gridpoints: 
     atom          H57         H58         H59         H60         H61         H62         H63
  grid # 1         107         105         106         104         107         103         104
  grid # 2         445         440         440         436         443         433         432
  grid # 3         268         176         204         185         269         166         174
  grid # 4        8714        8714        8714        8714        8714        8714        8714
  grid # 5        1192        1192        1192        1192        1192        1192        1192
  grid # 6        5922        5922        5922        5922        5922        5922        5922
  grid # 7       15206       15206       15206       15206       15206       15206       15206
  grid # 8         786         786         786         786         786         786         786
  grid # 9         420         420         420         420         420         420         420
   
  number of gridpoints: 
     atom          H64         H65         H66         H67         H68         H69         H70
  grid # 1         107         104         107         101         106         100         100
  grid # 2         444         426         443         425         437         420         417
  grid # 3         270         152         262         155         226         131          92
  grid # 4        8714        8714        8714        8714        8714        8714        8714
  grid # 5        1192        1192        1192        1192        1192        1192        1192
  grid # 6        5922        5922        5922        5922        5922        5922        5922
  grid # 7       15206       15206       15206       15206       15206       15206       15206
  grid # 8         786         786         786         786         786         786         786
  grid # 9         420         420         420         420         420         420         420
   
  number of gridpoints: 
     atom          H71         H72         H73         H74         H75         H76         H77
  grid # 1         108         117         116         107          93         109         118
  grid # 2         439         465         468         451         415         446         465
  grid # 3         224         405         405         270          21         250         416
  grid # 4        8714        8714        8714        8714        8714        8714        8714
  grid # 5        1192        1192        1192        1192        1192        1192        1192
  grid # 6        5922        5922        5922        5922        5922        5922        5922
  grid # 7       15206       15206       15206       15206       15206       15206       15206
  grid # 8         786         786         786         786         786         786         786
  grid # 9         420         420         420         420         420         420         420
   
  number of gridpoints: 
     atom          H78         H79         H80       total
  grid # 1         118         118         108        9308
  grid # 2         467         466         439       30989
  grid # 3         431         416         207       11716
  grid # 4        8714        8714        8714      697120
  grid # 5        1192        1192        1192       95360
  grid # 6        5922        5922        5922      480180
  grid # 7       15206       15206       15206     1204846
  grid # 8         786         786         786       61804
  grid # 9         420         420         420       34400
   
  end of program grid
   
 Time(grid)  user:     362.582  user+sys:     362.582  wallclock:     186.028
  
  start of program rwr
  
  end of program rwr
   
 Time(rwr)  user:      18.986  user+sys:      18.986  wallclock:      24.624
  
  start of program scf
  
 number of electrons..........        300
 number of alpha electrons....        150
 number of beta electrons.....        150
 number of orbitals, total....        645
 number of doubly-occ'd orbs..        150
 number of open shell orbs....          0
 number of occupied orbitals..        150
 number of virtual orbitals...        495
 number of hamiltonians.......          1
 number of shells.............          1
 SCF type: DFT=Becke_3_Parameter/HF+Slater+Becke88+PW91+PW-GGAIIC (B3PW91-D3)
 Energy computed using pseudospectral method.
 Convergence Criterion:
    Energy (econv):       1.00E-05
    RMS density (dconv):  5.00E-06
  
       i  u  d  i  g                   
       t  p  i  c  r                                 RMS    maximum
       e  d  i  u  i                       energy  density   DIIS  
       r  t  s  t  d       total energy    change  change    error 
  
etot    1  N  N  5  M   -1975.95404026040           1.9E-03  2.2E-01
etot    2  Y  Y  6  M   -1979.16912667093  3.2E+00  2.9E-03  1.6E-01
etot    3  Y  Y  6  M   -1979.96076926771  7.9E-01  1.4E-03  6.8E-02
etot    4  N  Y  2  U   -1980.35253644940  3.9E-01  8.1E-04  4.0E-02
etot    5  Y  Y  6  M   -1980.43621666012  8.4E-02  4.6E-04  2.3E-02
etot    6  N  Y  2  U   -1980.44326275168  7.0E-03  4.5E-04  1.1E-02
etot    7  Y  Y  6  M   -1980.44793419240  4.7E-03  1.0E-04  3.7E-03
etot    8  Y  Y  6  M   -1980.45142505592  3.5E-03  2.2E-05  6.8E-04
etot    9  N  Y  2  U   -1980.45279221601  1.4E-03  8.2E-06  2.8E-04
etot   10  N  Y  2  U   -1980.45280195116  9.7E-06  3.9E-06  7.1E-05
etot   11  N  N  2  U   -1980.45280359593  1.6E-06  0.0E+00  0.0E+00
 
  Computing the dispersion energy correction and its gradients...
  
  
 Energy components, in hartrees:
   (A)  Nuclear repulsion............    5073.85996782830
   (E)  Total one-electron terms.....  -12855.88115137526
   (F)    Electron-nuclear...........  -14744.32623248732
   (H)    Kinetic....................    1888.44508111206
   (I)  Total two-electron terms.....    5801.56837995103
   (J)    Coulomb....................    6059.62649077338
   (K)    Exchange+Correlation.......    -258.05811082235
   (L)  Electronic energy............   -7054.31277142423  (E+I)
   (N0) D3 correction................      -0.12871652384
   (N)  Total energy.................   -1980.58152011977  (A+L+N0)
   (O)  Gas phase energy.............   -1980.58152011977
  
 SCFE: SCF energy: DFT(b3pw91-d3)     -1980.58152011977 hartrees   iterations:  11
  
 
 HOMO energy:    -0.14675
 LUMO energy:    -0.04793
 
  Orbital energies (hartrees): 
   -77.05475   -24.68521   -14.32841   -10.25480   -10.21418   -10.20613
   -10.19777   -10.19361   -10.19241   -10.18661   -10.18218   -10.18140
   -10.18075   -10.17965   -10.17918   -10.17842   -10.17804   -10.17717
   -10.17354   -10.17326   -10.17316   -10.17269   -10.17197   -10.17163
   -10.17100   -10.16831   -10.16344   -10.16184   -10.16171   -10.16075
   -10.16035   -10.16029   -10.15905   -10.15722   -10.15626   -10.15529
   -10.15294   -10.15004    -6.55547    -4.71353    -4.71326    -4.70981
    -3.24962    -1.98847    -1.96793    -1.96387    -1.22233    -0.93498
    -0.86253    -0.85648    -0.84195    -0.83854    -0.82379    -0.80372
    -0.80266    -0.75391    -0.75344    -0.75019    -0.74691    -0.74070
    -0.73610    -0.72730    -0.71602    -0.68563    -0.68053    -0.67888
    -0.67576    -0.67077    -0.64795    -0.62470    -0.61444    -0.60721
    -0.60637    -0.59718    -0.58948    -0.58767    -0.58206    -0.55266
    -0.54131    -0.54066    -0.52632    -0.52165    -0.51733    -0.50473
    -0.48687    -0.48459    -0.47026    -0.46569    -0.46346    -0.45870
    -0.45498    -0.45472    -0.44511    -0.44311    -0.44289    -0.43798
    -0.43598    -0.43405    -0.43090    -0.42437    -0.42340    -0.41926
    -0.41706    -0.41575    -0.41206    -0.40859    -0.40051    -0.39732
    -0.39544    -0.39341    -0.38567    -0.38323    -0.37845    -0.37461
    -0.37198    -0.36666    -0.36472    -0.36146    -0.35893    -0.35560
    -0.35505    -0.35404    -0.35128    -0.35084    -0.34254    -0.33678
    -0.33258    -0.32826    -0.32705    -0.32315    -0.32096    -0.31913
    -0.30836    -0.30140    -0.29701    -0.28843    -0.27912    -0.25613
    -0.25244    -0.24813    -0.24707    -0.24534    -0.23796    -0.22271
    -0.21150    -0.19749    -0.18760    -0.18332    -0.17219    -0.14675
    -0.04793    -0.01275    -0.00955    -0.00492    -0.00411     0.00017
     0.00492     0.01576     0.04119     0.04444
 
  end of program scf
   
 Time(scf)  user:     424.808  user+sys:     424.808  wallclock:     233.632
  
  start of program der1a
  
  end of program der1a
   
 Time(der1a)  user:      15.251  user+sys:      15.251  wallclock:       8.663
  
  start of program rwr
  
  end of program rwr
   
 Time(rwr)  user:      21.021  user+sys:      21.021  wallclock:      28.072
  
  start of program der1b
  
   
  forces (hartrees/bohr) : total     
   
 atom  label           x              y              z
 ---- --------   -------------  -------------  -------------
    1 P1         -1.512352E-02   6.109879E-03   1.975803E-02
    2 Pd2        -1.125891E-02   5.025484E-03   1.985931E-02
    3 N3          3.808105E-03  -2.311995E-02   1.338347E-02
    4 C4          3.558833E-02  -3.578025E-03   3.641928E-03
    5 C5         -1.108003E-02   7.612757E-03  -3.719103E-04
    6 C6          1.393036E-03  -7.729493E-03  -4.144503E-04
    7 C7         -4.580991E-03   4.413332E-03  -3.263488E-03
    8 C8          2.803979E-03   4.607654E-03  -1.472531E-03
    9 C9         -1.340769E-02  -4.588963E-03  -3.788897E-03
   10 F10        -2.257083E-03   4.075565E-03   5.873374E-03
   11 H11        -1.058550E-03  -1.802137E-03   1.317653E-04
   12 H12         1.748442E-03   5.260488E-04  -2.578090E-04
   13 H13        -2.081669E-03   1.562580E-03   1.695514E-03
   14 H14        -1.307778E-03   1.872825E-03   1.561415E-04
   15 H15        -5.208227E-03   5.940379E-03   3.201668E-03
   16 C16         2.745310E-04  -1.155947E-03   8.990204E-04
   17 C17        -1.133382E-03   9.804619E-04   1.311598E-03
   18 C18         2.473699E-04  -3.660624E-03  -6.528333E-04
   19 C19        -1.211574E-03   9.881937E-03  -1.114586E-02
   20 C20         2.139555E-03  -9.418741E-04   3.964562E-03
   21 C21         9.351739E-04   2.919635E-05  -8.372377E-04
   22 H22        -2.788799E-03   6.913431E-03  -7.711517E-03
   23 H23        -8.257872E-04   1.073898E-02   1.757420E-03
   24 H24         3.364765E-03   5.936740E-03   9.500586E-03
   25 H25        -4.350417E-04  -1.008373E-02  -3.260430E-03
   26 H26        -2.167631E-03  -3.327296E-03  -9.970787E-03
   27 C27         7.158597E-03  -8.473339E-03  -1.808854E-02
   28 C28         4.293075E-02  -7.104344E-03  -2.335066E-02
   29 C29        -4.753078E-03  -1.148433E-02   6.332944E-03
   30 C30        -1.080183E-02   1.904893E-02   9.539743E-03
   31 C31        -1.707930E-02   1.858228E-02  -2.372949E-02
   32 C32        -2.953549E-03   6.760963E-03   1.117965E-02
   33 C33        -8.827341E-03  -1.530210E-02   5.354213E-03
   34 C34         1.760770E-02   4.153399E-03  -1.024629E-02
   35 C35         1.410615E-02  -1.596504E-04  -1.996695E-02
   36 C36        -4.953472E-03   2.076511E-03   1.205971E-02
   37 C37         4.361755E-03   8.419560E-04  -2.201918E-02
   38 C38        -5.044750E-03  -1.239756E-02   1.450178E-02
   39 C39         2.533153E-05  -1.341110E-02   1.295900E-02
   40 C40         8.741276E-04   4.530549E-03   1.188603E-03
   41 C41         2.488729E-04   1.340392E-03  -2.069068E-03
   42 C42        -6.709457E-03  -5.181873E-03  -2.713460E-03
   43 C43         5.888790E-04   2.205342E-02  -3.454936E-03
   44 C44        -1.508406E-02  -1.236759E-02  -5.371515E-03
   45 C45        -1.844736E-02  -7.402947E-04  -9.183319E-03
   46 C46         3.682564E-03   5.425512E-04   7.129843E-04
   47 C47         1.502250E-03   2.639163E-03   1.273149E-03
   48 C48        -7.138376E-03  -3.440784E-04   1.067347E-03
   49 C49         2.208220E-02  -7.545698E-03   3.159453E-03
   50 H50        -8.964855E-04  -4.955343E-03   6.298805E-03
   51 H51        -2.020714E-03   1.349616E-02   4.413036E-03
   52 H52        -8.487156E-03  -3.864427E-04   5.869118E-03
   53 H53        -3.671634E-03  -3.671319E-03  -5.841475E-03
   54 H54        -7.754463E-03   2.457959E-03  -5.543708E-03
   55 H55         1.046530E-03   7.925499E-03   4.528397E-03
   56 H56         4.659773E-03  -5.734138E-03   5.341679E-03
   57 H57        -6.142537E-03  -7.406846E-03  -3.241566E-03
   58 H58        -2.757084E-03  -3.133191E-03  -1.029373E-02
   59 H59        -6.931214E-03  -5.156116E-03   1.144675E-03
   60 H60         9.835870E-03  -5.042511E-04  -3.449307E-03
   61 H61         6.964567E-03  -9.302347E-03   2.856253E-03
   62 H62         9.460790E-03   1.604726E-03  -6.033411E-03
   63 H63        -1.033684E-03   7.389924E-03   5.326746E-03
   64 H64         8.699275E-03   8.550348E-04   4.403033E-03
   65 H65        -7.110472E-03  -1.069612E-02  -1.519106E-03
   66 H66        -1.652835E-03  -4.454419E-03   8.480830E-03
   67 H67         1.175234E-04   7.122655E-03   5.852143E-03
   68 H68         7.504526E-03  -1.020342E-04   1.208692E-02
   69 H69        -1.127917E-02   2.091332E-03  -6.920417E-03
   70 H70         3.014717E-03  -2.981715E-03   1.151471E-02
   71 H71         3.888454E-03   8.092587E-03  -3.219165E-03
   72 H72         5.686930E-03   3.761440E-03  -7.251540E-03
   73 H73         5.767488E-03  -3.370687E-03  -7.443481E-03
   74 H74         2.402626E-03  -1.119792E-02  -4.403135E-03
   75 H75        -5.216734E-03  -5.191061E-03  -1.593196E-03
   76 H76         1.181658E-02  -2.480992E-03  -3.769220E-03
   77 H77         1.032687E-02   6.429620E-03  -5.368606E-04
   78 H78         1.166747E-03   6.867930E-03   1.366366E-03
   79 H79        -5.958548E-03   8.817482E-03   4.073601E-03
   80 H80        -1.351125E-02   5.678871E-04   4.472572E-03
 -------------   -------------  -------------  -------------
     total       -2.311495E-03   1.052675E-03  -1.908608E-03
   
  end of program der1b
   
 Time(der1b)  user:     163.382  user+sys:     163.382  wallclock:      88.815
  
  start of program geopt
  
 ----------------------------------------------------------------------------
  Geometry optimization step  1
  Total energy:     -1980.58152011977 hartrees
 ----------------------------------------------------------------------------
  
  
  Level shifts adjusted to satisfy step-size constraints
   Step size:    0.3000391
   Cos(theta):   0.8981017
   Final level shift:  -2.6732677E-01
  
  gradient maximum:        6.0338E-02 .  (  2.2500E-03 )
  gradient rms:            1.1360E-02 .  (  1.5000E-03 )
  displacement maximum:    8.6971E-02 .  (  9.0000E-03 )
  displacement rms:        1.8025E-02 .  (  6.0000E-03 )
  
  predicted energy change:  -3.7501E-02
  step size:     0.29999
  trust radius:  0.30000
  
  molecular structure not yet converged...
  
  center of mass moved by:
     x:    -1.2112E-02     y:     2.2342E-02     z:     3.8520E-02
  
  new geometry: 
                                   angstroms
  atom               x                 y                 z
  P1           -0.0209738352     -0.0129961767      0.0669615200 
  Pd2          -0.0223260435      0.0269862246      2.3265876364 
  N3            3.5913270464      0.0451549978      4.8950228069 
  C4           -0.5776264794      0.8016683216      4.5392913979 
  C5            0.3386939453      1.8533028756      4.6928950291 
  C6            1.6974546486      1.6078416608      4.8587349309 
  C7            2.2104371452      0.3034354706      4.7976507834 
  C8            1.3064460648     -0.7527837029      4.5956988064 
  C9           -0.0797824579     -0.5212965538      4.5088951200 
  F10          -1.8890930104      1.0489593848      4.6196096670 
  H11          -0.0385282953      2.8730073701      4.7256800473 
  H12           2.3655455874      2.4486824957      5.0253940833 
  H13           1.6712423713     -1.7716854462      4.5211523143 
  H14          -0.7674899206     -1.3661681362      4.5125267687 
  H15           4.1951969937      0.8526440791      4.8242127630 
  C16           4.8552986302     -2.6665682162      7.8995667388 
  C17           4.5606505826     -3.1291768954      6.6160536195 
  C18           4.1470998286     -2.2346761975      5.6276150153 
  C19           4.0255362733     -0.8751515789      5.9210173559 
  C20           4.3216164807     -0.4115900916      7.2057311453 
  C21           4.7368218010     -1.3068114333      8.1930162444 
  H22           5.1794069461     -3.3682708982      8.6735921179 
  H23           4.6534973883     -4.1937281130      6.3826915900 
  H24           3.9212153912     -2.5907647877      4.6189575417 
  H25           4.2216917231      0.6536062610      7.4341101497 
  H26           4.9674929824     -0.9414097643      9.1979114430 
  C27           2.3565912934     -0.1832018774     -1.7228941700 
  C28           1.8263649004      0.1456227978     -0.3043666272 
  C29           2.5971957240     -0.8039207782      0.6456466201 
  C30           2.2365945588      1.5903650083      0.0295616785 
  C31          -1.0146661302      1.1072057867     -1.1325372735 
  C32          -1.3366185151      2.4472778790     -0.4383446995 
  C33          -2.3405637725      0.4415250948     -1.5729062061 
  C34          -0.2648268890      1.4491526104     -2.4345749633 
  C35          -0.6164604543     -1.7072556201     -0.3932796677 
  C36          -1.6248551671     -2.4352522513      0.1962592673 
  C37           0.0949843114     -2.1876022540     -1.6417456366 
  C38          -2.5698903930     -1.8974935822      1.2259512596 
  C39          -3.2702779091     -2.7556795595      2.1060555461 
  C40          -4.1452703756     -2.2972613945      3.0884353463 
  C41          -4.3611547328     -0.9280266304      3.2626845559 
  C42          -3.6751553250     -0.0487734676      2.4329896156 
  C43          -2.8048894319     -0.5295478397      1.4532270021 
  C44          -1.8471528757     -3.8670196629     -0.1849486118 
  C45          -3.1526319294     -4.3999191476     -0.2587611046 
  C46          -3.4157887868     -5.7204661647     -0.6142211211 
  C47          -2.3666451376     -6.5883636973     -0.9110260190 
  C48          -1.0605946684     -6.1015288626     -0.8588578752 
  C49          -0.8188912757     -4.7731333072     -0.5073561182 
  H50           1.9313245672      0.4393259669     -2.5181031399 
  H51           2.2102444205     -1.2404193558     -2.0025005802 
  H52           3.4477808828     -0.0144640429     -1.7739510787 
  H53           2.4424415038     -0.5450835457      1.7050840592 
  H54           3.6818202835     -0.7393054899      0.4573163932 
  H55           2.2968162458     -1.8544022962      0.4915395401 
  H56           1.6855477053      2.3397779380     -0.5626263241 
  H57           3.3104535564      1.7470463908     -0.1634683291 
  H58           2.0611565012      1.8208663429      1.0955343549 
  H59          -0.4226131011      2.9696229118     -0.1171629043 
  H60          -1.9911583590      2.3218393299      0.4400266976 
  H61          -1.8711590911      3.1236045330     -1.1312803675 
  H62          -3.0152239726      0.1976847019     -0.7372851819 
  H63          -2.1706971930     -0.4895653234     -2.1361251813 
  H64          -2.9026772702      1.1201437677     -2.2352325695 
  H65           0.6410010439      2.0543449097     -2.2526439947 
  H66          -0.8956523704      2.0648928764     -3.0979586765 
  H67           0.0124969304      0.5563817829     -3.0156895346 
  H68          -0.4936947055     -2.8947592310     -2.2485166515 
  H69           1.0946935222     -2.6057827525     -1.4269778588 
  H70           0.2570051065     -1.3423990444     -2.3330122554 
  H71          -3.1072001153     -3.8321486919      2.0874743784 
  H72          -4.6500574870     -3.0144821905      3.7409127249 
  H73          -5.0430210134     -0.5564051639      4.0323271598 
  H74          -3.8070988426      1.0288027420      2.5396350127 
  H75          -2.3363381335      0.2251359969      0.8368046077 
  H76          -4.0201408306     -3.7579578395     -0.0912241346 
  H77          -4.4502569118     -6.0751933461     -0.6592518122 
  H78          -2.5603421653     -7.6287093729     -1.1789079662 
  H79          -0.2223574720     -6.7665280120     -1.0850081640 
  H80           0.2293553190     -4.4811076519     -0.4303290245 
   
 
  bond lengths (angstroms):
 
 P1      -Pd2     :   2.259980      P1      -C28     :   1.890953
 P1      -C31     :   1.918613      P1      -C35     :   1.853899
 Pd2     -C4      :   2.409263      Pd2     -C9      :   2.250862
 N3      -C7      :   1.408207      N3      -H15     :   1.010798
 N3      -C19     :   1.445049      C4      -C5      :   1.403272
 C4      -C9      :   1.413863      C4      -F10     :   1.336992
 C5      -C6      :   1.390678      C5      -H11     :   1.087736
 C6      -C7      :   1.402982      C6      -H12     :   1.086800
 C7      -C8      :   1.404843      C8      -C9      :   1.408102
 C8      -H13     :   1.084801      C9      -H14     :   1.089386
 C16     -C17     :   1.395790      C16     -C21     :   1.396097
 C16     -H22     :   1.093868      C17     -C18     :   1.395767
 C17     -H23     :   1.093777      C18     -C19     :   1.396127
 C18     -H24     :   1.093258      C19     -C20     :   1.397513
 C20     -C21     :   1.395904      C20     -H25     :   1.093977
 C21     -H26     :   1.093866      C27     -C28     :   1.549673
 C27     -H50     :   1.095787      C27     -H51     :   1.103316
 C27     -H52     :   1.105339      C28     -C29     :   1.548657
 C28     -C30     :   1.538531      C29     -H53     :   1.101523
 C29     -H54     :   1.102748      C29     -H55     :   1.103398
 C30     -H56     :   1.102705      C30     -H57     :   1.102263
 C30     -H58     :   1.104630      C31     -C32     :   1.543162
 C31     -C33     :   1.547598      C31     -C34     :   1.540938
 C32     -H59     :   1.100640      C32     -H60     :   1.102585
 C32     -H61     :   1.106034      C33     -H62     :   1.101311
 C33     -H63     :   1.101363      C33     -H64     :   1.102348
 C34     -H65     :   1.104482      C34     -H66     :   1.103247
 C34     -H67     :   1.100746      C35     -C36     :   1.376370
 C35     -C37     :   1.515109      C36     -C38     :   1.497512
 C36     -C44     :   1.498230      C37     -H68     :   1.102173
 C37     -H69     :   1.104726      C37     -H70     :   1.103843
 C38     -C39     :   1.414782      C38     -C43     :   1.406469
 C39     -C40     :   1.393136      C39     -H71     :   1.088910
 C40     -C41     :   1.397059      C40     -H72     :   1.093134
 C41     -C42     :   1.389991      C41     -H73     :   1.093341
 C42     -C43     :   1.395866      C42     -H74     :   1.090850
 C43     -H75     :   1.081233      C44     -C45     :   1.411986
 C44     -C49     :   1.407945      C45     -C46     :   1.392641
 C45     -H76     :   1.092133      C46     -C47     :   1.393572
 C46     -H77     :   1.094524      C47     -C48     :   1.394811
 C47     -H78     :   1.091604      C48     -C49     :   1.395209
 C48     -H79     :   1.093622      C49     -H80     :   1.090886
 
  bond angles:
 
 C28     -P1      -Pd2     : 101.270463  C31     -P1      -Pd2     : 127.912224
 C31     -P1      -C28     : 109.525797  C35     -P1      -Pd2     : 105.318994
 C35     -P1      -C28     : 109.981014  C35     -P1      -C31     : 102.240536
 C4      -Pd2     -P1      : 157.532691  C9      -Pd2     -P1      : 164.817556
 C9      -Pd2     -C4      :  35.114687  H15     -N3      -C7      : 115.751326
 C19     -N3      -C7      : 117.422900  C19     -N3      -H15     : 112.271552
 C5      -C4      -Pd2     : 101.010907  C9      -C4      -Pd2     :  66.310909
 C9      -C4      -C5      : 118.272209  F10     -C4      -Pd2     : 109.921403
 F10     -C4      -C5      : 119.691735  F10     -C4      -C9      : 121.315791
 C6      -C5      -C4      : 121.250435  H11     -C5      -C4      : 118.645584
 H11     -C5      -C6      : 120.046841  C7      -C6      -C5      : 121.074813
 H12     -C6      -C5      : 118.839100  H12     -C6      -C7      : 120.081565
 C6      -C7      -N3      : 121.739502  C8      -C7      -N3      : 120.201564
 C8      -C7      -C6      : 118.033898  C9      -C8      -C7      : 121.248300
 H13     -C8      -C7      : 119.977339  H13     -C8      -C9      : 118.765711
 C4      -C9      -Pd2     :  78.574404  C8      -C9      -Pd2     :  94.283036
 C8      -C9      -C4      : 119.943685  H14     -C9      -Pd2     : 102.020436
 H14     -C9      -C4      : 120.220703  H14     -C9      -C8      : 119.588705
 C21     -C16     -C17     : 119.879313  H22     -C16     -C17     : 120.041194
 H22     -C16     -C21     : 120.079464  C18     -C17     -C16     : 120.089110
 H23     -C17     -C16     : 120.056148  H23     -C17     -C18     : 119.854742
 C19     -C18     -C17     : 120.068746  H24     -C18     -C17     : 120.387603
 H24     -C18     -C19     : 119.542933  C18     -C19     -N3      : 119.809931
 C20     -C19     -N3      : 120.338477  C20     -C19     -C18     : 119.851461
 C21     -C20     -C19     : 120.031398  H25     -C20     -C19     : 119.705160
 H25     -C20     -C21     : 120.262771  C20     -C21     -C16     : 120.079746
 H26     -C21     -C16     : 120.036517  H26     -C21     -C20     : 119.883636
 H50     -C27     -C28     : 114.264398  H51     -C27     -C28     : 112.949328
 H51     -C27     -H50     : 107.998201  H52     -C27     -C28     : 110.344486
 H52     -C27     -H50     : 105.240880  H52     -C27     -H51     : 105.397718
 C27     -C28     -P1      : 119.749920  C29     -C28     -P1      : 108.322584
 C29     -C28     -C27     : 105.136698  C30     -C28     -P1      : 107.255657
 C30     -C28     -C27     : 107.860438  C30     -C28     -C29     : 108.053370
 H53     -C29     -C28     : 112.086191  H54     -C29     -C28     : 110.418143
 H54     -C29     -H53     : 106.778408  H55     -C29     -C28     : 111.257321
 H55     -C29     -H53     : 108.650559  H55     -C29     -H54     : 107.438938
 H56     -C30     -C28     : 112.853732  H57     -C30     -C28     : 110.808004
 H57     -C30     -H56     : 107.229265  H58     -C30     -C28     : 111.287538
 H58     -C30     -H56     : 107.280995  H58     -C30     -H57     : 107.101181
 C32     -C31     -P1      : 109.501594  C33     -C31     -P1      : 111.745533
 C33     -C31     -C32     : 108.831725  C34     -C31     -P1      : 113.941275
 C34     -C31     -C32     : 106.793720  C34     -C31     -C33     : 105.778518
 H59     -C32     -C31     : 111.724457  H60     -C32     -C31     : 112.546277
 H60     -C32     -H59     : 108.330490  H61     -C32     -C31     : 110.487881
 H61     -C32     -H59     : 107.095416  H61     -C32     -H60     : 106.365710
 H62     -C33     -C31     : 113.839357  H63     -C33     -C31     : 112.148827
 H63     -C33     -H62     : 107.176527  H64     -C33     -C31     : 110.062416
 H64     -C33     -H62     : 106.248647  H64     -C33     -H63     : 106.967472
 H65     -C34     -C31     : 112.426575  H66     -C34     -C31     : 110.713100
 H66     -C34     -H65     : 105.199324  H67     -C34     -C31     : 112.873470
 H67     -C34     -H65     : 108.950269  H67     -C34     -H66     : 106.217216
 C36     -C35     -P1      : 127.761517  C37     -C35     -P1      : 110.088708
 C37     -C35     -C36     : 121.957192  C38     -C36     -C35     : 124.536715
 C44     -C36     -C35     : 120.343536  C44     -C36     -C38     : 115.118379
 H68     -C37     -C35     : 113.969455  H69     -C37     -C35     : 112.627950
 H69     -C37     -H68     : 110.333874  H70     -C37     -C35     : 110.010664
 H70     -C37     -H68     : 102.997480  H70     -C37     -H69     : 106.186388
 C39     -C38     -C36     : 121.488484  C43     -C38     -C36     : 124.459219
 C43     -C38     -C39     : 113.999725  C40     -C39     -C38     : 123.366341
 H71     -C39     -C38     : 120.990757  H71     -C39     -C40     : 115.555796
 C41     -C40     -C39     : 120.497940  H72     -C40     -C39     : 119.671930
 H72     -C40     -C41     : 119.817700  C42     -C41     -C40     : 117.985547
 H73     -C41     -C40     : 121.151110  H73     -C41     -C42     : 120.861919
 C43     -C42     -C41     : 120.583553  H74     -C42     -C41     : 120.451780
 H74     -C42     -C43     : 118.964486  C42     -C43     -C38     : 123.544650
 H75     -C43     -C38     : 120.953012  H75     -C43     -C42     : 115.463316
 C45     -C44     -C36     : 120.740558  C49     -C44     -C36     : 124.397096
 C49     -C44     -C45     : 114.858371  C46     -C45     -C44     : 123.087923
 H76     -C45     -C44     : 120.301164  H76     -C45     -C46     : 116.515063
 C47     -C46     -C45     : 120.175386  H77     -C46     -C45     : 119.762796
 H77     -C46     -C47     : 120.061808  C48     -C47     -C46     : 118.659164
 H78     -C47     -C46     : 120.811941  H78     -C47     -C48     : 120.528892
 C49     -C48     -C47     : 120.262010  H79     -C48     -C47     : 119.850021
 H79     -C48     -C49     : 119.885315  C48     -C49     -C44     : 122.951067
 H80     -C49     -C44     : 120.885949  H80     -C49     -C48     : 116.048518
 
  torsional angles:
 
 P1      -Pd2     -C4      -C5      : -81.694395
 P1      -Pd2     -C4      -C9      : 162.101147
 P1      -Pd2     -C4      -F10     :  45.697220
 P1      -Pd2     -C9      -C4      :-153.354536
 P1      -Pd2     -C9      -C8      :  86.940719
 P1      -Pd2     -C9      -H14     : -34.539256
 P1      -C28     -C27     -H50     :  60.238072
 P1      -C28     -C27     -H51     : -63.743790
 P1      -C28     -C27     -H52     : 178.576449
 P1      -C28     -C29     -H53     : -61.137568
 P1      -C28     -C29     -H54     : 179.950148
 P1      -C28     -C29     -H55     :  60.744613
 P1      -C28     -C30     -H56     : -59.930289
 P1      -C28     -C30     -H57     : 179.803199
 P1      -C28     -C30     -H58     :  60.745944
 P1      -C31     -C32     -H59     :  58.387011
 P1      -C31     -C32     -H60     : -63.752079
 P1      -C31     -C32     -H61     : 177.509756
 P1      -C31     -C33     -H62     :  59.115871
 P1      -C31     -C33     -H63     : -62.784949
 P1      -C31     -C33     -H64     : 178.262167
 P1      -C31     -C34     -H65     : -64.580513
 P1      -C31     -C34     -H66     : 178.078334
 P1      -C31     -C34     -H67     :  59.158644
 P1      -C35     -C36     -C38     :   8.925963
 P1      -C35     -C36     -C44     :-171.521044
 P1      -C35     -C37     -H68     :-151.622330
 P1      -C35     -C37     -H69     :  81.699531
 P1      -C35     -C37     -H70     : -36.543826
 Pd2     -P1      -C28     -C27     : 164.938454
 Pd2     -P1      -C28     -C29     :  44.534275
 Pd2     -P1      -C28     -C30     : -71.869987
 Pd2     -P1      -C31     -C32     :  25.652195
 Pd2     -P1      -C31     -C33     : -95.006912
 Pd2     -P1      -C31     -C34     : 145.164326
 Pd2     -P1      -C35     -C36     :  40.345243
 Pd2     -P1      -C35     -C37     :-144.675493
 Pd2     -C4      -C5      -C6      : -71.122321
 Pd2     -C4      -C5      -H11     : 111.626094
 Pd2     -C4      -C9      -C8      :  88.367580
 Pd2     -C4      -C9      -H14     : -97.363639
 Pd2     -C9      -C4      -C5      : -90.049121
 Pd2     -C9      -C4      -F10     :  99.706899
 Pd2     -C9      -C8      -C7      :  83.336207
 Pd2     -C9      -C8      -H13     : -97.734187
 N3      -C7      -C6      -C5      : 176.685962
 N3      -C7      -C6      -H12     :  -2.531452
 N3      -C7      -C8      -C9      : 179.336836
 N3      -C7      -C8      -H13     :   0.420048
 N3      -C19     -C18     -C17     :-179.731218
 N3      -C19     -C18     -H24     :   0.575919
 N3      -C19     -C20     -C21     : 179.815164
 N3      -C19     -C20     -H25     :   0.112312
 C4      -Pd2     -P1      -C28     : 121.880122
 C4      -Pd2     -P1      -C31     :  -4.076718
 C4      -Pd2     -P1      -C35     :-123.546859
 C4      -Pd2     -C9      -C8      :-119.704745
 C4      -Pd2     -C9      -H14     : 118.815280
 C4      -C5      -C6      -C7      :   3.884332
 C4      -C5      -C6      -H12     :-176.888726
 C4      -C9      -C8      -C7      :   4.062068
 C4      -C9      -C8      -H13     :-177.008326
 C5      -C4      -Pd2     -C9      : 116.204457
 C5      -C4      -C9      -C8      :  -1.681541
 C5      -C4      -C9      -H14     : 172.587241
 C5      -C6      -C7      -C8      :  -1.496665
 C6      -C5      -C4      -C9      :  -2.228785
 C6      -C5      -C4      -F10     : 168.178314
 C6      -C7      -N3      -H15     : -11.800759
 C6      -C7      -N3      -C19     : 124.612944
 C6      -C7      -C8      -C9      :  -2.451483
 C6      -C7      -C8      -H13     : 178.631729
[...]
    C28      Y    -0.00002   0.00000  -0.00001   0.00002   0.00002  -0.00000
    C28      Z    -0.00001  -0.00001  -0.00002   0.00001   0.00004  -0.00000
    C29      X     0.00003   0.00000   0.00021  -0.00007  -0.00028  -0.00000
    C29      Y     0.00001   0.00000  -0.00050   0.00018   0.00063   0.00000
    C29      Z     0.00003  -0.00000  -0.00130   0.00043   0.00167   0.00001
    C30      X     0.00002   0.00001   0.00033  -0.00012  -0.00046  -0.00000
    C30      Y     0.00001  -0.00003  -0.00022   0.00006   0.00032  -0.00001
    C30      Z    -0.00002   0.00001  -0.00077   0.00026   0.00108   0.00001
    C31      X    -0.00001   0.00001   0.00001  -0.00000  -0.00001   0.00000
    C31      Y     0.00000  -0.00000  -0.00002   0.00001   0.00001   0.00000
    C31      Z    -0.00003  -0.00001  -0.00003   0.00002   0.00002  -0.00000
    C32      X     0.00001   0.00059  -0.00012   0.00004   0.00012   0.00002
    C32      Y     0.00002  -0.00004   0.00002  -0.00001  -0.00002  -0.00003
    C32      Z    -0.00000  -0.00037  -0.00002  -0.00001   0.00002   0.00001
    C33      X    -0.00001   0.00003  -0.00000   0.00002  -0.00001   0.00000
    C33      Y     0.00002  -0.00008  -0.00003  -0.00004   0.00001  -0.00001
    C33      Z    -0.00002  -0.00011   0.00001  -0.00009   0.00001   0.00000
    C34      X     0.00000   0.00002  -0.00007   0.00001   0.00007  -0.00000
    C34      Y     0.00003  -0.00003   0.00001  -0.00003  -0.00001  -0.00001
    C34      Z    -0.00000   0.00000  -0.00002  -0.00000   0.00002   0.00000
    C35      X    -0.00009  -0.00000   0.00002  -0.00000  -0.00002   0.00000
    C35      Y    -0.00015   0.00001  -0.00000   0.00000  -0.00000  -0.00000
    C35      Z    -0.00014  -0.00000  -0.00003  -0.00004   0.00002  -0.00001
    C36      X    -0.00013  -0.00000   0.00002   0.00007   0.00001  -0.00000
    C36      Y     0.00010  -0.00000  -0.00001  -0.00001   0.00000  -0.00000
    C36      Z     0.00021   0.00000   0.00002   0.00006  -0.00001  -0.00000
    C37      X     0.00006   0.00000  -0.00001   0.00000   0.00001  -0.00000
    C37      Y    -0.00008  -0.00001   0.00000   0.00002   0.00001  -0.00000
    C37      Z    -0.00011   0.00001   0.00001   0.00001  -0.00001   0.00000
    C38      X     0.00012   0.00001  -0.00023  -0.00085  -0.00001   0.00000
    C38      Y    -0.00008   0.00000   0.00021   0.00043   0.00001   0.00000
    C38      Z    -0.00000   0.00000   0.00017   0.00050  -0.00001  -0.00000
    C39      X    -0.00040  -0.00000  -0.00138  -0.00342   0.00005  -0.00000
    C39      Y     0.00042  -0.00001   0.00119   0.00310  -0.00006  -0.00000
    C39      Z     0.00010  -0.00001   0.00068   0.00154  -0.00000  -0.00000
    C40      X    -0.00007   0.00001  -0.00092  -0.00271   0.00005  -0.00000
    C40      Y     0.00015  -0.00002   0.00235   0.00647  -0.00010  -0.00000
    C40      Z    -0.00010   0.00001  -0.00155  -0.00401   0.00005  -0.00000
    C41      X     0.00013  -0.00002   0.00403   0.01120  -0.00003   0.00000
    C41      Y     0.00004  -0.00000   0.00201   0.00560   0.00000  -0.00000
    C41      Z    -0.00022   0.00003  -0.00756  -0.02120   0.00006  -0.00000
    C42      X     0.00038  -0.00007   0.01853   0.05339  -0.00011  -0.00000
    C42      Y    -0.00033   0.00004  -0.01655  -0.04747   0.00008  -0.00000
    C42      Z    -0.00007  -0.00001  -0.00638  -0.01799  -0.00004  -0.00000
    C43      X    -0.00006  -0.00004   0.00104   0.00359  -0.00005  -0.00000
    C43      Y     0.00029   0.00004  -0.00431  -0.01342  -0.00003   0.00000
    C43      Z    -0.00015  -0.00003   0.00445   0.01355   0.00002  -0.00000
    C44      X     0.00169   0.00000  -0.00000  -0.00000  -0.00000   0.00000
    C44      Y     0.00117   0.00000   0.00000   0.00001  -0.00000   0.00000
    C44      Z     0.00046  -0.00000  -0.00001  -0.00002   0.00000  -0.00000
    C45      X    -0.02672   0.00003   0.00009   0.00021   0.00000  -0.00000
    C45      Y     0.03436  -0.00004  -0.00012  -0.00028   0.00000  -0.00000
    C45      Z     0.02991  -0.00003  -0.00011  -0.00025   0.00000  -0.00000
    C46      X    -0.04199   0.00007   0.00013   0.00026  -0.00002   0.00000
    C46      Y    -0.00477   0.00001   0.00002   0.00004  -0.00000   0.00000
    C46      Z     0.00367  -0.00001  -0.00001  -0.00001   0.00000  -0.00000
    C47      X    -0.01893   0.00003   0.00004   0.00005  -0.00001  -0.00000
    C47      Y    -0.03265   0.00006   0.00007   0.00009  -0.00002   0.00000
    C47      Z    -0.01983   0.00004   0.00004   0.00006  -0.00001  -0.00000
    C48      X     0.01455  -0.00002  -0.00004  -0.00005   0.00002  -0.00000
    C48      Y    -0.01608   0.00003   0.00005   0.00005  -0.00002   0.00000
    C48      Z    -0.01339   0.00002   0.00004   0.00005  -0.00002  -0.00000
    C49      X     0.01991  -0.00002  -0.00005  -0.00002   0.00003  -0.00000
    C49      Y     0.00265  -0.00000  -0.00001  -0.00001   0.00000  -0.00000
    C49      Z    -0.00092   0.00000   0.00000  -0.00000  -0.00000  -0.00000
    H50      X     0.00005  -0.00000  -0.00002  -0.00001   0.00002  -0.00001
    H50      Y    -0.00049   0.00010  -0.00009   0.00003   0.00007   0.00003
    H50      Z     0.00042  -0.00010   0.00007  -0.00002  -0.00003  -0.00003
    H51      X    -0.00061  -0.00003   0.00049  -0.00009  -0.00069  -0.00002
    H51      Y    -0.00092  -0.00004   0.00079  -0.00010  -0.00109  -0.00003
    H51      Z    -0.00039  -0.00002   0.00039  -0.00007  -0.00056  -0.00002
    H52      X    -0.00048  -0.00002   0.00065   0.00004  -0.00067   0.00003
    H52      Y     0.00015   0.00001  -0.00026   0.00000   0.00030  -0.00002
    H52      Z    -0.00003  -0.00000  -0.00004   0.00003   0.00009   0.00000
    H53      X     0.00006  -0.00003  -0.00471   0.00157   0.00638   0.00003
    H53      Y    -0.00005   0.00008   0.00540  -0.00180  -0.00714  -0.00002
    H53      Z    -0.00020   0.00012   0.01670  -0.00549  -0.02175  -0.00013
    H54      X    -0.00030  -0.00002  -0.00073   0.00033   0.00079   0.00002
    H54      Y     0.00016   0.00002   0.00010  -0.00007  -0.00002  -0.00000
    H54      Z    -0.00001  -0.00002  -0.00052   0.00020   0.00078   0.00000
    H55      X    -0.00018  -0.00001   0.00266  -0.00110  -0.00353  -0.00004
    H55      Y    -0.00024  -0.00002   0.00218  -0.00088  -0.00291  -0.00003
    H55      Z    -0.00009  -0.00002   0.00104  -0.00040  -0.00144  -0.00003
    H56      X    -0.00004   0.00008  -0.00063   0.00024   0.00096   0.00000
    H56      Y    -0.00017   0.00018  -0.00218   0.00083   0.00309   0.00006
    H56      Z     0.00015  -0.00020   0.00240  -0.00089  -0.00362  -0.00009
    H57      X    -0.00031  -0.00015  -0.00013   0.00019   0.00028  -0.00003
    H57      Y     0.00012   0.00009   0.00028  -0.00014  -0.00043   0.00000
    H57      Z    -0.00008  -0.00003  -0.00040   0.00017   0.00057   0.00001
    H58      X    -0.00003  -0.00004  -0.00346   0.00113   0.00478   0.00003
    H58      Y     0.00005   0.00003   0.00414  -0.00136  -0.00596  -0.00001
    H58      Z     0.00012   0.00016   0.00756  -0.00250  -0.01038  -0.00002
    H59      X    -0.00009  -0.00346   0.00133  -0.00036  -0.00117  -0.00023
    H59      Y     0.00004   0.00058  -0.00014   0.00003   0.00006  -0.00001
    H59      Z    -0.00003  -0.00094   0.00032  -0.00007  -0.00028   0.00004
    H60      X    -0.00004  -0.00383   0.00004  -0.00010  -0.00012   0.00009
    H60      Y     0.00001  -0.00075   0.00000  -0.00004   0.00001   0.00001
    H60      Z     0.00005   0.00609  -0.00035   0.00024   0.00014   0.00003
    H61      X     0.00001   0.00017   0.00004  -0.00002  -0.00008  -0.00006
    H61      Y    -0.00043   0.00060  -0.00003   0.00021   0.00012   0.00023
    H61      Z     0.00011  -0.00047   0.00005  -0.00007  -0.00007  -0.00015
    H62      X    -0.00004  -0.00057   0.00013  -0.00054   0.00006   0.00003
    H62      Y     0.00001  -0.00030  -0.00014  -0.00015   0.00005  -0.00001
    H62      Z     0.00001   0.00090  -0.00005   0.00062  -0.00016   0.00000
    H63      X     0.00001   0.00031   0.00006   0.00023  -0.00005  -0.00002
    H63      Y     0.00014   0.00059   0.00003   0.00037  -0.00004  -0.00002
    H63      Z     0.00009   0.00071   0.00007   0.00050  -0.00003  -0.00003
    H64      X     0.00004  -0.00003   0.00001  -0.00000   0.00000  -0.00000
    H64      Y    -0.00041   0.00069   0.00046   0.00015  -0.00011   0.00007
    H64      Z     0.00012  -0.00036  -0.00020  -0.00005   0.00005  -0.00003
    H65      X    -0.00005  -0.00030   0.00076  -0.00011  -0.00068   0.00002
    H65      Y     0.00002   0.00002  -0.00009   0.00000   0.00006  -0.00002
    H65      Z    -0.00002  -0.00003   0.00012  -0.00001  -0.00009   0.00002
    H66      X     0.00004  -0.00001   0.00006  -0.00005  -0.00006  -0.00002
    H66      Y    -0.00038   0.00028   0.00008   0.00017   0.00004   0.00008
    H66      Z     0.00014  -0.00012  -0.00011  -0.00004   0.00001  -0.00004
    H67      X    -0.00002   0.00004   0.00003   0.00002  -0.00003  -0.00000
    H67      Y    -0.00004   0.00009   0.00011   0.00007  -0.00006  -0.00002
    H67      Z    -0.00010   0.00013   0.00017   0.00010  -0.00008  -0.00004
    H68      X     0.00124  -0.00006  -0.00007  -0.00007   0.00004  -0.00003
    H68      Y     0.00048  -0.00003  -0.00003  -0.00001   0.00002  -0.00001
    H68      Z     0.00033  -0.00004  -0.00008  -0.00003   0.00006  -0.00003
    H69      X    -0.00193  -0.00003   0.00015   0.00023  -0.00005   0.00002
    H69      Y     0.00147   0.00003  -0.00011  -0.00016   0.00005  -0.00001
    H69      Z     0.00081   0.00001  -0.00010  -0.00016   0.00005  -0.00001
    H70      X    -0.00018   0.00003  -0.00001  -0.00003  -0.00000   0.00000
    H70      Y    -0.00035   0.00015   0.00011   0.00008  -0.00009   0.00002
    H70      Z     0.00023  -0.00007  -0.00007  -0.00016   0.00003  -0.00000
    H71      X     0.00457  -0.00010   0.01450   0.03628  -0.00062   0.00001
    H71      Y    -0.00433   0.00010  -0.01366  -0.03413   0.00062   0.00000
    H71      Z    -0.00176   0.00004  -0.00596  -0.01491   0.00026   0.00000
    H72      X     0.00043  -0.00007   0.00747   0.02035  -0.00028   0.00001
    H72      Y    -0.00147   0.00024  -0.02365  -0.06416   0.00103  -0.00002
    H72      Z     0.00115  -0.00017   0.01782   0.04822  -0.00076   0.00001
    H73      X    -0.00130   0.00019  -0.04713  -0.13043   0.00026  -0.00001
    H73      Y    -0.00038   0.00005  -0.01468  -0.04048   0.00003  -0.00000
    H73      Z     0.00212  -0.00032   0.07847   0.21810  -0.00052   0.00002
    H74      X    -0.00428   0.00069  -0.20837  -0.59935   0.00109   0.00003
    H74      Y     0.00381  -0.00058   0.18639   0.53587  -0.00093   0.00001
    H74      Z     0.00142  -0.00019   0.07281   0.20926  -0.00032  -0.00000
    H75      X     0.00138   0.00022  -0.01741  -0.05473   0.00002   0.00002
    H75      Y    -0.00255  -0.00056   0.04684   0.14675  -0.00000  -0.00003
    H75      Z     0.00250   0.00044  -0.04188  -0.13086   0.00002   0.00004
    H76      X     0.31275  -0.00033  -0.00102  -0.00233  -0.00003   0.00001
    H76      Y    -0.37734   0.00042   0.00129   0.00285   0.00001  -0.00000
    H76      Z    -0.33349   0.00038   0.00121   0.00274   0.00001   0.00000
    H77      X     0.45440  -0.00081  -0.00147  -0.00283   0.00018  -0.00003
    H77      Y     0.04950  -0.00009  -0.00017  -0.00035   0.00002  -0.00000
    H77      Z    -0.04187   0.00008   0.00012   0.00022  -0.00002  -0.00000
    H78      X     0.21368  -0.00037  -0.00048  -0.00063   0.00013  -0.00001
    H78      Y     0.35519  -0.00061  -0.00080  -0.00106   0.00021  -0.00002
    H78      Z     0.21445  -0.00037  -0.00049  -0.00064   0.00013  -0.00002
    H79      X    -0.14782   0.00025   0.00045   0.00048  -0.00017   0.00001
    H79      Y     0.17729  -0.00030  -0.00055  -0.00059   0.00021  -0.00002
    H79      Z     0.14525  -0.00024  -0.00045  -0.00049   0.00017  -0.00002
    H80      X    -0.21936   0.00025   0.00051   0.00006  -0.00029  -0.00000
    H80      Y    -0.02368   0.00003   0.00008   0.00005  -0.00004   0.00000
    H80      Z     0.01485  -0.00001  -0.00004  -0.00000   0.00002   0.00000
  
  Number of imaginary frequencies:   1
   
  Writing vibrational animation data to red_elim_complex_L1_PL747.vib
  Writing IR vibrational spectrum data to red_elim_complex_L1_PL747_vib.spm
  rotational symmetry number:  1

  rotational temperatures (K):      0.006115      0.003281      0.002922
   
  The Quasi-Harmonic approximation will be applied to compute
  vibrational constributions to thermodynamic properties.
  Frequencies will be adjusted to a minimum value of  100.00 cm^-1.

    1 vibrational frequencies below    0.0 cm-1 not included in zero-point
  energy or thermochemical analysis.  Set freqcut to change the frequency
  cutoff value.

  vibrational temperatures:
       mode:      2        3        4        5        6        7
  temp. (K):   143.88   143.88   143.88   143.88   143.88   143.88
   
       mode:      8        9       10       11       12       13
  temp. (K):   143.88   143.88   143.88   143.88   143.88   143.88
   
       mode:     14       15       16       17       18       19
  temp. (K):   152.77   166.38   172.12   176.26   189.12   193.41
   
       mode:     20       21       22       23       24       25
  temp. (K):   204.15   213.56   225.15   261.94   295.01   311.78
   
       mode:     26       27       28       29       30       31
  temp. (K):   331.11   336.56   346.14   360.95   366.14   366.30
   
       mode:     32       33       34       35       36       37
  temp. (K):   376.31   387.40   399.61   418.37   419.62   425.45
   
       mode:     38       39       40       41       42       43
  temp. (K):   437.02   445.87   455.18   466.99   472.54   503.91
   
       mode:     44       45       46       47       48       49
  temp. (K):   530.00   532.57   557.70   574.03   582.77   587.55
   
       mode:     50       51       52       53       54       55
  temp. (K):   594.33   598.32   601.76   613.84   619.41   631.28
   
       mode:     56       57       58       59       60       61
  temp. (K):   663.87   682.87   700.28   708.31   738.27   740.89
   
       mode:     62       63       64       65       66       67
  temp. (K):   761.37   785.30   804.36   843.55   882.50   882.80
   
       mode:     68       69       70       71       72       73
  temp. (K):   894.80   902.66   903.39   908.34   946.25   958.76
   
       mode:     74       75       76       77       78       79
  temp. (K):   982.10   998.11  1030.28  1034.80  1042.57  1083.34
   
       mode:     80       81       82       83       84       85
  temp. (K):  1100.12  1109.03  1126.10  1155.92  1159.32  1178.05
   
       mode:     86       87       88       89       90       91
  temp. (K):  1198.37  1201.55  1214.93  1224.60  1231.12  1256.67
   
       mode:     92       93       94       95       96       97
  temp. (K):  1289.26  1291.63  1312.29  1316.13  1332.90  1357.78
   
       mode:     98       99      100      101      102      103
  temp. (K):  1371.64  1372.90  1378.56  1384.11  1389.59  1398.26
   
       mode:    104      105      106      107      108      109
  temp. (K):  1409.17  1412.49  1425.12  1433.99  1442.81  1453.16
   
       mode:    110      111      112      113      114      115
  temp. (K):  1454.72  1459.55  1463.18  1467.18  1471.03  1483.17
   
       mode:    116      117      118      119      120      121
  temp. (K):  1498.76  1511.18  1514.50  1520.21  1525.81  1527.81
   
       mode:    122      123      124      125      126      127
  temp. (K):  1535.81  1537.51  1597.19  1609.52  1617.91  1640.12
   
       mode:    128      129      130      131      132      133
  temp. (K):  1671.41  1701.51  1728.88  1731.38  1732.81  1733.90
   
       mode:    134      135      136      137      138      139
  temp. (K):  1749.28  1751.88  1755.85  1767.00  1770.22  1771.04
   
       mode:    140      141      142      143      144      145
  temp. (K):  1780.31  1792.65  1797.95  1808.34  1820.23  1867.28
   
       mode:    146      147      148      149      150      151
  temp. (K):  1868.04  1915.64  1921.24  1942.62  1971.95  1973.59
   
       mode:    152      153      154      155      156      157
  temp. (K):  1982.87  2001.83  2005.44  2041.11  2045.52  2047.69
   
       mode:    158      159      160      161      162      163
  temp. (K):  2048.88  2052.53  2074.74  2087.96  2101.97  2126.18
   
       mode:    164      165      166      167      168      169
  temp. (K):  2145.93  2153.56  2157.00  2158.25  2160.84  2170.50
   
       mode:    170      171      172      173      174      175
  temp. (K):  2173.78  2178.18  2185.50  2189.64  2192.09  2196.35
   
       mode:    176      177      178      179      180      181
  temp. (K):  2207.34  2209.37  2212.45  2216.89  2220.07  2227.78
   
       mode:    182      183      184      185      186      187
  temp. (K):  2230.17  2234.82  2273.89  2329.56  2340.65  2358.88
   
       mode:    188      189      190      191      192      193
  temp. (K):  2368.73  2372.85  2382.90  2390.03  2403.19  2415.63
   
       mode:    194      195      196      197      198      199
  temp. (K):  4366.34  4367.49  4370.56  4374.27  4377.85  4380.82
   
       mode:    200      201      202      203      204      205
  temp. (K):  4385.26  4469.08  4470.41  4475.02  4486.06  4487.25
   
       mode:    206      207      208      209      210      211
  temp. (K):  4490.90  4496.61  4506.89  4516.54  4523.49  4542.86
   
       mode:    212      213      214      215      216      217
  temp. (K):  4547.07  4550.02  4551.28  4563.11  4574.25  4577.66
   
       mode:    218      219      220      221      222      223
  temp. (K):  4579.85  4583.77  4586.17  4591.93  4596.57  4600.12
   
       mode:    224      225      226      227      228      229
  temp. (K):  4601.66  4605.74  4614.16  4615.40  4620.09  4622.71
   
       mode:    230      231      232      233      234
  temp. (K):  4628.08  4642.85  4643.12  4660.30  5182.80
   
   
  Thermodynamic properties calculated assuming an ideal gas

  In the table below, the units for temperature
  are kelvins, the units for U, H, and G are
  kcal/mol and the units for Cv and S are cal/(mol K)

  The zero point energy (ZPE):    424.959 kcal/mol
  is not included in U, H, or G in the table below
  
 
  =============================================================================
  Thermodynamic properties for P = 1.00E+00 atm, calculated at   1 temperatures


  T =   298.15 K, P = 1.00E+00 atm
   
                  U         Cv          S          H          G        ln(Q)
              =========  =========  =========  =========  =========  =========
  trans.          0.889      2.981     45.210      1.481    -11.998   20.25056
  rot.            0.889      2.981     37.647      0.889    -10.336   17.44478
  vib.           21.893    147.081    131.445     21.893    -17.297   29.19381
  elec.           0.000      0.000      0.000      0.000      0.000    0.00000
  ----------------------------------------------------------------------------
  total          23.671    153.043    214.302     24.263    -39.631   66.88914
   
   Total internal energy, Utot(SCFE + ZPE + U):   -1979.970240 hartrees
   Total enthalpy, Htot (Utot + nRT), with n=1:   -1979.969296 hartrees
    Total Gibbs free energy, Gtot (Htot - T*S):   -1980.071118 hartrees
   
  end of program freq
   
 Time(freq)  user:       0.433  user+sys:       0.433  wallclock:       0.790
  
  start of program post
  
  Writing input files for PBF
  end of program post
   
 Time(post)  user:       0.201  user+sys:       0.201  wallclock:       0.140

 Total cpu seconds     user:  103276.726   user+sys:  103276.726
  
 Total elapsed time:    62217 seconds

Job red_elim_complex_L1_PL747 completed on bp1-compute050.data.bp.acrc.priv at Wed Apr  2 18:41:06 2025
