Job red_elim_N_trans_L1_PL747 started on bp1-compute145.data.bp.acrc.priv at Mon Mar 24 19:53:52 2025
jobid: bp1-compute145-0-67e1b849

  +--------------------------------------------------------------------+
  |  Jaguar version 12.5, release 138                                  |
  |                                                                    |
  |  Copyright Schrodinger, Inc.                                       |
  |  All Rights Reserved.                                              |
  |                                                                    |
  |  The following have contributed to Jaguar (listed alphabetically): |
  |  Ty Balduf, Mike Beachy, Chandler Bennett, Art Bochevarov,         |
  |  Dale Braden, Yixiang Cao, Alan Chien, Chris Cortis,               |
  |  Rich Friesner, Jim Furness, Bill Goddard, Hod Greeley,            |
  |  Tom Hughes, Leif Jacobson, Jean-Marc Langlois, Daniel Levine,     |
  |  Rob Murphy, Dean Philipp, Tom Pollard, Murco Ringnalda,           |
  |  Daniel Mainz, Pablo Videla, Mark Watson, Haoyu Yu.                |
  |                                                                    |
  |  Use of this program should be acknowledged in publications as:    |
  |                                                                    |
  |  Jaguar, version 12.5, Schrodinger, Inc., New York, NY, 2024.      |
  |                                                                    |
  |  A. D. Bochevarov, E. Harder, T. F. Hughes, J. R. Greenwood,       |
  |  D. A. Braden, D. M. Philipp, D. Rinaldo, M. D. Halls,             |
  |  J. Zhang, R. A. Friesner, "Jaguar: A High-Performance Quantum     |
  |  Chemistry Software Program with Strengths in Life and Materials   |
  |  Sciences", Int. J. Quantum Chem., 2013, 113(18), 2110-2142.       |
  +--------------------------------------------------------------------+
  
  start of program pre
  
  Job name: red_elim_N_trans_L1_PL747
  Executables used: /software/local/apps/schrodinger2024-3/jaguar-v12.5/bin/Linux-x86_64
  Temporary files : /tmp/ar21627/red_elim_N_trans_L1_PL747#bp1-compute145-0-67e1b849
  Basis file : using default basis file from /software/local/apps/schrodinger2024-3
  Maestro file (input):  red_elim_N_trans_L1_PL747.mae
  Maestro file (output): red_elim_N_trans_L1_PL747.01.mae
  
 Contents of input file: &gen and (if present) &atomic sections only
 ----------------Contents start----------------
&gen
dftname=b3pw91-d3
basis=6-31G*
numd=5
ip11=2
iaccg=3
isolv=2
igeopt=1
solvent=benzene
ifreq=1
&
&atomic
atom basis
Pd2 lacv3p*
&
 -----------------Contents end-----------------
 
  PS calculation requested. Using PS version of 6-31g*
  basis set:               non_standard                    
  net molecular charge:    0
  multiplicity:            1
  
  Using up to   4 threads per process
  
  This run will use ECP on 1 atom
  number of basis functions....          649
  
  input atom labels were not unique
  original atom labels:
 P1       Pd2      N2       C16      C17      C18      C19      C20     
 C21      F10      H23      H24      H25      H26      H18      C22     
 C23      C24      C25      C26      C27      H22      H27      H28     
 H29      H30      C6       C7       C8       C9       C10      C11     
 C12      C13      C14      C15      C16      C17      C18      C19     
 C20      C21      C22      C23      C24      C25      C26      C27     
 C28      H29      H30      H31      H32      H33      H34      H35     
 H36      H37      H38      H39      H40      H41      H42      H43     
 H44      H45      H46      H47      H48      H49      H50      H51     
 H52      H53      H54      H55      H56      H57      H58      H59     
  new atom labels:
 P1       Pd2      N3       C4       C5       C6       C7       C8      
 C9       F10      H11      H12      H13      H14      H15      C16     
 C17      C18      C19      C20      C21      H22      H23      H24     
 H25      H26      C27      C28      C29      C30      C31      C32     
 C33      C34      C35      C36      C37      C38      C39      C40     
 C41      C42      C43      C44      C45      C46      C47      C48     
 C49      H50      H51      H52      H53      H54      H55      H56     
 H57      H58      H59      H60      H61      H62      H63      H64     
 H65      H66      H67      H68      H69      H70      H71      H72     
 H73      H74      H75      H76      H77      H78      H79      H80     
 
  
 Input geometry:
                                   angstroms
  atom               x                 y                 z
  P1            0.0000000000      0.0000000000      0.0000000000 
  Pd2           0.0000000000      0.0000000000      2.3923182082 
  N3            2.0248930909      0.0000000000      2.1745882742 
  C4            0.2206536699     -0.0004682074      7.2562187795 
  C5            0.2132510608      1.1987257052      6.5347188772 
  C6            0.1940987259      1.1999612069      5.1371944723 
  C7            0.1665902834      0.0035440496      4.4021695345 
  C8            0.1874309102     -1.1950990358      5.1348464771 
  C9            0.2094305550     -1.1978928222      6.5306472385 
  F10           0.2210357163     -0.0074586338      8.5892003953 
  H11           0.2335369015      2.1463964378      7.0741070950 
  H12           0.2136829301      2.1567974204      4.6153218170 
  H13           0.2023730899     -2.1504656761      4.6104898253 
  H14           0.2240023780     -2.1467925995      7.0679212173 
  H15           2.4443237244      1.0018584917      2.0003542185 
  C16           4.0295452266     -1.9114413017      5.4205510973 
  C17           3.6384422407     -2.6598336373      4.2981422519 
  C18           2.9786251993     -2.0306962813      3.2297565963 
  C19           2.7099111439     -0.6531665897      3.2837797861 
  C20           3.1009671510      0.0952705404      4.4061125628 
  C21           3.7608311712     -0.5339116101      5.4745742872 
  H22           4.5479091451     -2.4057027176      6.2598937335 
  H23           3.8496154531     -3.7420855516      4.2558188718 
  H24           2.6713875323     -2.6186419814      2.3480145026 
  H25           2.8898358885      1.1773902725      4.4484636576 
  H26           4.0680688560      0.0540340938      6.3563163721 
  C27           2.4859719890      0.0000000000     -1.6223129383 
  C28           1.8417756257      0.2769820460     -0.2399989394 
  C29           2.6663087097     -0.6082138621      0.7365118888 
  C30           2.2012755100      1.7300295336      0.1185451052 
  C31          -1.0442422168      1.0525620250     -1.2245682407 
  C32          -1.4860189141      2.4068635562     -0.6186336630 
  C33          -2.3367912708      0.3331721453     -1.7052096288 
  C34          -0.3250889897      1.4259492335     -2.5340722034 
  C35          -0.6347117209     -1.6922415293     -0.3828062666 
  C36          -1.6302748092     -2.3927843535      0.2399897583 
  C37           0.0498481859     -2.2307293172     -1.6154187915 
  C38          -2.5205641274     -1.8331540020      1.3175461603 
  C39          -3.2361967390     -2.6805096353      2.2022542455 
  C40          -4.0600273760     -2.2250561135      3.2408307573 
  C41          -4.2109305406     -0.8520848934      3.4784760050 
  C42          -3.5076587701      0.0284255940      2.6542490346 
  C43          -2.6925367435     -0.4708665801      1.6203982685 
  C44          -1.8623523873     -3.8259187935     -0.1349257984 
  C45          -3.1554951512     -4.4027058888     -0.0568525067 
  C46          -3.4421022397     -5.7330231762     -0.4105038771 
  C47          -2.4188354248     -6.5759441177     -0.8636145833 
  C48          -1.1216326943     -6.0523033683     -0.9583005987 
  C49          -0.8732314023     -4.7159716000     -0.6057184053 
  H50           2.0813719627      0.6072601128     -2.4483495804 
  H51           2.4311175010     -1.0725477374     -1.9263398058 
  H52           3.5745669595      0.2314293317     -1.6211068800 
  H53           2.4573412261     -0.3720653966      1.7972151899 
  H54           3.7578638055     -0.4604751279      0.6100969397 
  H55           2.4638157099     -1.6856423925      0.5552817953 
  H56           1.6519446043      2.4722168973     -0.4992230335 
  H57           3.2811668996      1.9419156510     -0.0149459428 
  H58           1.9871346933      1.9556400374      1.1879195070 
  H59          -0.6157427779      3.0122505336     -0.2973626647 
  H60          -2.1831377681      2.2877233763      0.2375526023 
  H61          -2.0479247989      3.0245050227     -1.3585909559 
  H62          -3.0368992754      0.0578162296     -0.8875143619 
  H63          -2.1139318149     -0.5972890217     -2.2671034618 
  H64          -2.9294144919      0.9726865205     -2.3898585036 
  H65           0.5506695379      2.0950297279     -2.3609297955 
  H66          -0.9761293915      2.0030120040     -3.2222182302 
  H67          -0.0026444036      0.5379374497     -3.1141278566 
  H68          -0.5594442697     -2.9507240190     -2.2036197206 
  H69           1.0543217752     -2.6543280660     -1.3763938799 
  H70           0.2089887201     -1.4238140282     -2.3645129156 
  H71          -3.1419181795     -3.7712210074      2.1619894233 
  H72          -4.5804963435     -2.9436655974      3.8935462111 
  H73          -4.8535231849     -0.4799595536      4.2930319729 
  H74          -3.5899332507      1.1152026592      2.8130272456 
  H75          -2.1961053731      0.2994317511      1.0380707185 
  H76          -4.0307812875     -3.7991870334      0.2351071833 
  H77          -4.4739698759     -6.1207038115     -0.3304170105 
  H78          -2.6247252347     -7.6205234697     -1.1315014316 
  H79          -0.3025493460     -6.7027232928     -1.3096642141 
  H80           0.1864454950     -4.4198743842     -0.6757991606 
   
  principal moments of inertia:
        amu*angstrom^2:              4624.73287              7262.02195              8155.39420
                g*cm^2:          7.67954865E-37          1.20588696E-36          1.35423490E-36
   
  rotational constants:
               cm^(-1):      0.00364510      0.00232134      0.00206705
                   GHz:      0.10927745      0.06959205      0.06196868
   
  Molecular weight:     631.20 amu
   
  Stoichiometry: PdC35PNH41F
  Molecular Point Group: C1      
  Point Group used: C1
  
 
Number of optimization coordinates:   277
Number of independent coordinates:    277
Number of non-redundant coordinates:  234
Number of frozen coordinates:           0
Number of harmonic constraints:         0
 
Number of geometric degrees of freedom:   234
Maximum geometric degrees of freedom:     234
 " " " " " excluding dummy atoms:         234
 
 
  bond lengths (angstroms):
 
 P1      -Pd2     :   2.392318      P1      -C28     :   1.877886
 P1      -C31     :   1.922991      P1      -C35     :   1.847453
 Pd2     -N3      :   2.036565      Pd2     -C7      :   2.016747
 N3      -H15     :   1.100000      N3      -C19     :   1.458143
 N3      -C29     :   1.688017      N3      -H53     :   0.683999
 C4      -C5      :   1.399530      C4      -C9      :   1.400145
 C4      -F10     :   1.333000      C5      -C6      :   1.397656
 C5      -H11     :   1.090610      C6      -C7      :   1.404433
 C6      -H12     :   1.090078      C7      -C8      :   1.404989
 C8      -C9      :   1.395977      C8      -H13     :   1.089908
 C9      -H14     :   1.090544      C16     -C17     :   1.404583
 C16     -C21     :   1.404533      C16     -H22     :   1.103400
 C17     -C18     :   1.404500      C17     -H23     :   1.103474
 C18     -C19     :   1.404533      C18     -H24     :   1.103424
 C19     -C20     :   1.404533      C20     -C21     :   1.404600
 C20     -H25     :   1.103337      C21     -H26     :   1.103424
 C27     -C28     :   1.550000      C27     -H50     :   1.102181
 C27     -H51     :   1.116154      C27     -H52     :   1.112924
 C28     -C29     :   1.554670      C28     -C30     :   1.539201
 C29     -H53     :   1.106583      C29     -H54     :   1.108738
 C29     -H55     :   1.111171      C30     -H56     :   1.110965
 C30     -H57     :   1.108549      C30     -H58     :   1.113696
 C31     -C32     :   1.548049      C31     -C33     :   1.555385
 C31     -C34     :   1.539935      C32     -H59     :   1.107740
 C32     -H60     :   1.110506      C32     -H61     :   1.115686
 C33     -H62     :   1.111124      C33     -H63     :   1.109572
 C33     -H64     :   1.108569      C34     -H65     :   1.115616
 C34     -H66     :   1.109234      C34     -H67     :   1.108603
 C35     -C36     :   1.367399      C35     -C37     :   1.509280
 C36     -C38     :   1.505632      C36     -C44     :   1.499432
 C37     -H68     :   1.111580      C37     -H69     :   1.116036
 C37     -H70     :   1.112466      C38     -C39     :   1.418749
 C38     -C43     :   1.406101      C39     -C40     :   1.401705
 C39     -H71     :   1.095519      C40     -C41     :   1.401534
 C40     -H72     :   1.101510      C41     -C42     :   1.396152
 C41     -H73     :   1.102227      C42     -C43     :   1.408036
 C42     -H74     :   1.101392      C43     -H75     :   1.085776
 C44     -C45     :   1.418096      C44     -C49     :   1.411453
 C45     -C46     :   1.406043      C45     -H76     :   1.102543
 C46     -C47     :   1.401035      C46     -H77     :   1.105197
 C47     -C48     :   1.402106      C47     -H78     :   1.097862
 C48     -C49     :   1.404208      C48     -H79     :   1.103359
 C49     -H80     :   1.102497
 
  bond angles:
 
 C28     -P1      -Pd2     :  97.342638  C31     -P1      -Pd2     : 129.553898
 C31     -P1      -C28     : 111.744572  C35     -P1      -Pd2     : 101.958762
 C35     -P1      -C28     : 116.460285  C35     -P1      -C31     : 100.536212
 N3      -Pd2     -P1      :  83.862758  C7      -Pd2     -P1      : 175.260696
 C7      -Pd2     -N3      :  91.399003  H15     -N3      -Pd2     : 113.331428
 C19     -N3      -Pd2     : 112.691549  C19     -N3      -H15     : 110.446772
 C29     -N3      -Pd2     : 117.961898  C29     -N3      -H15     :  92.770584
 C29     -N3      -C19     : 107.947394  H53     -N3      -Pd2     : 133.440090
 H53     -N3      -H15     :  99.611356  H53     -N3      -C19     :  83.050479
 H53     -N3      -C29     :  25.006928  C9      -C4      -C5      : 117.748983
 F10     -C4      -C5      : 121.333471  F10     -C4      -C9      : 120.912073
 C6      -C5      -C4      : 121.085167  H11     -C5      -C4      : 119.306782
 H11     -C5      -C6      : 119.604803  C7      -C6      -C5      : 121.522045
 H12     -C6      -C5      : 118.635292  H12     -C6      -C7      : 119.838237
 C6      -C7      -Pd2     : 121.647118  C8      -C7      -Pd2     : 121.293709
 C8      -C7      -C6      : 116.972232  C9      -C8      -C7      : 121.557740
 H13     -C8      -C7      : 119.810802  H13     -C8      -C9      : 118.624739
 C8      -C9      -C4      : 121.101860  H14     -C9      -C4      : 119.256721
 H14     -C9      -C8      : 119.640461  C21     -C16     -C17     : 120.002746
 H22     -C16     -C17     : 120.000393  H22     -C16     -C21     : 119.996860
 C18     -C17     -C16     : 120.000393  H23     -C17     -C16     : 119.995826
 H23     -C17     -C18     : 120.003781  C19     -C18     -C17     : 119.996860
 H24     -C18     -C17     : 119.999284  H24     -C18     -C19     : 120.003855
 C18     -C19     -N3      : 119.996860  C20     -C19     -N3      : 119.996860
 C20     -C19     -C18     : 120.006279  C21     -C20     -C19     : 119.996860
 H25     -C20     -C19     : 120.001259  H25     -C20     -C21     : 120.001881
 C20     -C21     -C16     : 119.996860  H26     -C21     -C16     : 120.003855
 H26     -C21     -C20     : 119.999284  H50     -C27     -C28     : 114.667671
 H51     -C27     -C28     : 113.216762  H51     -C27     -H50     : 107.893773
 H52     -C27     -C28     : 111.616907  H52     -C27     -H50     : 104.199965
 H52     -C27     -H51     : 104.370416  C27     -C28     -P1      : 119.685427
 C29     -C28     -P1      : 110.848869  C29     -C28     -C27     : 103.768090
 C30     -C28     -P1      : 109.788049  C30     -C28     -C27     : 106.222348
 C30     -C28     -C29     : 105.505012  C28     -C29     -N3      :  97.378881
 H53     -C29     -N3      :  15.146964  H53     -C29     -C28     : 112.359211
 H54     -C29     -N3      : 115.037803  H54     -C29     -C28     : 112.002951
 H54     -C29     -H53     : 105.472016  H55     -C29     -N3      : 114.776170
 H55     -C29     -C28     : 110.670603  H55     -C29     -H53     : 109.198763
 H55     -C29     -H54     : 106.858970  H56     -C30     -C28     : 112.683762
 H57     -C30     -C28     : 112.328328  H57     -C30     -H56     : 106.680106
 H58     -C30     -C28     : 111.715700  H58     -C30     -H56     : 107.669515
 H58     -C30     -H57     : 105.320351  C32     -C31     -P1      : 112.616616
 C33     -C31     -P1      : 113.259062  C33     -C31     -C32     : 106.764108
 C34     -C31     -P1      : 114.874709  C34     -C31     -C32     : 104.714106
 C34     -C31     -C33     : 103.736378  H59     -C32     -C31     : 111.557046
 H60     -C32     -C31     : 112.772054  H60     -C32     -H59     : 109.159948
 H61     -C32     -C31     : 111.619353  H61     -C32     -H59     : 106.587826
 H61     -C32     -H60     : 104.748381  H62     -C33     -C31     : 114.256512
 H63     -C33     -C31     : 112.174739  H63     -C33     -H62     : 106.942602
 H64     -C33     -C31     : 111.609504  H64     -C33     -H62     : 105.107199
 H64     -C33     -H63     : 106.163418  H65     -C34     -C31     : 112.336163
 H66     -C34     -C31     : 112.308433  H66     -C34     -H65     : 104.182669
 H67     -C34     -C31     : 112.739674  H67     -C34     -H65     : 109.468348
 H67     -C34     -H66     : 105.237954  C36     -C35     -P1      : 128.684936
 C37     -C35     -P1      : 109.889446  C37     -C35     -C36     : 121.292777
 C38     -C36     -C35     : 124.475500  C44     -C36     -C35     : 119.240168
 C44     -C36     -C38     : 116.275301  H68     -C37     -C35     : 114.496636
 H69     -C37     -C35     : 111.637587  H69     -C37     -H68     : 111.150763
 H70     -C37     -C35     : 110.856140  H70     -C37     -H68     : 101.064513
 H70     -C37     -H69     : 106.904158  C39     -C38     -C36     : 121.503772
 C43     -C38     -C36     : 125.914389  C43     -C38     -C39     : 112.497504
 C40     -C39     -C38     : 124.362798  H71     -C39     -C38     : 121.891101
 H71     -C39     -C40     : 113.660382  C41     -C40     -C39     : 120.478961
 H72     -C40     -C39     : 120.316905  H72     -C40     -C41     : 119.192149
 C42     -C41     -C40     : 117.611883  H73     -C41     -C40     : 121.252466
 H73     -C41     -C42     : 121.132845  C43     -C42     -C41     : 120.095366
 H74     -C42     -C41     : 119.971301  H74     -C42     -C43     : 119.933325
 C42     -C43     -C38     : 124.924857  H75     -C43     -C38     : 121.057891
 H75     -C43     -C42     : 114.010856  C45     -C44     -C36     : 121.072537
 C49     -C44     -C36     : 125.285237  C49     -C44     -C45     : 113.635329
 C46     -C45     -C44     : 123.838833  H76     -C45     -C44     : 121.055335
 H76     -C45     -C46     : 115.004393  C47     -C46     -C45     : 120.112978
 H77     -C46     -C45     : 120.263401  H77     -C46     -C47     : 119.623423
 C48     -C47     -C46     : 118.220572  H78     -C47     -C46     : 120.956461
 H78     -C47     -C48     : 120.821812  C49     -C48     -C47     : 120.140430
 H79     -C48     -C47     : 119.219895  H79     -C48     -C49     : 120.639506
 C48     -C49     -C44     : 124.048634  H80     -C49     -C44     : 121.695734
 H80     -C49     -C48     : 114.183109  C29     -H53     -N3      : 139.846108
 
  torsional angles:
 
 P1      -Pd2     -N3      -H15     :  82.697021
 P1      -Pd2     -N3      -C19     :-150.953049
 P1      -Pd2     -N3      -C29     : -24.075188
 P1      -Pd2     -N3      -H53     : -48.517161
 P1      -Pd2     -C7      -C6      :  90.381529
 P1      -Pd2     -C7      -C8      : -93.112019
 P1      -C28     -C27     -H50     :  60.423601
 P1      -C28     -C27     -H51     : -63.971781
 P1      -C28     -C27     -H52     : 178.610880
 P1      -C28     -C29     -N3      : -59.231282
 P1      -C28     -C29     -H53     : -61.557565
 P1      -C28     -C29     -H54     : 179.931233
 P1      -C28     -C29     -H55     :  60.802319
 P1      -C28     -C30     -H56     : -59.094664
 P1      -C28     -C30     -H57     :-179.623589
 P1      -C28     -C30     -H58     :  62.275757
 P1      -C31     -C32     -H59     :  58.116114
 P1      -C31     -C32     -H60     : -65.152471
 P1      -C31     -C32     -H61     : 177.243530
 P1      -C31     -C33     -H62     :  59.561348
 P1      -C31     -C33     -H63     : -62.364252
 P1      -C31     -C33     -H64     : 178.637193
 P1      -C31     -C34     -H65     : -64.845351
 P1      -C31     -C34     -H66     : 178.096263
 P1      -C31     -C34     -H67     :  59.410745
 P1      -C35     -C36     -C38     :   6.457709
 P1      -C35     -C36     -C44     :-172.406568
 P1      -C35     -C37     -H68     :-151.247671
 P1      -C35     -C37     -H69     :  81.355884
 P1      -C35     -C37     -H70     : -37.714256
 Pd2     -P1      -C28     -C27     : 164.064689
 Pd2     -P1      -C28     -C29     :  43.384917
 Pd2     -P1      -C28     -C30     : -72.784384
 Pd2     -P1      -C31     -C32     :  26.616122
 Pd2     -P1      -C31     -C33     : -94.660115
 Pd2     -P1      -C31     -C34     : 146.381420
 Pd2     -P1      -C35     -C36     :  40.002308
 Pd2     -P1      -C35     -C37     :-144.206813
 Pd2     -N3      -C19     -C18     :  90.105271
 Pd2     -N3      -C19     -C20     : -89.894729
 Pd2     -N3      -C29     -C28     :  53.552547
 Pd2     -N3      -C29     -H53     :-134.707298
 Pd2     -N3      -C29     -H54     : 172.072045
 Pd2     -N3      -C29     -H55     : -63.306762
 Pd2     -N3      -H53     -C29     :  59.830887
 Pd2     -C7      -C6      -C5      : 175.358092
 Pd2     -C7      -C6      -H12     :  -5.417776
 Pd2     -C7      -C8      -C9      :-175.508721
 Pd2     -C7      -C8      -H13     :   5.447408
 N3      -Pd2     -P1      -C28     :  -8.552539
 N3      -Pd2     -P1      -C31     :-134.772660
 N3      -Pd2     -P1      -C35     : 110.559641
 N3      -Pd2     -C7      -C6      :  91.593634
 N3      -Pd2     -C7      -C8      : -91.899915
 N3      -C19     -C18     -C17     : 180.000000
 N3      -C19     -C18     -H24     :   0.000001
 N3      -C19     -C20     -C21     : 180.000000
 N3      -C19     -C20     -H25     :   0.000001
 N3      -C29     -C28     -C27     : 171.056462
 N3      -C29     -C28     -C30     :  59.558388
 N3      -H53     -C29     -C28     :   8.862008
 N3      -H53     -C29     -H54     : 131.151849
 N3      -H53     -C29     -H55     :-114.327024
 C4      -C5      -C6      -C7      :   0.715588
 C4      -C5      -C6      -H12     :-178.517609
 C4      -C9      -C8      -C7      :  -0.434505
 C4      -C9      -C8      -H13     : 178.620373
 C5      -C4      -C9      -C8      :  -0.193424
 C5      -C4      -C9      -H14     : 179.449184
 C5      -C6      -C7      -C8      :  -1.292430
 C6      -C5      -C4      -C9      :   0.055695
 C6      -C5      -C4      -F10     :-179.100613
 C6      -C7      -C8      -C9      :   1.154437
 C6      -C7      -C8      -H13     :-177.889434
 C7      -Pd2     -P1      -C28     :  -7.333810
 C7      -Pd2     -P1      -C31     :-133.553931
 C7      -Pd2     -P1      -C35     : 111.778371
 C7      -Pd2     -N3      -H15     : -97.202263
 C7      -Pd2     -N3      -C19     :  29.147667
 C7      -Pd2     -N3      -C29     : 156.025528
 C7      -Pd2     -N3      -H53     : 131.583556
 C7      -C6      -C5      -H11     :-179.944664
 C7      -C8      -C9      -H14     : 179.924240
 C8      -C7      -C6      -H12     : 177.931702
 C8      -C9      -C4      -F10     : 178.966622
 C9      -C4      -C5      -H11     :-179.285990
 F10     -C4      -C5      -H11     :   1.557702
 F10     -C4      -C9      -H14     :  -1.390769
 H11     -C5      -C6      -H12     :   0.822139
 H13     -C8      -C9      -H14     :  -1.020882
 H15     -N3      -C19     -C18     :-142.012991
 H15     -N3      -C19     -C20     :  37.987009
 H15     -N3      -C29     -C28     : -64.781403
 H15     -N3      -C29     -H53     : 106.958753
 H15     -N3      -C29     -H54     :  53.738095
 H15     -N3      -C29     -H55     : 178.359289
 H15     -N3      -H53     -C29     : -75.696067
 C16     -C17     -C18     -C19     :   0.000000
 C16     -C17     -C18     -H24     : 179.999999
 C16     -C21     -C20     -C19     :   0.000000
 C16     -C21     -C20     -H25     : 180.000000
 C17     -C16     -C21     -C20     :   0.000000
 C17     -C16     -C21     -H26     : 180.000000
 C17     -C18     -C19     -C20     :   0.000000
 C18     -C17     -C16     -C21     :   0.000000
 C18     -C17     -C16     -H22     : 180.000000
 C18     -C19     -N3      -C29     : -41.935149
 C18     -C19     -N3      -H53     : -44.308399
 C18     -C19     -C20     -C21     :   0.000000
 C18     -C19     -C20     -H25     :-179.999999
 C19     -N3      -C29     -C28     :-177.320264
 C19     -N3      -C29     -H53     :  -5.580108
 C19     -N3      -C29     -H54     : -58.800766
 C19     -N3      -C29     -H55     :  65.820428
 C19     -N3      -H53     -C29     : 174.652822
 C19     -C18     -C17     -H23     : 180.000000
 C19     -C20     -C21     -H26     :-179.999999
 C20     -C19     -N3      -C29     : 138.064851
 C20     -C19     -N3      -H53     : 135.691601
 C20     -C19     -C18     -H24     :-179.999999
 C20     -C21     -C16     -H22     : 180.000000
 C21     -C16     -C17     -H23     : 179.999999
 H22     -C16     -C17     -H23     :   0.000000
 H22     -C16     -C21     -H26     :   0.000000
 H23     -C17     -C18     -H24     :  -0.000001
 H25     -C20     -C21     -H26     :   0.000000
 C27     -C28     -P1      -C31     : -57.977571
 C27     -C28     -P1      -C35     :  56.756994
 C27     -C28     -C29     -H53     : 168.730180
 C27     -C28     -C29     -H54     :  50.218977
 C27     -C28     -C29     -H55     : -68.909937
 C27     -C28     -C30     -H56     :  71.659901
 C27     -C28     -C30     -H57     : -48.869024
 C27     -C28     -C30     -H58     :-166.969678
 C28     -P1      -C31     -C32     : -93.906048
 C28     -P1      -C31     -C33     : 144.817715
 C28     -P1      -C31     -C34     :  25.859250
 C28     -P1      -C35     -C36     : 144.559309
 C28     -P1      -C35     -C37     : -39.649812
 C28     -C29     -N3      -H53     :-171.740156
 C29     -C28     -P1      -C31     :-178.657343
 C29     -C28     -P1      -C35     : -63.922778
 C29     -C28     -C27     -H50     :-175.418780
 C29     -C28     -C27     -H51     :  60.185837
 C29     -C28     -C27     -H52     : -57.231501
 C29     -C28     -C30     -H56     :-178.588850
 C29     -C28     -C30     -H57     :  60.882225
 C29     -C28     -C30     -H58     : -57.218429
 C30     -C28     -P1      -C31     :  65.173356
 C30     -C28     -P1      -C35     : 179.907921
 C30     -C28     -C27     -H50     : -64.445286
 C30     -C28     -C27     -H51     : 171.159331
 C30     -C28     -C27     -H52     :  53.741993
 C30     -C28     -C29     -H53     :  57.232106
 C30     -C28     -C29     -H54     : -61.279096
 C30     -C28     -C29     -H55     : 179.591989
 C31     -P1      -C35     -C36     : -94.544224
 C31     -P1      -C35     -C37     :  81.246655
 C32     -C31     -P1      -C35     : 141.891313
 C32     -C31     -C33     -H62     : -64.954754
 C32     -C31     -C33     -H63     : 173.119646
 C32     -C31     -C33     -H64     :  54.121091
 C32     -C31     -C34     -H65     :  59.211664
 C32     -C31     -C34     -H66     : -57.846722
 C32     -C31     -C34     -H67     :-176.532241
 C33     -C31     -P1      -C35     :  20.615076
 C33     -C31     -C32     -H59     :-176.975318
 C33     -C31     -C32     -H60     :  59.756098
 C33     -C31     -C32     -H61     : -57.847901
 C33     -C31     -C34     -H65     : 171.000437
 C33     -C31     -C34     -H66     :  53.942051
 C33     -C31     -C34     -H67     : -64.743467
 C34     -C31     -P1      -C35     : -98.343389
 C34     -C31     -C32     -H59     : -67.371767
 C34     -C31     -C32     -H60     : 169.359648
 C34     -C31     -C32     -H61     :  51.755650
 C34     -C31     -C33     -H62     :-175.241344
 C34     -C31     -C33     -H63     :  62.833056
 C34     -C31     -C33     -H64     : -56.165499
 C35     -C36     -C38     -C39     :-160.235098
 C35     -C36     -C38     -C43     :  16.168980
 C35     -C36     -C44     -C45     :-149.696363
 C35     -C36     -C44     -C49     :  29.285990
 C36     -C35     -C37     -H68     :  24.907935
 C36     -C35     -C37     -H69     :-102.488509
 C36     -C35     -C37     -H70     : 138.441351
 C36     -C38     -C39     -C40     : 178.726145
 C36     -C38     -C39     -H71     :   2.308983
 C36     -C38     -C43     -C42     :-178.439997
 C36     -C38     -C43     -H75     :   2.536328
 C36     -C44     -C45     -C46     : 179.109877
 C36     -C44     -C45     -H76     :   2.957507
 C36     -C44     -C49     -C48     :-179.550474
 C36     -C44     -C49     -H80     :   3.728784
 C37     -C35     -C36     -C38     :-168.909534
 C37     -C35     -C36     -C44     :  12.226189
 C38     -C36     -C44     -C45     :  31.347763
 C38     -C36     -C44     -C49     :-149.669883
 C38     -C39     -C40     -C41     :  -0.866591
 C38     -C39     -C40     -H72     :-179.597121
 C38     -C43     -C42     -C41     :   0.617818
 C38     -C43     -C42     -H74     :-179.415086
 C39     -C38     -C36     -C44     :  18.659704
 C39     -C38     -C43     -C42     :  -1.758124
 C39     -C38     -C43     -H75     : 179.218201
 C39     -C40     -C41     -C42     :  -0.456317
 C39     -C40     -C41     -H73     :-179.853482
 C40     -C39     -C38     -C43     :   1.877878
 C40     -C41     -C42     -C43     :   0.577604
 C40     -C41     -C42     -H74     :-179.389480
 C41     -C40     -C39     -H71     : 175.812513
 C41     -C42     -C43     -H75     : 179.702229
 C42     -C41     -C40     -H72     : 178.288383
 C43     -C38     -C36     -C44     :-164.936218
 C43     -C38     -C39     -H71     :-174.539284
 C43     -C42     -C41     -H73     : 179.975530
 C44     -C45     -C46     -C47     :   0.421801
 C44     -C45     -C46     -H77     :-179.740833
 C44     -C49     -C48     -C47     :   0.549223
 C44     -C49     -C48     -H79     :-179.299700
 C45     -C44     -C49     -C48     :  -0.501907
 C45     -C44     -C49     -H80     :-177.222650
 C45     -C46     -C47     -C48     :  -0.381911
 C45     -C46     -C47     -H78     : 179.230315
 C46     -C45     -C44     -C49     :   0.016620
 C46     -C47     -C48     -C49     :  -0.075670
 C46     -C47     -C48     -H79     : 179.775393
 C47     -C46     -C45     -H76     : 176.785067
 C47     -C48     -C49     -H80     : 177.490866
 C48     -C47     -C46     -H77     : 179.779681
 C49     -C44     -C45     -H76     :-176.135750
 C49     -C48     -C47     -H78     :-179.688441
 H53     -N3      -C29     -H54     : -53.220658
 H53     -N3      -C29     -H55     :  71.400536
 H71     -C39     -C40     -H72     :  -2.918018
 H72     -C40     -C41     -H73     :  -1.108782
 H73     -C41     -C42     -H74     :   0.008447
 H74     -C42     -C43     -H75     :  -0.330674
 H76     -C45     -C46     -H77     :  -3.377567
 H77     -C46     -C47     -H78     :  -0.608094
 H78     -C47     -C48     -H79     :   0.162623
 H79     -C48     -C49     -H80     :  -2.358057
 
  nuclear repulsion energy.......          5215.229305059 hartrees
  
  Detected an organometallic with only one TM atom. 
  
  Formal charge on ligand        1 is    -1
  Formal multiplet on ligand     1 is     1
  Oxidation state on metal       2 is     2
  Formal multiplet on metal      2 is     1
  Formal charge on ligand        3 is    -1
  Formal multiplet on ligand     3 is     1
  
 
  Will use High-Quality Initial guess for organometallics
       including d-d repulsion (iguess=30)
 
 Non-default options chosen:
   SCF calculation type: DFT(b3pw91-d3)              
   DFT=Becke_3_Parameter/HF+Slater+Becke88+PW91+PW-GGAIIC (B3PW91-D3)
   Geometry will be optimized in redundant internal coordinates
   Solvation energy will be computed using PBF
     -solute cavity energy will not be included
     -surface area terms will not be included
   Vibrational frequencies and related properties will be computed
      from analytic second derivatives
   IR intensities will be computed
   Thermochemical properties will be computed
   Maximum number of geometry steps: 100
   Scaling standard convergence criteria by a factor of   5.00
   Solvent: benzene                                                         
   Internal dielectric constant:    1.000
   Continuum dielectric constant:   2.283
   Solvent probe molecule radius:   2.600
  
 Non-default print settings:
     11=  2
  
 Temporary integer options set:
     21= -1  73=  2
  
  atom       vdw   vdw2    cov     mass  grid  daf  charge   basis
  P1        2.147  2.074  1.060   30.974    Y    Y      Y    ps_6-31g*
  Pd2       1.450  1.450  1.280  105.903    Y    Y      Y    lacv3p*
  N3        1.831  1.600  0.750   14.003    Y    Y      Y    ps_6-31g*
  C4        1.949  1.900  0.770   12.000    Y    Y      Y    ps_6-31g*
  C5        1.949  1.900  0.770   12.000    Y    Y      Y    ps_6-31g*
  C6        1.949  1.900  0.770   12.000    Y    Y      Y    ps_6-31g*
  C7        1.949  1.900  0.770   12.000    Y    Y      Y    ps_6-31g*
  C8        1.949  1.900  0.770   12.000    Y    Y      Y    ps_6-31g*
  C9        1.949  1.900  0.770   12.000    Y    Y      Y    ps_6-31g*
  F10       1.736  1.682  0.720   18.998    Y    Y      Y    ps_6-31g*
  H11       1.597  1.150  0.320    1.008    Y    Y      Y    ps_6-31g*
  H12       1.597  1.150  0.320    1.008    Y    Y      Y    ps_6-31g*
  H13       1.597  1.150  0.320    1.008    Y    Y      Y    ps_6-31g*
  H14       1.597  1.150  0.320    1.008    Y    Y      Y    ps_6-31g*
  H15       1.597  1.150  0.320    1.008    Y    Y      Y    ps_6-31g*
  C16       1.949  1.900  0.770   12.000    Y    Y      Y    ps_6-31g*
  C17       1.949  1.900  0.770   12.000    Y    Y      Y    ps_6-31g*
  C18       1.949  1.900  0.770   12.000    Y    Y      Y    ps_6-31g*
  C19       1.949  1.900  0.770   12.000    Y    Y      Y    ps_6-31g*
  C20       1.949  1.900  0.770   12.000    Y    Y      Y    ps_6-31g*
  C21       1.949  1.900  0.770   12.000    Y    Y      Y    ps_6-31g*
  H22       1.597  1.150  0.320    1.008    Y    Y      Y    ps_6-31g*
  H23       1.597  1.150  0.320    1.008    Y    Y      Y    ps_6-31g*
  H24       1.597  1.150  0.320    1.008    Y    Y      Y    ps_6-31g*
  H25       1.597  1.150  0.320    1.008    Y    Y      Y    ps_6-31g*
  H26       1.597  1.150  0.320    1.008    Y    Y      Y    ps_6-31g*
  C27       1.949  1.900  0.770   12.000    Y    Y      Y    ps_6-31g*
  C28       1.949  1.900  0.770   12.000    Y    Y      Y    ps_6-31g*
  C29       1.949  1.900  0.770   12.000    Y    Y      Y    ps_6-31g*
  C30       1.949  1.900  0.770   12.000    Y    Y      Y    ps_6-31g*
  C31       1.949  1.900  0.770   12.000    Y    Y      Y    ps_6-31g*
  C32       1.949  1.900  0.770   12.000    Y    Y      Y    ps_6-31g*
  C33       1.949  1.900  0.770   12.000    Y    Y      Y    ps_6-31g*
  C34       1.949  1.900  0.770   12.000    Y    Y      Y    ps_6-31g*
  C35       1.949  1.900  0.770   12.000    Y    Y      Y    ps_6-31g*
  C36       1.949  1.900  0.770   12.000    Y    Y      Y    ps_6-31g*
  C37       1.949  1.900  0.770   12.000    Y    Y      Y    ps_6-31g*
  C38       1.949  1.900  0.770   12.000    Y    Y      Y    ps_6-31g*
  C39       1.949  1.900  0.770   12.000    Y    Y      Y    ps_6-31g*
  C40       1.949  1.900  0.770   12.000    Y    Y      Y    ps_6-31g*
  C41       1.949  1.900  0.770   12.000    Y    Y      Y    ps_6-31g*
  C42       1.949  1.900  0.770   12.000    Y    Y      Y    ps_6-31g*
  C43       1.949  1.900  0.770   12.000    Y    Y      Y    ps_6-31g*
  C44       1.949  1.900  0.770   12.000    Y    Y      Y    ps_6-31g*
  C45       1.949  1.900  0.770   12.000    Y    Y      Y    ps_6-31g*
  C46       1.949  1.900  0.770   12.000    Y    Y      Y    ps_6-31g*
  C47       1.949  1.900  0.770   12.000    Y    Y      Y    ps_6-31g*
  C48       1.949  1.900  0.770   12.000    Y    Y      Y    ps_6-31g*
  C49       1.949  1.900  0.770   12.000    Y    Y      Y    ps_6-31g*
  H50       1.597  1.150  0.320    1.008    Y    Y      Y    ps_6-31g*
  H51       1.597  1.150  0.320    1.008    Y    Y      Y    ps_6-31g*
  H52       1.597  1.150  0.320    1.008    Y    Y      Y    ps_6-31g*
  H53       1.597  1.150  0.320    1.008    Y    Y      Y    ps_6-31g*
  H54       1.597  1.150  0.320    1.008    Y    Y      Y    ps_6-31g*
  H55       1.597  1.150  0.320    1.008    Y    Y      Y    ps_6-31g*
  H56       1.597  1.150  0.320    1.008    Y    Y      Y    ps_6-31g*
  H57       1.597  1.150  0.320    1.008    Y    Y      Y    ps_6-31g*
  H58       1.597  1.150  0.320    1.008    Y    Y      Y    ps_6-31g*
  H59       1.597  1.150  0.320    1.008    Y    Y      Y    ps_6-31g*
  H60       1.597  1.150  0.320    1.008    Y    Y      Y    ps_6-31g*
  H61       1.597  1.150  0.320    1.008    Y    Y      Y    ps_6-31g*
  H62       1.597  1.150  0.320    1.008    Y    Y      Y    ps_6-31g*
  H63       1.597  1.150  0.320    1.008    Y    Y      Y    ps_6-31g*
  H64       1.597  1.150  0.320    1.008    Y    Y      Y    ps_6-31g*
  H65       1.597  1.150  0.320    1.008    Y    Y      Y    ps_6-31g*
  H66       1.597  1.150  0.320    1.008    Y    Y      Y    ps_6-31g*
  H67       1.597  1.150  0.320    1.008    Y    Y      Y    ps_6-31g*
  H68       1.597  1.150  0.320    1.008    Y    Y      Y    ps_6-31g*
  H69       1.597  1.150  0.320    1.008    Y    Y      Y    ps_6-31g*
  H70       1.597  1.150  0.320    1.008    Y    Y      Y    ps_6-31g*
  H71       1.597  1.150  0.320    1.008    Y    Y      Y    ps_6-31g*
  H72       1.597  1.150  0.320    1.008    Y    Y      Y    ps_6-31g*
  H73       1.597  1.150  0.320    1.008    Y    Y      Y    ps_6-31g*
  H74       1.597  1.150  0.320    1.008    Y    Y      Y    ps_6-31g*
  H75       1.597  1.150  0.320    1.008    Y    Y      Y    ps_6-31g*
  H76       1.597  1.150  0.320    1.008    Y    Y      Y    ps_6-31g*
  H77       1.597  1.150  0.320    1.008    Y    Y      Y    ps_6-31g*
  H78       1.597  1.150  0.320    1.008    Y    Y      Y    ps_6-31g*
  H79       1.597  1.150  0.320    1.008    Y    Y      Y    ps_6-31g*
  H80       1.597  1.150  0.320    1.008    Y    Y      Y    ps_6-31g*
 
  atom      formal  2spin      esp    mulk    frag
  P1          -1       0        Y    0.000       0
  Pd2          2       0        Y    0.000       0
  C4          -1       0        Y    0.000       0
  
  end of program pre
   
 Time(pre)  user:       1.070  user+sys:       1.070  wallclock:       0.970
  
  start of program onee
  
  smallest eigenvalue of S:    4.238E-04
  number of canonical orbitals.....          646
  end of program onee
   
 Time(onee)  user:       5.156  user+sys:       5.156  wallclock:       3.770
  
  start of program hfig
  
  initial wavefunction generated automatically from atomic wavefunctions
  Only one state below 0.010000
  Skip d-d repulsion considerations 
 
  Irreducible     Total no   No of occupied orbitals 
  representation  orbitals   Shell_1  Shell_2    ...
  No Symm          646        150
  ------------------------
  Orbital occupation/shell    1.000
 
  end of program hfig
   
 Time(hfig)  user:       1.269  user+sys:       1.269  wallclock:       1.235
  
  start of program probe
  
  end of program probe
   
 Time(probe)  user:       0.730  user+sys:       0.730  wallclock:       0.658
  
  start of program grid
  
   grid     grid set  grid #  grid sym
  ------    --------  ------  --------
  coarse        0        0        1
  medium        2        1        1
  fine          0        0        1
  ultrafine     4        2        1
  charge       -1        3        1
  gradient      4        2        1
  density       0        0        1
  DFT-fine    -11        4        1
  DFT-med.    -10        5        1
  DFT-grad    -12        6        1
  DFT-der2     -8        7        1
  DFT-cphf     -9        8        1
  LMP2-enrg     4        2        1
  LMP2-grad     2        1        1
  DFT-cphf2   -15        9        1
  PBF-dens      0        0        1
  plotting      0        0        1
  Rel-grad    -17        0        1
  
  number of gridpoints: 
     atom           P1         Pd2          N3          C4          C5          C6          C7
  grid # 1         611         357          90          80          94          95         100
  grid # 2         427         312         294         327         325         325         394
  grid # 3           8         256           6          36          32          23          19
  grid # 4        8714        8714        8714        8714        8714        8714        8714
  grid # 5        1192        1192        1192        1192        1192        1192        1192
  grid # 6        9132        9132        5922        5922        5922        5922        5922
  grid # 7       23034       32968       13958       13950       13950       13950       13950
  grid # 8         722        1150         756         748         748         748         748
  grid # 9         366        2198         406         394         394         394         394
   
  number of gridpoints: 
     atom           C8          C9         F10         H11         H12         H13         H14
  grid # 1          95          94         584         115         115         115         115
  grid # 2         326         324         564         466         461         453         464
  grid # 3          21          29         354         403         290         241         383
  grid # 4        8714        8714        8714        8714        8714        8714        8714
  grid # 5        1192        1192        1192        1192        1192        1192        1192
  grid # 6        5922        5922        5922        5922        5922        5922        5922
  grid # 7       13950       13950       23190       15206       15206       15206       15206
  grid # 8         748         748         770         786         786         786         786
  grid # 9         394         394         420         420         420         420         420
   
  number of gridpoints: 
     atom          H15         C16         C17         C18         C19         C20         C21
  grid # 1          91          96          96          95          94          96          96
  grid # 2         387         323         322         321         342         321         323
  grid # 3          71          38          36          21          12          29          34
  grid # 4        8714        8714        8714        8714        8714        8714        8714
  grid # 5        1192        1192        1192        1192        1192        1192        1192
  grid # 6        5922        5922        5922        5922        5922        5922        5922
  grid # 7       15206       13950       13950       13950       13950       13950       13950
  grid # 8         786         748         748         748         748         748         748
  grid # 9         420         394         394         394         394         394         394
   
  number of gridpoints: 
     atom          H22         H23         H24         H25         H26         C27         C28
  grid # 1         117         117         107         112         117          82          88
  grid # 2         466         466         444         447         465         245         367
  grid # 3         405         409         213         230         380           6           6
  grid # 4        8714        8714        8714        8714        8714        8714        8714
  grid # 5        1192        1192        1192        1192        1192        1192        1192
  grid # 6        5922        5922        5922        5922        5922        5922        5922
  grid # 7       15206       15206       15206       15206       15206       13950       13950
  grid # 8         786         786         786         786         786         748         748
  grid # 9         420         420         420         420         420         394         394
   
  number of gridpoints: 
     atom          C29         C30         C31         C32         C33         C34         C35
  grid # 1          82          82          88          80          82          82          87
  grid # 2         240         240         371         247         246         245         389
  grid # 3           6           6           6           6           6           6           9
  grid # 4        8714        8714        8714        8714        8714        8714        8714
  grid # 5        1192        1192        1192        1192        1192        1192        1192
  grid # 6        5922        5922        5922        5922        5922        5922        5922
  grid # 7       13950       13950       13950       13950       13950       13950       13950
  grid # 8         748         748         748         748         748         748         748
  grid # 9         394         394         394         394         394         394         394
   
  number of gridpoints: 
     atom          C36         C37         C38         C39         C40         C41         C42
  grid # 1          99          79          97          93          96          96          96
  grid # 2         362         241         364         324         326         324         326
  grid # 3          22           6          16          17          35          39          29
  grid # 4        8714        8714        8714        8714        8714        8714        8714
  grid # 5        1192        1192        1192        1192        1192        1192        1192
  grid # 6        5922        5922        5922        5922        5922        5922        5922
  grid # 7       13950       13950       13950       13950       13950       13950       13950
  grid # 8         748         748         748         748         748         748         748
  grid # 9         394         394         394         394         394         394         394
   
  number of gridpoints: 
     atom          C43         C44         C45         C46         C47         C48         C49
  grid # 1          93          97          94          96          97          96          94
  grid # 2         323         361         320         327         325         327         324
  grid # 3          14          20          25          44          52          45          25
  grid # 4        8714        8714        8714        8714        8714        8714        8714
  grid # 5        1192        1192        1192        1192        1192        1192        1192
  grid # 6        5922        5922        5922        5922        5922        5922        5922
  grid # 7       13950       13950       13950       13950       13950       13950       13950
  grid # 8         748         748         748         748         748         748         748
  grid # 9         394         394         394         394         394         394         394
   
  number of gridpoints: 
     atom          H50         H51         H52         H53         H54         H55         H56
  grid # 1         103         104         107          73         107         100         101
  grid # 2         431         430         440         319         443         421         428
  grid # 3         154         170         254           8         231         105         145
  grid # 4        8714        8714        8714        8714        8714        8714        8714
  grid # 5        1192        1192        1192        1192        1192        1192        1192
  grid # 6        5922        5922        5922        5922        5922        5922        5922
  grid # 7       15206       15206       15206       15206       15206       15206       15206
  grid # 8         786         786         786         786         786         786         786
  grid # 9         420         420         420         420         420         420         420
   
  number of gridpoints: 
     atom          H57         H58         H59         H60         H61         H62         H63
  grid # 1         107         100         106         104         107         103         104
  grid # 2         445         409         440         436         443         433         432
  grid # 3         261         141         205         185         269         166         174
  grid # 4        8714        8714        8714        8714        8714        8714        8714
  grid # 5        1192        1192        1192        1192        1192        1192        1192
  grid # 6        5922        5922        5922        5922        5922        5922        5922
  grid # 7       15206       15206       15206       15206       15206       15206       15206
  grid # 8         786         786         786         786         786         786         786
  grid # 9         420         420         420         420         420         420         420
   
  number of gridpoints: 
     atom          H64         H65         H66         H67         H68         H69         H70
  grid # 1         107         104         107         101         106         100         100
  grid # 2         444         426         443         425         437         420         417
  grid # 3         270         152         262         155         226         131          92
  grid # 4        8714        8714        8714        8714        8714        8714        8714
  grid # 5        1192        1192        1192        1192        1192        1192        1192
  grid # 6        5922        5922        5922        5922        5922        5922        5922
  grid # 7       15206       15206       15206       15206       15206       15206       15206
  grid # 8         786         786         786         786         786         786         786
  grid # 9         420         420         420         420         420         420         420
   
  number of gridpoints: 
     atom          H71         H72         H73         H74         H75         H76         H77
  grid # 1         108         118         118         116          93         109         118
  grid # 2         439         465         469         462         416         446         465
  grid # 3         223         401         422         332          21         250         416
  grid # 4        8714        8714        8714        8714        8714        8714        8714
  grid # 5        1192        1192        1192        1192        1192        1192        1192
  grid # 6        5922        5922        5922        5922        5922        5922        5922
  grid # 7       15206       15206       15206       15206       15206       15206       15206
  grid # 8         786         786         786         786         786         786         786
  grid # 9         420         420         420         420         420         420         420
   
  number of gridpoints: 
     atom          H78         H79         H80       total
  grid # 1         118         118         108        9245
  grid # 2         467         466         438       30748
  grid # 3         431         416         193       11286
  grid # 4        8714        8714        8714      697120
  grid # 5        1192        1192        1192       95360
  grid # 6        5922        5922        5922      480180
  grid # 7       15206       15206       15206     1204846
  grid # 8         786         786         786       61804
  grid # 9         420         420         420       34400
   
  end of program grid
   
 Time(grid)  user:     365.844  user+sys:     365.844  wallclock:     186.913
  
  start of program rwr
  
  end of program rwr
   
 Time(rwr)  user:      20.374  user+sys:      20.374  wallclock:      25.908
  
  start of program scf
  
 number of electrons..........        300
 number of alpha electrons....        150
 number of beta electrons.....        150
 number of orbitals, total....        646
 number of doubly-occ'd orbs..        150
 number of open shell orbs....          0
 number of occupied orbitals..        150
 number of virtual orbitals...        496
 number of hamiltonians.......          1
 number of shells.............          1
 SCF type: DFT=Becke_3_Parameter/HF+Slater+Becke88+PW91+PW-GGAIIC (B3PW91-D3)
 Energy computed using pseudospectral method.
 Convergence Criterion:
    Energy (econv):       1.00E-05
    RMS density (dconv):  5.00E-06
  
       i  u  d  i  g                   
       t  p  i  c  r                                 RMS    maximum
       e  d  i  u  i                       energy  density   DIIS  
       r  t  s  t  d       total energy    change  change    error 
  
etot    1  N  N  5  M   -1975.00143227920           1.9E-03  2.4E-01
etot    2  Y  Y  6  M   -1978.14261707454  3.1E+00  4.2E-03  1.4E-01
etot    3  Y  Y  6  M   -1978.97388611780  8.3E-01  4.2E-03  6.1E-02
etot    4  N  Y  2  U   -1978.38201087516 -5.9E-01  2.1E-03  8.6E-02
etot    5  N  Y  2  U   -1979.73572646578  1.4E+00  1.9E-03  2.6E-02
etot    6  Y  Y  6  M   -1979.80366624069  6.8E-02  7.2E-04  1.2E-02
etot    7  N  Y  2  U   -1979.84639276628  4.3E-02  4.5E-04  4.9E-03
etot    8  Y  Y  6  M   -1979.85042849667  4.0E-03  1.3E-04  2.5E-03
etot    9  Y  Y  6  M   -1979.85317505087  2.7E-03  6.4E-05  9.9E-04
etot   10  N  Y  2  U   -1979.85396760862  7.9E-04  2.0E-05  6.4E-04
etot   11  N  Y  2  U   -1979.85403212865  6.5E-05  1.4E-05  3.5E-04
etot   12  N  Y  2  U   -1979.85406955219  3.7E-05  1.1E-05  1.9E-04
etot   13  N  Y  2  U   -1979.85408395166  1.4E-05  4.3E-06  3.6E-05
etot   14  N  N  2  U   -1979.85408406762  1.2E-07  0.0E+00  0.0E+00
 
  Computing the dispersion energy correction and its gradients...
  
  
 Energy components, in hartrees:
   (A)  Nuclear repulsion............    5215.22930505890
   (E)  Total one-electron terms.....  -13135.88775701197
   (F)    Electron-nuclear...........  -15025.84389488234
   (H)    Kinetic....................    1889.95613787037
   (I)  Total two-electron terms.....    5940.80436788545
   (J)    Coulomb....................    6199.03250165077
   (K)    Exchange+Correlation.......    -258.22813376532
   (L)  Electronic energy............   -7195.08338912652  (E+I)
   (N0) D3 correction................      -0.13779058279
   (N)  Total energy.................   -1979.99187465042  (A+L+N0)
   (O)  Gas phase energy.............   -1979.99187465042
  
 SCFE: SCF energy: DFT(b3pw91-d3)     -1979.99187465042 hartrees   iterations:  14
  
 
 HOMO energy:    -0.09864
 LUMO energy:    -0.05594
 
  Orbital energies (hartrees): 
   -77.06914   -24.65878   -14.37820   -10.23427   -10.23051   -10.22802
   -10.21328   -10.21130   -10.20216   -10.19382   -10.18767   -10.18754
   -10.18479   -10.18288   -10.18212   -10.18113   -10.17940   -10.17701
   -10.17569   -10.17537   -10.17492   -10.17411   -10.17345   -10.17255
   -10.17164   -10.17106   -10.16850   -10.16391   -10.16169   -10.15884
   -10.15754   -10.15666   -10.15574   -10.13654   -10.13445   -10.13188
   -10.12798   -10.11616    -6.56996    -4.72828    -4.72776    -4.72383
    -3.27914    -2.01244    -2.00341    -1.98800    -1.19564    -1.14136
    -0.86611    -0.86248    -0.84734    -0.84007    -0.82353    -0.81152
    -0.80635    -0.76368    -0.75651    -0.75271    -0.74132    -0.73655
    -0.73219    -0.72501    -0.70915    -0.70405    -0.69425    -0.69174
    -0.68807    -0.68189    -0.66701    -0.63610    -0.61401    -0.60863
    -0.59967    -0.59179    -0.58763    -0.58091    -0.57574    -0.57459
    -0.56230    -0.55081    -0.54793    -0.52864    -0.50883    -0.50611
    -0.50437    -0.49755    -0.48861    -0.47377    -0.46828    -0.45956
    -0.45545    -0.45202    -0.45029    -0.44573    -0.44313    -0.44290
    -0.44173    -0.43746    -0.43360    -0.43060    -0.42583    -0.42502
    -0.42254    -0.42229    -0.41818    -0.41484    -0.40952    -0.40517
    -0.40138    -0.39788    -0.39498    -0.38916    -0.38624    -0.38055
    -0.37931    -0.37341    -0.37044    -0.36902    -0.36542    -0.36100
    -0.35978    -0.35879    -0.35572    -0.35450    -0.34698    -0.34373
    -0.33798    -0.33625    -0.32981    -0.32693    -0.32264    -0.31504
    -0.31350    -0.29816    -0.29434    -0.29016    -0.26330    -0.25535
    -0.24730    -0.24677    -0.23891    -0.23047    -0.22041    -0.21743
    -0.21433    -0.20691    -0.20230    -0.18356    -0.17829    -0.09864
    -0.05594    -0.04632    -0.01315    -0.00654    -0.00421     0.00123
     0.01206     0.02328     0.02467     0.03470
 
  end of program scf
   
 Time(scf)  user:     677.124  user+sys:     677.124  wallclock:     365.783
  
  start of program der1a
  
  end of program der1a
   
 Time(der1a)  user:      15.843  user+sys:      15.843  wallclock:       8.704
  
  start of program rwr
  
  end of program rwr
   
 Time(rwr)  user:      22.879  user+sys:      22.879  wallclock:      29.561
  
  start of program der1b
  
   
  forces (hartrees/bohr) : total     
   
 atom  label           x              y              z
 ---- --------   -------------  -------------  -------------
    1 P1         -3.707653E-02  -4.354897E-03   2.541525E-02
    2 Pd2        -3.986116E-02   1.819641E-02  -1.348492E-03
    3 N3         -5.967430E-01   6.085268E-01   6.644291E-01
    4 C4         -1.967234E-03  -1.129460E-04  -3.949210E-02
    5 C5          2.632701E-03   5.193295E-03   1.226913E-02
    6 C6         -1.456939E-04  -5.445310E-03   2.224412E-03
    7 C7         -1.460481E-02  -4.182526E-03   6.500979E-03
    8 C8         -9.059940E-04   5.461701E-03   4.224514E-03
    9 C9          1.553745E-03  -5.719834E-03   1.011012E-02
   10 F10         1.010897E-03   5.373899E-04   1.096814E-02
   11 H11        -4.596881E-04  -1.729572E-03   1.292108E-03
   12 H12        -1.711566E-03   1.006548E-04   1.757898E-03
   13 H13        -7.297728E-04   6.330145E-04   1.592814E-03
   14 H14        -1.756772E-04   1.863439E-03   1.136884E-03
   15 H15        -2.173965E-02  -4.577900E-02   3.026813E-02
   16 C16         1.709022E-04  -9.310952E-04   1.303305E-03
   17 C17        -4.946822E-04   3.310241E-03   1.489194E-03
   18 C18        -2.686143E-03  -1.349670E-03  -4.960942E-03
   19 C19         1.987457E-02  -1.554920E-04   5.446575E-02
   20 C20         6.943597E-03   1.984924E-03   2.729933E-03
   21 C21        -1.769623E-03  -7.913174E-04  -2.165515E-03
   22 H22        -5.236997E-03   4.867324E-03  -8.395237E-03
   23 H23        -2.695893E-03   1.114012E-02  -8.595725E-04
   24 H24         2.231793E-03   3.892240E-03   1.263548E-02
   25 H25         1.481789E-03  -1.242231E-02  -8.594776E-04
   26 H26        -4.403639E-03  -5.380781E-03  -9.318049E-03
   27 C27         1.228319E-02  -1.125993E-02  -1.454689E-02
   28 C28         3.546386E-02  -6.161669E-03  -1.802785E-02
   29 C29         8.162557E-02  -7.849283E-02  -2.501231E-01
   30 C30        -8.415766E-03   2.279254E-02  -2.580904E-03
   31 C31        -1.461362E-02   2.049778E-02  -2.374815E-02
   32 C32        -3.456917E-03   6.836356E-03   1.121471E-02
   33 C33        -8.711397E-03  -1.656058E-02   5.883569E-03
   34 C34         1.710535E-02   4.017424E-03  -1.063464E-02
   35 C35         2.419655E-02   5.038932E-03  -2.285418E-02
   36 C36        -1.348906E-02   9.820799E-04   2.009656E-02
   37 C37         3.274798E-03   2.671098E-03  -2.120537E-02
   38 C38        -1.483466E-03  -1.576867E-02   6.484680E-03
   39 C39        -3.424953E-03  -1.364468E-02   1.726968E-02
   40 C40         3.261465E-03   6.629267E-05  -2.303115E-03
   41 C41         3.271229E-04   7.260845E-03  -2.809264E-03
   42 C42        -6.340496E-03  -5.512343E-03   5.648042E-03
   43 C43         9.137095E-03   2.412944E-02   1.091854E-04
   44 C44        -1.407413E-02  -1.049564E-02  -4.347983E-03
   45 C45        -1.903492E-02  -1.104341E-03  -9.234800E-03
   46 C46         3.669193E-03   1.119083E-03   9.923813E-04
   47 C47         1.620113E-03   2.187581E-03   1.092554E-03
   48 C48        -6.919394E-03  -1.862328E-04   1.031479E-03
   49 C49         2.202415E-02  -8.101161E-03   2.756802E-03
   50 H50        -2.559958E-03  -4.036540E-03   7.507089E-03
   51 H51        -2.615718E-03   1.461661E-02   5.010291E-03
   52 H52        -7.983061E-03  -5.731932E-04   5.815718E-03
   53 H53         5.743302E-01  -5.346921E-01  -4.941262E-01
   54 H54        -5.553426E-03   1.700725E-03  -2.213384E-03
   55 H55        -2.672336E-03   1.306075E-02   1.069382E-02
   56 H56         4.756325E-03  -6.568932E-03   7.505615E-03
   57 H57        -5.722221E-03  -6.490979E-03  -3.381135E-03
   58 H58        -9.274987E-03   1.474407E-02  -2.208505E-02
   59 H59        -6.988004E-03  -4.517659E-03   1.142281E-03
   60 H60         1.007294E-02  -4.317310E-04  -3.659817E-03
   61 H61         7.168139E-03  -9.176563E-03   3.065705E-03
   62 H62         9.849979E-03   1.604077E-03  -6.127702E-03
   63 H63        -9.356415E-04   7.519724E-03   5.619947E-03
   64 H64         9.115420E-03   1.262961E-03   4.582923E-03
   65 H65        -6.920314E-03  -9.918351E-03  -1.802831E-03
   66 H66        -1.216461E-03  -4.420204E-03   8.549710E-03
   67 H67        -3.038702E-05   6.998553E-03   5.765315E-03
   68 H68         7.897346E-03  -1.771014E-05   1.204204E-02
   69 H69        -9.284777E-03   5.601845E-04  -7.213166E-03
   70 H70         3.192067E-03  -3.345592E-03   1.045447E-02
   71 H71         4.036606E-03   8.180875E-03  -2.990632E-03
   72 H72         6.039672E-03   3.846131E-03  -7.180707E-03
   73 H73         5.905017E-03  -3.371188E-03  -7.598816E-03
   74 H74         3.355197E-03  -9.723686E-03  -3.014596E-03
   75 H75        -5.306996E-03  -4.563620E-03  -2.805270E-03
   76 H76         1.193865E-02  -2.428680E-03  -3.770648E-03
   77 H77         1.036020E-02   6.454015E-03  -5.072133E-04
   78 H78         1.195781E-03   6.891702E-03   1.361371E-03
   79 H79        -5.939258E-03   8.719627E-03   4.066177E-03
   80 H80        -1.329350E-02   5.144130E-04   4.382767E-03
 -------------   -------------  -------------  -------------
     total       -5.669073E-04   6.188378E-05  -3.334837E-03
   
  end of program der1b
   
 Time(der1b)  user:     176.376  user+sys:     176.376  wallclock:      93.903
  
  start of program geopt
  
 ----------------------------------------------------------------------------
  Geometry optimization step  1
  Total energy:     -1979.99187465042 hartrees
 ----------------------------------------------------------------------------
  
  
  Level shifts adjusted to satisfy step-size constraints
   Step size:    0.3000118
   Cos(theta):   0.9879599
   Final level shift:  -1.8407585E+00
  
  gradient maximum:        7.2159E-01 .  (  2.2500E-03 )
  gradient rms:            5.5929E-02 .  (  1.5000E-03 )
  displacement maximum:    2.1837E-01 .  (  9.0000E-03 )
  displacement rms:        1.8026E-02 .  (  6.0000E-03 )
  
  predicted energy change:  -2.2079E-01
  step size:     0.30001
  trust radius:  0.30000
  
  molecular structure not yet converged...
  
  center of mass moved by:
     x:    -1.3619E-02     y:    -8.6736E-03     z:     5.3706E-03
  
  new geometry: 
                                   angstroms
  atom               x                 y                 z
  P1            0.0082300131      0.0079574951     -0.0135211565 
  Pd2          -0.0049398504     -0.0082792752      2.3814388097 
  N3            2.0339548930      0.0025496852      2.1833961227 
  C4            0.0643663201     -0.0401447204      7.2478171975 
  C5            0.0720690958      1.1646524681      6.5405747061 
  C6            0.0951974252      1.1741064801      5.1433263314 
  C7            0.0973918563     -0.0174597704      4.3986326801 
  C8            0.1012252554     -1.2203595162      5.1256176174 
  C9            0.0810280999     -1.2338682395      6.5207512545 
  F10           0.0256446216     -0.0596135338      8.5826434930 
  H11           0.0707198387      2.1054585540      7.0918126652 
  H12           0.1236262428      2.1348257310      4.6294623781 
  H13           0.1371343771     -2.1730030849      4.5980150942 
  H14           0.0842722235     -2.1829737467      7.0573354666 
  H15           2.4431079049      0.9992772185      2.0372871868 
  C16           4.0179969964     -1.8989673606      5.4537923603 
  C17           3.6308228020     -2.6498816181      4.3351833923 
  C18           2.9803350985     -2.0275700697      3.2606991289 
  C19           2.7159036845     -0.6514311599      3.3067939619 
  C20           3.1043538747      0.1008875297      4.4246842544 
  C21           3.7544406150     -0.5230463471      5.4977109977 
  H22           4.5285752274     -2.3898508233      6.2963596908 
  H23           3.8367814621     -3.7305014751      4.2983756523 
  H24           2.6764563060     -2.6219163346      2.3860275018 
  H25           2.8971274451      1.1809322332      4.4591693496 
  H26           4.0568170759      0.0685223547      6.3751898088 
  C27           2.4667757788     -0.0351647873     -1.6791029229 
  C28           1.8475526092      0.2882005119     -0.2964841903 
  C29           2.6816925049     -0.6201602234      0.6562652506 
  C30           2.1728747842      1.7746727889     -0.0462849536 
  C31          -1.0302435934      1.0789408205     -1.2252950804 
  C32          -1.4569788334      2.4192594264     -0.5810984681 
  C33          -2.3193629983      0.3572537378     -1.7050244934 
  C34          -0.2987002920      1.4633213656     -2.5252125213 
  C35          -0.6078723614     -1.6854303696     -0.4117035588 
  C36          -1.5822659879     -2.3947971122      0.2418217957 
  C37           0.0838127261     -2.2068042698     -1.6498376084 
  C38          -2.4318891264     -1.8353601387      1.3480123798 
  C39          -3.1171853983     -2.6783317140      2.2596325155 
  C40          -3.8986285767     -2.2117893446      3.3214823241 
  C41          -4.0328950073     -0.8367927865      3.5558937719 
  C42          -3.3572254515      0.0359691927      2.7050824074 
  C43          -2.5824393013     -0.4678669173      1.6457652546 
  C44          -1.8413401446     -3.8238736609     -0.1288090173 
  C45          -3.1390798830     -4.3823076902     -0.0254697538 
  C46          -3.4446172043     -5.7056540356     -0.3745563040 
  C47          -2.4404839870     -6.5569196730     -0.8482797001 
  C48          -1.1410717474     -6.0497996402     -0.9671617919 
  C49          -0.8683728769     -4.7200200192     -0.6187984416 
  H50           2.0403147747      0.5405624089     -2.5144064357 
  H51           2.4099835071     -1.1148230662     -1.9409008126 
  H52           3.5516279779      0.2033795254     -1.7009571532 
  H53           2.5265229703     -0.4277132591      1.7234623846 
  H54           3.7705248158     -0.4777903909      0.5121570508 
  H55           2.4667988937     -1.6912610114      0.4727212907 
  H56           1.6112248274      2.4543198979     -0.7177913161 
  H57           3.2475387136      1.9944138200     -0.1953375519 
  H58           1.9388777121      2.0892147388      0.9921328308 
  H59          -0.5822201424      3.0088759539     -0.2492606502 
  H60          -2.1444681096      2.2816372730      0.2772187469 
  H61          -2.0154076063      3.0558367079     -1.3034514243 
  H62          -3.0109993787      0.0740744649     -0.8864779565 
  H63          -2.0936992887     -0.5662431231     -2.2727383546 
  H64          -2.9115273630      1.0034602259     -2.3809558016 
  H65           0.5772156378      2.1237509223     -2.3385882763 
  H66          -0.9460275778      2.0499868285     -3.2059705198 
  H67           0.0249672978      0.5820128660     -3.1107426938 
  H68          -0.5176433214     -2.9266308583     -2.2413465221 
  H69           1.0903555140     -2.6239526031     -1.4199127910 
  H70           0.2381962823     -1.3902917938     -2.3861288735 
  H71          -3.0226504086     -3.7670056418      2.2157259344 
  H72          -4.3969500028     -2.9238123319      3.9944390318 
  H73          -4.6424138220     -0.4569673059      4.3887546781 
  H74          -3.4267000714      1.1216150703      2.8603093844 
  H75          -2.1047135637      0.2917455952      1.0363144771 
  H76          -3.9951515433     -3.7647021959      0.2826952167 
  H77          -4.4766898590     -6.0798144835     -0.2754167457 
  H78          -2.6621209649     -7.5971384608     -1.1134507458 
  H79          -0.3367683965     -6.7055132258     -1.3341719005 
  H80           0.1882601896     -4.4287738507     -0.7040537948 
   
 
  bond lengths (angstroms):
 
 P1      -Pd2     :   2.395051      P1      -C28     :   1.881944
 P1      -C31     :   1.921934      P1      -C35     :   1.845452
 Pd2     -N3      :   2.048519      Pd2     -C7      :   2.019809
 N3      -H15     :   1.087299      N3      -C19     :   1.467913
 N3      -H53     :   0.799555      C4      -C5      :   1.397064
 C4      -C9      :   1.397812      C4      -F10     :   1.335530
 C5      -C6      :   1.397472      C5      -H11     :   1.090404
 C6      -C7      :   1.405135      C6      -H12     :   1.089883
 C7      -C8      :   1.405521      C8      -C9      :   1.395345
 C8      -H13     :   1.089580      C9      -H14     :   1.090291
 C16     -C17     :   1.401807      C16     -C21     :   1.401624
 C16     -H22     :   1.100716      C17     -C18     :   1.401757
 C17     -H23     :   1.100688      C18     -C19     :   1.402072
 C18     -H24     :   1.100291      C19     -C20     :   1.402339
 C20     -C21     :   1.401175      C20     -H25     :   1.100286
 C21     -H26     :   1.100615      C27     -C28     :   1.549076
 C27     -H50     :   1.100483      C27     -H51     :   1.112396
 C27     -H52     :   1.110984      C28     -C29     :   1.558409
 C28     -C30     :   1.542088      C29     -H53     :   1.095456
 C29     -H54     :   1.107516      C29     -H55     :   1.107757
 C30     -H56     :   1.108283      C30     -H57     :   1.106980
 C30     -H58     :   1.109956      C31     -C32     :   1.547109
 C31     -C33     :   1.553319      C31     -C34     :   1.540354
 C32     -H59     :   1.105878      C32     -H60     :   1.108282
 C32     -H61     :   1.113044      C33     -H62     :   1.108409
 C33     -H63     :   1.107280      C33     -H64     :   1.106853
 C34     -H65     :   1.112755      C34     -H66     :   1.107538
 C34     -H67     :   1.106486      C35     -C36     :   1.371036
 C35     -C37     :   1.511038      C36     -C38     :   1.502826
 C36     -C44     :   1.498915      C37     -H68     :   1.108956
 C37     -H69     :   1.113556      C37     -H70     :   1.110249
 C38     -C39     :   1.418197      C38     -C43     :   1.407608
 C39     -C40     :   1.398514      C39     -H71     :   1.093652
 C40     -C41     :   1.401282      C40     -H72     :   1.099169
 C41     -C42     :   1.393601      C41     -H73     :   1.099744
 C42     -C43     :   1.405808      C42     -H74     :   1.098885
 C43     -H75     :   1.084741      C44     -C45     :   1.416565
 C44     -C49     :   1.410614      C45     -C46     :   1.402305
 C45     -H76     :   1.099664      C46     -C47     :   1.399053
 C46     -H77     :   1.102270      C47     -C48     :   1.399920
 C47     -H78     :   1.096127      C48     -C49     :   1.401441
 C48     -H79     :   1.100709      C49     -H80     :   1.099348
 
  bond angles:
 
 C28     -P1      -Pd2     :  99.017425  C31     -P1      -Pd2     : 129.144610
 C31     -P1      -C28     : 110.506347  C35     -P1      -Pd2     : 101.987569
 C35     -P1      -C28     : 115.498524  C35     -P1      -C31     : 101.238859
 N3      -Pd2     -P1      :  84.135216  C7      -Pd2     -P1      : 176.778332
 C7      -Pd2     -N3      :  92.645075  H15     -N3      -Pd2     : 113.102123
 C19     -N3      -Pd2     : 112.708706  C19     -N3      -H15     : 109.659334
 H53     -N3      -Pd2     : 131.753348  H53     -N3      -H15     : 100.613384
 H53     -N3      -C19     :  85.082878  C9      -C4      -C5      : 118.234692
 F10     -C4      -C5      : 121.245058  F10     -C4      -C9      : 120.515284
 C6      -C5      -C4      : 120.802429  H11     -C5      -C4      : 119.218238
 H11     -C5      -C6      : 119.976065  C7      -C6      -C5      : 121.613363
 H12     -C6      -C5      : 118.542136  H12     -C6      -C7      : 119.840738
 C6      -C7      -Pd2     : 121.692524  C8      -C7      -Pd2     : 121.372085
 C8      -C7      -C6      : 116.848864  C9      -C8      -C7      : 121.695368
 H13     -C8      -C7      : 119.861840  H13     -C8      -C9      : 118.435220
 C8      -C9      -C4      : 120.795250  H14     -C9      -C4      : 119.173420
 H14     -C9      -C8      : 120.030282  C21     -C16     -C17     : 119.928687
 H22     -C16     -C17     : 120.003384  H22     -C16     -C21     : 120.067928
 C18     -C17     -C16     : 120.134129  H23     -C17     -C16     : 120.060428
 H23     -C17     -C18     : 119.805442  C19     -C18     -C17     : 119.871694
 H24     -C18     -C17     : 119.847903  H24     -C18     -C19     : 120.280096
 C18     -C19     -N3      : 119.982462  C20     -C19     -N3      : 119.983313
 C20     -C19     -C18     : 120.034156  C21     -C20     -C19     : 120.006520
 H25     -C20     -C19     : 119.961600  H25     -C20     -C21     : 120.031828
 C20     -C21     -C16     : 120.024659  H26     -C21     -C16     : 120.063144
 H26     -C21     -C20     : 119.912170  H50     -C27     -C28     : 114.415842
 H51     -C27     -C28     : 113.094706  H51     -C27     -H50     : 108.019584
 H52     -C27     -C28     : 111.288917  H52     -C27     -H50     : 104.545335
 H52     -C27     -H51     : 104.691771  C27     -C28     -P1      : 119.590606
 C29     -C28     -P1      : 110.145758  C29     -C28     -C27     : 102.124250
 C30     -C28     -P1      : 108.985600  C30     -C28     -C27     : 105.171078
 C30     -C28     -C29     : 110.471799  H53     -C29     -C28     : 114.668884
 H54     -C29     -C28     : 111.823201  H54     -C29     -H53     : 104.089511
 H55     -C29     -C28     : 111.005647  H55     -C29     -H53     : 107.686082
 H55     -C29     -H54     : 107.064801  H56     -C30     -C28     : 112.700316
 H57     -C30     -C28     : 111.981249  H57     -C30     -H56     : 106.778090
 H58     -C30     -C28     : 112.363286  H58     -C30     -H56     : 106.632266
 H58     -C30     -H57     : 105.925007  C32     -C31     -P1      : 111.670376
 C33     -C31     -P1      : 112.597066  C33     -C31     -C32     : 107.589406
 C34     -C31     -P1      : 114.489390  C34     -C31     -C32     : 105.438405
 C34     -C31     -C33     : 104.444749  H59     -C32     -C31     : 111.633245
 H60     -C32     -C31     : 112.705649  H60     -C32     -H59     : 108.934987
 H61     -C32     -C31     : 111.323625  H61     -C32     -H59     : 106.658619
 H61     -C32     -H60     : 105.213158  H62     -C33     -C31     : 114.109482
 H63     -C33     -C31     : 112.129724  H63     -C33     -H62     : 107.020939
 H64     -C33     -C31     : 111.183408  H64     -C33     -H62     : 105.444311
 H64     -C33     -H63     : 106.430570  H65     -C34     -C31     : 112.358859
 H66     -C34     -C31     : 111.920518  H66     -C34     -H65     : 104.405227
 H67     -C34     -C31     : 112.752102  H67     -C34     -H65     : 109.342679
 H67     -C34     -H66     : 105.522018  C36     -C35     -P1      : 127.530268
 C37     -C35     -P1      : 109.912629  C37     -C35     -C36     : 122.505366
 C38     -C36     -C35     : 124.059317  C44     -C36     -C35     : 119.885128
 C44     -C36     -C38     : 116.053000  H68     -C37     -C35     : 114.378214
 H69     -C37     -C35     : 111.952294  H69     -C37     -H68     : 110.929273
 H70     -C37     -C35     : 110.689220  H70     -C37     -H68     : 101.481690
 H70     -C37     -H69     : 106.662950  C39     -C38     -C36     : 121.672826
 C43     -C38     -C36     : 125.297157  C43     -C38     -C39     : 112.942200
 C40     -C39     -C38     : 124.040307  H71     -C39     -C38     : 121.608705
 H71     -C39     -C40     : 114.258997  C41     -C40     -C39     : 120.523633
 H72     -C40     -C39     : 120.137769  H72     -C40     -C41     : 119.325745
 C42     -C41     -C40     : 117.770560  H73     -C41     -C40     : 121.244436
 H73     -C41     -C42     : 120.982289  C43     -C42     -C41     : 120.185290
 H74     -C42     -C41     : 120.120865  H74     -C42     -C43     : 119.693790
 C42     -C43     -C38     : 124.508133  H75     -C43     -C38     : 120.954964
 H75     -C43     -C42     : 114.526229  C45     -C44     -C36     : 121.074619
 C49     -C44     -C36     : 124.915067  C49     -C44     -C45     : 114.003224
 C46     -C45     -C44     : 123.605093  H76     -C45     -C44     : 120.811966
 H76     -C45     -C46     : 115.477133  C47     -C46     -C45     : 120.139693
 H77     -C46     -C45     : 120.129043  H77     -C46     -C47     : 119.731203
 C48     -C47     -C46     : 118.329070  H78     -C47     -C46     : 120.944911
 H78     -C47     -C48     : 120.724611  C49     -C48     -C47     : 120.214019
 H79     -C48     -C47     : 119.391087  H79     -C48     -C49     : 120.394749
 C48     -C49     -C44     : 123.706158  H80     -C49     -C44     : 121.438334
 H80     -C49     -C48     : 114.779452  C29     -H53     -N3      : 137.918983
 
  torsional angles:
 
 P1      -Pd2     -N3      -H15     :  83.564061
 P1      -Pd2     -N3      -C19     :-151.335388
 P1      -Pd2     -N3      -H53     : -46.916632
 P1      -Pd2     -C7      -C6      :  89.627847
 P1      -Pd2     -C7      -C8      : -93.861586
 P1      -C28     -C27     -H50     :  60.423097
 P1      -C28     -C27     -H51     : -63.833500
 P1      -C28     -C27     -H52     : 178.645759
 P1      -C28     -C29     -H53     : -61.849170
 P1      -C28     -C29     -H54     : 179.955101
 P1      -C28     -C29     -H55     :  60.458675
 P1      -C28     -C30     -H56     : -59.829110
 P1      -C28     -C30     -H57     : 179.754196
 P1      -C28     -C30     -H58     :  60.674883
 P1      -C31     -C32     -H59     :  58.168075
 P1      -C31     -C32     -H60     : -64.812686
 P1      -C31     -C32     -H61     : 177.237594
 P1      -C31     -C33     -H62     :  59.493658
 P1      -C31     -C33     -H63     : -62.389561
 P1      -C31     -C33     -H64     : 178.593143
 P1      -C31     -C34     -H65     : -64.823930
 P1      -C31     -C34     -H66     : 178.079561
 P1      -C31     -C34     -H67     :  59.291735
 P1      -C35     -C36     -C38     :   6.452666
 P1      -C35     -C36     -C44     :-172.942157
 P1      -C35     -C37     -H68     :-151.302433
 P1      -C35     -C37     -H69     :  81.433443
 P1      -C35     -C37     -H70     : -37.427424
 Pd2     -P1      -C28     -C27     : 161.807320
 Pd2     -P1      -C28     -C29     :  44.058460
 Pd2     -P1      -C28     -C30     : -77.286203
 Pd2     -P1      -C31     -C32     :  26.480590
 Pd2     -P1      -C31     -C33     : -94.690295
 Pd2     -P1      -C31     -C34     : 146.200330
 Pd2     -P1      -C35     -C36     :  38.083955
 Pd2     -P1      -C35     -C37     :-144.505410
 Pd2     -N3      -C19     -C18     :  89.482519
 Pd2     -N3      -C19     -C20     : -90.612677
 Pd2     -N3      -H53     -C29     :  58.663857
 Pd2     -C7      -C6      -C5      : 175.472585
 Pd2     -C7      -C6      -H12     :  -5.243522
[...]
    C27      Z     0.00002  -0.00001   0.00001  -0.00004  -0.00000  -0.00000
    C28      X    -0.00001  -0.00001  -0.00001  -0.00002   0.00000   0.00002
    C28      Y    -0.00000   0.00001   0.00002  -0.00006  -0.00002   0.00002
    C28      Z    -0.00003  -0.00000   0.00001  -0.00006  -0.00001   0.00003
    C29      X    -0.00003   0.00011  -0.00007   0.00060   0.00003   0.00000
    C29      Y     0.00004   0.00001  -0.00005  -0.00077   0.00003   0.00000
    C29      Z     0.00006  -0.00008  -0.00004  -0.00239   0.00004  -0.00002
    C30      X    -0.00002  -0.00000  -0.00002   0.00020   0.00001   0.00000
    C30      Y     0.00001   0.00001  -0.00001  -0.00005   0.00001  -0.00001
    C30      Z    -0.00001  -0.00004   0.00002  -0.00099  -0.00001   0.00004
    C31      X     0.00001   0.00000   0.00002   0.00000  -0.00000   0.00001
    C31      Y    -0.00002  -0.00001  -0.00000   0.00001  -0.00000  -0.00001
    C31      Z    -0.00002   0.00001   0.00002  -0.00000  -0.00000   0.00000
    C32      X     0.00003  -0.00006   0.00000  -0.00005  -0.00001   0.00012
    C32      Y    -0.00002  -0.00001  -0.00002  -0.00002   0.00001   0.00004
    C32      Z     0.00001   0.00004  -0.00001   0.00008   0.00002  -0.00016
    C33      X     0.00003  -0.00013   0.00001  -0.00000  -0.00006  -0.00001
    C33      Y     0.00001  -0.00006  -0.00003   0.00001   0.00002   0.00001
    C33      Z    -0.00006   0.00049   0.00001   0.00001   0.00021   0.00000
    C34      X    -0.00001  -0.00001  -0.00000  -0.00003   0.00001   0.00001
    C34      Y     0.00000  -0.00000  -0.00003   0.00000   0.00002  -0.00001
    C34      Z     0.00002  -0.00000   0.00000  -0.00001  -0.00000  -0.00000
    C35      X     0.00001   0.00001   0.00010   0.00001   0.00001  -0.00001
    C35      Y     0.00001  -0.00003   0.00016   0.00000   0.00000  -0.00000
    C35      Z    -0.00003  -0.00002   0.00012  -0.00001   0.00006   0.00000
    C36      X     0.00002  -0.00009   0.00001  -0.00000  -0.00005   0.00000
    C36      Y    -0.00002   0.00022  -0.00006   0.00000  -0.00005  -0.00000
    C36      Z    -0.00001  -0.00003  -0.00009   0.00001  -0.00004  -0.00001
    C37      X     0.00000  -0.00002  -0.00035  -0.00000   0.00001   0.00000
    C37      Y     0.00001   0.00004   0.00047  -0.00000  -0.00002   0.00000
    C37      Z     0.00001   0.00003   0.00017   0.00000  -0.00002  -0.00000
    C38      X    -0.00012   0.00107  -0.00008  -0.00001   0.00050  -0.00005
    C38      Y     0.00021  -0.00164   0.00011  -0.00003  -0.00014  -0.00008
    C38      Z    -0.00000   0.00033  -0.00002   0.00001  -0.00075  -0.00005
    C39      X     0.00098  -0.02178   0.00097  -0.00029   0.00727   0.00002
    C39      Y    -0.00084   0.02035  -0.00093   0.00029  -0.00654  -0.00001
    C39      Z    -0.00058   0.01423  -0.00057   0.00016  -0.00507   0.00002
    C40      X     0.00062  -0.01568   0.00057  -0.00010   0.00981  -0.00000
    C40      Y    -0.00129   0.03495  -0.00122   0.00023  -0.01937  -0.00001
    C40      Z     0.00096  -0.02755   0.00095  -0.00017   0.01312   0.00001
    C41      X    -0.00205   0.01225  -0.00051  -0.00000  -0.02080   0.00001
    C41      Y    -0.00048   0.00080  -0.00006  -0.00004  -0.00911  -0.00001
    C41      Z     0.00471  -0.02483   0.00107   0.00006   0.05446   0.00001
    C42      X     0.00371  -0.03378   0.00096  -0.00016  -0.03745  -0.00000
    C42      Y    -0.00328   0.03021  -0.00087   0.00016   0.03571   0.00001
    C42      Z    -0.00214   0.01880  -0.00058   0.00007   0.01742  -0.00000
    C43      X     0.00125  -0.00895   0.00031  -0.00001  -0.00551  -0.00013
    C43      Y    -0.00241   0.01719  -0.00064  -0.00002   0.01155  -0.00001
    C43      Z     0.00219  -0.01601   0.00055  -0.00001  -0.01151  -0.00001
    C44      X    -0.00001   0.00004  -0.00093   0.00000  -0.00001   0.00000
    C44      Y     0.00002  -0.00008  -0.00153   0.00000  -0.00000  -0.00000
    C44      Z     0.00002  -0.00006  -0.00045  -0.00000   0.00002   0.00000
    C45      X     0.00008  -0.00024   0.01524  -0.00001  -0.00005   0.00000
    C45      Y    -0.00011   0.00023  -0.02417   0.00002   0.00011   0.00000
    C45      Z    -0.00010   0.00025  -0.02059   0.00002   0.00009   0.00000
    C46      X    -0.00003   0.00096   0.03905  -0.00001  -0.00027  -0.00000
    C46      Y     0.00001   0.00007   0.00579  -0.00000  -0.00005  -0.00000
    C46      Z     0.00002  -0.00032  -0.01175   0.00000   0.00008   0.00000
    C47      X    -0.00014   0.00096   0.02146   0.00000  -0.00009  -0.00000
    C47      Y    -0.00021   0.00155   0.03737  -0.00000  -0.00015  -0.00000
    C47      Z    -0.00007   0.00053   0.01316  -0.00000  -0.00006   0.00000
    C48      X     0.00018  -0.00096  -0.01898  -0.00001   0.00007   0.00000
    C48      Y    -0.00026   0.00134   0.02555   0.00001  -0.00008  -0.00000
    C48      Z    -0.00021   0.00112   0.02138   0.00001  -0.00008  -0.00000
    C49      X     0.00045  -0.00204  -0.03147  -0.00004   0.00005   0.00000
    C49      Y     0.00008  -0.00039  -0.00596  -0.00001   0.00002   0.00000
    C49      Z    -0.00012   0.00051   0.00784   0.00001  -0.00001  -0.00000
    H50      X    -0.00002   0.00007  -0.00006   0.00006   0.00003   0.00002
    H50      Y     0.00005  -0.00033   0.00034  -0.00033  -0.00007   0.00000
    H50      Z    -0.00003   0.00029  -0.00023   0.00015   0.00005  -0.00002
    H51      X    -0.00013  -0.00016   0.00012   0.00093  -0.00007  -0.00004
    H51      Y    -0.00016  -0.00020   0.00018   0.00141  -0.00015  -0.00009
    H51      Z    -0.00006  -0.00010   0.00010   0.00069  -0.00006  -0.00007
    H52      X     0.00031   0.00017   0.00029   0.00062  -0.00021  -0.00016
    H52      Y    -0.00009  -0.00003  -0.00008  -0.00023   0.00005   0.00007
    H52      Z    -0.00009  -0.00004  -0.00004  -0.00009   0.00001   0.00009
    H53      X     0.00006  -0.00007  -0.00006  -0.00341   0.00008   0.00013
    H53      Y    -0.00010   0.00043   0.00005   0.00699  -0.00008   0.00021
    H53      Z    -0.00075   0.00126   0.00022   0.03458  -0.00040   0.00041
    H54      X     0.00045  -0.00059   0.00037  -0.00455  -0.00015  -0.00024
    H54      Y    -0.00017   0.00013  -0.00015   0.00125   0.00005   0.00011
    H54      Z    -0.00005   0.00010  -0.00005  -0.00028   0.00001   0.00011
    H55      X    -0.00016  -0.00054   0.00055   0.00429  -0.00019  -0.00007
    H55      Y    -0.00015  -0.00079   0.00069   0.00450  -0.00026  -0.00017
    H55      Z    -0.00006  -0.00053   0.00026   0.00127  -0.00012  -0.00016
    H56      X    -0.00001  -0.00002  -0.00001   0.00012   0.00001   0.00004
    H56      Y    -0.00004  -0.00020   0.00014  -0.00375  -0.00009   0.00027
    H56      Z     0.00003   0.00014  -0.00011   0.00377   0.00006  -0.00046
    H57      X     0.00029   0.00019   0.00033   0.00074  -0.00017  -0.00004
    H57      Y    -0.00011  -0.00006  -0.00007  -0.00027   0.00004  -0.00005
    H57      Z    -0.00001  -0.00000   0.00002  -0.00067  -0.00001  -0.00015
    H58      X    -0.00008  -0.00011   0.00002  -0.00312  -0.00000  -0.00033
    H58      Y     0.00006   0.00012  -0.00005   0.00391   0.00002  -0.00010
    H58      Z     0.00011   0.00032  -0.00016   0.00963   0.00006   0.00072
    H59      X    -0.00026   0.00042  -0.00001  -0.00009   0.00003   0.00065
    H59      Y    -0.00001  -0.00003  -0.00002   0.00005   0.00000   0.00013
    H59      Z    -0.00004   0.00009  -0.00000   0.00012  -0.00001  -0.00078
    H60      X    -0.00002   0.00029  -0.00004   0.00071   0.00012  -0.00203
    H60      Y    -0.00003   0.00002  -0.00002   0.00006   0.00003   0.00022
    H60      Z     0.00011  -0.00055   0.00007  -0.00094  -0.00022   0.00350
    H61      X    -0.00005  -0.00003  -0.00005  -0.00002   0.00002   0.00016
    H61      Y     0.00027   0.00009   0.00035   0.00013  -0.00014  -0.00037
    H61      Z    -0.00013  -0.00003  -0.00011  -0.00009   0.00005   0.00043
    H62      X    -0.00035   0.00270   0.00002   0.00006   0.00126  -0.00002
    H62      Y    -0.00023   0.00155  -0.00004   0.00003   0.00088   0.00001
    H62      Z     0.00077  -0.00531  -0.00002  -0.00010  -0.00239  -0.00001
    H63      X     0.00003  -0.00057   0.00001  -0.00003  -0.00037   0.00007
    H63      Y     0.00004  -0.00108  -0.00008  -0.00006  -0.00064   0.00005
    H63      Z     0.00001  -0.00095  -0.00001  -0.00006  -0.00066   0.00005
    H64      X    -0.00002  -0.00025  -0.00011   0.00004  -0.00003  -0.00000
    H64      Y     0.00002   0.00074   0.00041  -0.00007  -0.00013  -0.00006
    H64      Z    -0.00003  -0.00008  -0.00012   0.00003   0.00014   0.00001
    H65      X     0.00009   0.00012   0.00008   0.00029  -0.00019  -0.00013
    H65      Y    -0.00001   0.00002  -0.00001   0.00006  -0.00001  -0.00003
    H65      Z     0.00001   0.00002   0.00001  -0.00002  -0.00000   0.00001
    H66      X    -0.00006  -0.00000  -0.00011   0.00008   0.00006  -0.00003
    H66      Y     0.00025   0.00004   0.00030  -0.00014  -0.00012   0.00003
    H66      Z    -0.00014  -0.00003  -0.00014   0.00006   0.00004   0.00002
    H67      X    -0.00003  -0.00001   0.00004   0.00002  -0.00001  -0.00000
    H67      Y    -0.00011  -0.00003   0.00007   0.00003  -0.00006   0.00007
    H67      Z    -0.00009  -0.00003   0.00009   0.00002  -0.00009   0.00007
    H68      X    -0.00024  -0.00024  -0.00105   0.00003   0.00005  -0.00001
    H68      Y    -0.00012  -0.00004  -0.00004   0.00001  -0.00002   0.00000
    H68      Z    -0.00014  -0.00003   0.00004   0.00000   0.00003   0.00001
    H69      X     0.00002   0.00060   0.00564  -0.00002  -0.00030  -0.00004
    H69      Y    -0.00001  -0.00049  -0.00496   0.00000   0.00029   0.00005
    H69      Z     0.00000  -0.00039  -0.00296   0.00000   0.00025   0.00004
    H70      X    -0.00000  -0.00000  -0.00011  -0.00000   0.00003   0.00000
    H70      Y    -0.00009  -0.00008  -0.00184   0.00002  -0.00019  -0.00004
    H70      Z     0.00009   0.00003   0.00074  -0.00001   0.00022   0.00001
    H71      X    -0.01002   0.24069  -0.01081   0.00323  -0.07674  -0.00006
    H71      Y     0.00978  -0.23703   0.01061  -0.00330   0.07519   0.00002
    H71      Z     0.00570  -0.13805   0.00612  -0.00191   0.04456   0.00002
    H72      X    -0.00637   0.17834  -0.00616   0.00111  -0.09443  -0.00002
    H72      Y     0.01327  -0.38899   0.01345  -0.00253   0.20253   0.00005
    H72      Z    -0.01037   0.29893  -0.01032   0.00197  -0.15269  -0.00004
    H73      X     0.02196  -0.11765   0.00496   0.00024   0.23575   0.00002
    H73      Y     0.00774  -0.03777   0.00164   0.00012   0.08703   0.00001
    H73      Z    -0.05477   0.28906  -0.01219  -0.00062  -0.59797  -0.00006
    H74      X    -0.04231   0.38407  -0.01112   0.00183   0.41157   0.00006
    H74      Y     0.03910  -0.35534   0.01027  -0.00170  -0.38382  -0.00006
    H74      Z     0.02231  -0.20118   0.00587  -0.00094  -0.21135  -0.00004
    H75      X    -0.01525   0.11025  -0.00407   0.00008   0.07115   0.00015
    H75      Y     0.02699  -0.19490   0.00685  -0.00005  -0.12726  -0.00020
    H75      Z    -0.02323   0.16849  -0.00602   0.00011   0.11140   0.00021
    H76      X    -0.00092   0.00228  -0.18061   0.00016   0.00052  -0.00004
    H76      Y     0.00128  -0.00285   0.25983  -0.00022  -0.00098   0.00002
    H76      Z     0.00115  -0.00278   0.22920  -0.00019  -0.00101   0.00001
    H77      X     0.00029  -0.01035  -0.42480   0.00017   0.00302   0.00003
    H77      Y     0.00002  -0.00151  -0.06725   0.00003   0.00050   0.00001
    H77      Z    -0.00010   0.00311   0.12574  -0.00005  -0.00085  -0.00001
    H78      X     0.00140  -0.01001  -0.23450   0.00001   0.00099   0.00001
    H78      Y     0.00241  -0.01730  -0.40761   0.00001   0.00173   0.00003
    H78      Z     0.00084  -0.00606  -0.14309   0.00000   0.00062   0.00001
    H79      X    -0.00197   0.01045   0.20037   0.00010  -0.00070  -0.00001
    H79      Y     0.00279  -0.01473  -0.28080  -0.00015   0.00101   0.00003
    H79      Z     0.00229  -0.01214  -0.23154  -0.00012   0.00083   0.00002
    H80      X    -0.00514   0.02300   0.34884   0.00046  -0.00037  -0.00001
    H80      Y    -0.00079   0.00363   0.05552   0.00008  -0.00009  -0.00001
    H80      Z     0.00139  -0.00625  -0.09397  -0.00013   0.00010   0.00000
  
  Number of imaginary frequencies:   0
   
  Writing vibrational animation data to red_elim_N_trans_L1_PL747.vib
  Writing IR vibrational spectrum data to red_elim_N_trans_L1_PL747_vib.spm
  rotational symmetry number:  1

  rotational temperatures (K):      0.005845      0.003565      0.002753
   
  The Quasi-Harmonic approximation will be applied to compute
  vibrational constributions to thermodynamic properties.
  Frequencies will be adjusted to a minimum value of  100.00 cm^-1.

  vibrational temperatures:
       mode:      1        2        3        4        5        6
  temp. (K):   143.88   143.88   143.88   143.88   143.88   143.88
   
       mode:      7        8        9       10       11       12
  temp. (K):   143.88   143.88   143.88   143.88   143.88   143.88
   
       mode:     13       14       15       16       17       18
  temp. (K):   143.88   158.95   162.46   165.95   176.35   181.52
   
       mode:     19       20       21       22       23       24
  temp. (K):   196.95   203.87   240.89   251.54   255.50   273.13
   
       mode:     25       26       27       28       29       30
  temp. (K):   303.82   308.16   324.16   334.48   340.91   357.68
   
       mode:     31       32       33       34       35       36
  temp. (K):   361.27   366.71   382.07   402.08   411.64   417.12
   
       mode:     37       38       39       40       41       42
  temp. (K):   430.17   455.09   465.08   472.72   476.19   500.14
   
       mode:     43       44       45       46       47       48
  temp. (K):   505.60   520.57   531.44   562.54   573.87   580.62
   
       mode:     49       50       51       52       53       54
  temp. (K):   588.06   588.44   593.20   599.82   605.74   609.43
   
       mode:     55       56       57       58       59       60
  temp. (K):   611.09   666.44   676.54   684.21   716.05   751.05
   
       mode:     61       62       63       64       65       66
  temp. (K):   756.35   797.60   800.32   830.10   836.75   863.55
   
       mode:     67       68       69       70       71       72
  temp. (K):   887.87   898.69   902.26   909.15   913.01   920.17
   
       mode:     73       74       75       76       77       78
  temp. (K):   958.91   999.33  1019.25  1024.92  1034.09  1042.86
   
       mode:     79       80       81       82       83       84
  temp. (K):  1101.48  1114.70  1123.07  1135.71  1165.08  1177.13
   
       mode:     85       86       87       88       89       90
  temp. (K):  1189.21  1194.29  1197.75  1204.37  1209.53  1226.82
   
       mode:     91       92       93       94       95       96
  temp. (K):  1244.96  1254.87  1281.82  1332.24  1345.55  1350.92
   
       mode:     97       98       99      100      101      102
  temp. (K):  1362.76  1371.72  1377.19  1377.89  1384.98  1387.32
   
       mode:    103      104      105      106      107      108
  temp. (K):  1403.39  1415.94  1419.68  1420.59  1423.01  1441.51
   
       mode:    109      110      111      112      113      114
  temp. (K):  1451.91  1456.22  1457.81  1464.83  1468.00  1481.02
   
       mode:    115      116      117      118      119      120
  temp. (K):  1483.15  1496.74  1503.78  1517.73  1524.48  1527.07
   
       mode:    121      122      123      124      125      126
  temp. (K):  1528.05  1529.71  1535.80  1557.79  1598.33  1605.64
   
       mode:    127      128      129      130      131      132
  temp. (K):  1614.90  1617.60  1675.86  1720.22  1722.46  1734.35
   
       mode:    133      134      135      136      137      138
  temp. (K):  1734.53  1737.12  1748.01  1753.23  1755.80  1759.78
   
       mode:    139      140      141      142      143      144
  temp. (K):  1765.15  1773.36  1779.46  1793.47  1799.44  1810.80
   
       mode:    145      146      147      148      149      150
  temp. (K):  1831.77  1867.96  1893.01  1902.21  1922.74  1933.89
   
       mode:    151      152      153      154      155      156
  temp. (K):  1943.74  1982.07  1983.69  1990.47  2017.24  2042.02
   
       mode:    157      158      159      160      161      162
  temp. (K):  2051.54  2052.15  2052.49  2056.71  2071.84  2094.29
   
       mode:    163      164      165      166      167      168
  temp. (K):  2108.45  2122.88  2145.70  2156.14  2159.14  2163.27
   
       mode:    169      170      171      172      173      174
  temp. (K):  2165.82  2171.47  2177.18  2180.18  2186.61  2191.82
   
       mode:    175      176      177      178      179      180
  temp. (K):  2194.67  2197.60  2200.52  2208.15  2210.99  2215.10
   
       mode:    181      182      183      184      185      186
  temp. (K):  2218.39  2219.22  2226.30  2245.75  2331.32  2357.87
   
       mode:    187      188      189      190      191      192
  temp. (K):  2363.98  2365.16  2371.06  2382.10  2397.51  2398.64
   
       mode:    193      194      195      196      197      198
  temp. (K):  2403.08  4365.51  4373.27  4377.36  4377.62  4384.24
   
       mode:    199      200      201      202      203      204
  temp. (K):  4385.59  4413.42  4473.76  4477.59  4479.14  4488.31
   
       mode:    205      206      207      208      209      210
  temp. (K):  4494.92  4498.84  4509.38  4515.09  4516.24  4525.40
   
       mode:    211      212      213      214      215      216
  temp. (K):  4537.59  4553.30  4559.67  4560.07  4561.70  4565.55
   
       mode:    217      218      219      220      221      222
  temp. (K):  4570.80  4581.61  4582.23  4594.10  4594.73  4596.45
   
       mode:    223      224      225      226      227      228
  temp. (K):  4600.82  4609.21  4609.42  4610.28  4616.57  4618.70
   
       mode:    229      230      231      232      233      234
  temp. (K):  4621.82  4625.86  4626.85  4637.66  4644.36  5021.80
   
   
  Thermodynamic properties calculated assuming an ideal gas

  In the table below, the units for temperature
  are kelvins, the units for U, H, and G are
  kcal/mol and the units for Cv and S are cal/(mol K)

  The zero point energy (ZPE):    424.476 kcal/mol
  is not included in U, H, or G in the table below
  
 
  =============================================================================
  Thermodynamic properties for P = 1.00E+00 atm, calculated at   1 temperatures


  T =   298.15 K, P = 1.00E+00 atm
   
                  U         Cv          S          H          G        ln(Q)
              =========  =========  =========  =========  =========  =========
  trans.          0.889      2.981     45.210      1.481    -11.998   20.25056
  rot.            0.889      2.981     37.669      0.889    -10.342   17.45555
  vib.           22.364    149.108    134.994     22.364    -17.885   30.18591
  elec.           0.000      0.000      0.000      0.000      0.000    0.00000
  ----------------------------------------------------------------------------
  total          24.141    155.069    217.872     24.734    -40.225   67.89202
   
   Total internal energy, Utot(SCFE + ZPE + U):   -1979.928879 hartrees
   Total enthalpy, Htot (Utot + nRT), with n=1:   -1979.927935 hartrees
    Total Gibbs free energy, Gtot (Htot - T*S):   -1980.031453 hartrees
   
  end of program freq
   
 Time(freq)  user:       0.360  user+sys:       0.360  wallclock:       0.745
  
  start of program post
  
  Writing input files for PBF
  end of program post
   
 Time(post)  user:       0.148  user+sys:       0.148  wallclock:       0.101

 Total cpu seconds     user:  103744.625   user+sys:  103744.625
  
 Total elapsed time:    59592 seconds

Job red_elim_N_trans_L1_PL747 completed on bp1-compute145.data.bp.acrc.priv at Tue Mar 25 12:27:04 2025
