Job enc_comp_L1_PL154 started on bp1-compute145.data.bp.acrc.priv at Mon Mar 24 01:29:52 2025
jobid: bp1-compute145-0-67e0b589

  +--------------------------------------------------------------------+
  |  Jaguar version 12.5, release 138                                  |
  |                                                                    |
  |  Copyright Schrodinger, Inc.                                       |
  |  All Rights Reserved.                                              |
  |                                                                    |
  |  The following have contributed to Jaguar (listed alphabetically): |
  |  Ty Balduf, Mike Beachy, Chandler Bennett, Art Bochevarov,         |
  |  Dale Braden, Yixiang Cao, Alan Chien, Chris Cortis,               |
  |  Rich Friesner, Jim Furness, Bill Goddard, Hod Greeley,            |
  |  Tom Hughes, Leif Jacobson, Jean-Marc Langlois, Daniel Levine,     |
  |  Rob Murphy, Dean Philipp, Tom Pollard, Murco Ringnalda,           |
  |  Daniel Mainz, Pablo Videla, Mark Watson, Haoyu Yu.                |
  |                                                                    |
  |  Use of this program should be acknowledged in publications as:    |
  |                                                                    |
  |  Jaguar, version 12.5, Schrodinger, Inc., New York, NY, 2024.      |
  |                                                                    |
  |  A. D. Bochevarov, E. Harder, T. F. Hughes, J. R. Greenwood,       |
  |  D. A. Braden, D. M. Philipp, D. Rinaldo, M. D. Halls,             |
  |  J. Zhang, R. A. Friesner, "Jaguar: A High-Performance Quantum     |
  |  Chemistry Software Program with Strengths in Life and Materials   |
  |  Sciences", Int. J. Quantum Chem., 2013, 113(18), 2110-2142.       |
  +--------------------------------------------------------------------+
  
  start of program pre
  
  Job name: enc_comp_L1_PL154
  Executables used: /software/local/apps/schrodinger2024-3/jaguar-v12.5/bin/Linux-x86_64
  Temporary files : /tmp/ar21627/enc_comp_L1_PL154#bp1-compute145-0-67e0b589
  Basis file : using default basis file from /software/local/apps/schrodinger2024-3
  Maestro file (input):  enc_comp_L1_PL154.mae
  Maestro file (output): enc_comp_L1_PL154.01.mae
  
 Contents of input file: &gen and (if present) &atomic sections only
 ----------------Contents start----------------
&gen
dftname=b3pw91-d3
basis=6-31G*
numd=5
ip11=2
iaccg=3
isolv=2
igeopt=1
solvent=benzene
ifreq=1
&
&atomic
atom basis
Pd2 lacv3p*
Br3 lacv3p*
&
 -----------------Contents end-----------------
 
  PS calculation requested. Using PS version of 6-31g*
  basis set:               non_standard                    
  net molecular charge:    0
  multiplicity:            1
  
  Using up to   4 threads per process
  
  This run will use ECP on            2  atoms
  number of basis functions....          516
  
  input atom labels were not unique
  original atom labels:
 P1       Pd2      Br3      C4       C5       C6       C7       C8      
 C9       F10      H11      H12      H13      H14      C3       C4      
 C5       C6       C7       C8       C9       C10      C11      C12     
 C13      C14      C15      C16      C17      C18      C19      C20     
 C21      C22      C23      H24      H25      H26      H27      H28     
 H29      H30      H31      H32      H33      H34      H35      H36     
 H37      H38      H39      H40      H41      H42      H43      H44     
 H45      H46      H47      H48      H49      H50      H51      H52     
  new atom labels:
 P1       Pd2      Br3      C4       C5       C6       C7       C8      
 C9       F10      H11      H12      H13      H14      C15      C16     
 C17      C18      C19      C20      C21      C22      C23      C24     
 C25      C26      C27      C28      C29      C30      C31      C32     
 C33      C34      C35      H36      H37      H38      H39      H40     
 H41      H42      H43      H44      H45      H46      H47      H48     
 H49      H50      H51      H52      H53      H54      H55      H56     
 H57      H58      H59      H60      H61      H62      H63      H64     
 
  
 Input geometry:
                                   angstroms
  atom               x                 y                 z
  P1            0.0000000000      0.0000000000      0.0000000000 
  Pd2           0.0000000000      0.0000000000      2.3304135331 
  Br3           3.8542814242      0.0000000000      5.4292064860 
  C4           -0.4549197086      1.3497693940      4.0153359349 
  C5           -0.2669344836      0.0058806450      4.4490366009 
  C6            1.0407983309     -0.3826452052      4.8592552538 
  C7            2.0537516852      0.5613053264      4.8924840041 
  C8            1.8506734706      1.9005134066      4.5247241645 
  C9            0.5965376026      2.2939392222      4.0848657340 
  F10          -1.7240847964      1.8372913075      3.9128173605 
  H11          -1.1259178029     -0.6226753472      4.6805948296 
  H12           1.2142790067     -1.4018616494      5.1904970608 
  H13           2.6689545036      2.6135377646      4.5613194024 
  H14           0.3946228406      3.3233536154      3.8042291155 
  C15           1.8168740000      0.0000000000     -0.5778410000 
  C16          -0.8434890000      1.4252840000     -0.9715180000 
  C17          -0.8972560000     -1.6587410000     -0.3454820000 
  C18           3.1495210000      1.3984640000      1.1560820000 
  C19           3.8588263281      1.1355513573      2.3736813746 
  C20           3.8867198551      2.0949863329      3.4109786919 
  C21           3.2436713859      3.3334635638      3.3380250593 
  C22           2.5408797757      3.6173351334      2.1694795371 
  C23           2.5256422589      2.6599211623      1.1483858364 
  C24           3.0135280000      0.5741960000     -0.0169290000 
  C25           4.1905000000      0.2861180000     -0.7490990000 
  C26           4.2768280000     -0.4722710000     -1.9225270000 
  C27           3.1083040000     -1.0053740000     -2.4560800000 
  C28           1.9211360000     -0.7480340000     -1.7680690000 
  C29          -2.3917700000      1.4641300000     -0.9448800000 
  C30          -0.3788420000      2.8361950000     -0.5323130000 
  C31          -0.4455240000      1.3408580000     -2.4674050000 
  C32          -0.0177960000     -2.8755410000      0.0296550000 
  C33          -1.4453590000     -1.9535040000     -1.7679970000 
  C34          -2.1262300000     -1.7392700000      0.5941800000 
  C35           4.5637188704     -0.1496340805      2.7549693092 
  H36           4.4281014864      1.8864358777      4.3488201825 
  H37           3.2854925696      4.0574705499      4.1691033164 
  H38           2.0157266420      4.5805592357      2.0515936415 
  H39           1.9883373856      2.9823097538      0.2660395240 
  H40           5.1648570000      0.6855070000     -0.4721570000 
  H41           5.2430580000     -0.6375380000     -2.4300450000 
  H42           3.1237660000     -1.6027090000     -3.3835720000 
  H43           1.0324530000     -1.1846760000     -2.2280190000 
  H44          -2.8081380000      1.6140360000      0.0705490000 
  H45          -2.7931410000      2.3029860000     -1.5580800000 
  H46          -2.8583580000      0.5482850000     -1.3582140000 
  H47          -0.6553110000      3.0576040000      0.5218020000 
  H48           0.7195950000      2.9676930000     -0.6585650000 
  H49          -0.8498760000      3.6399150000     -1.1432090000 
  H50          -0.7462210000      0.3798070000     -2.9348810000 
  H51          -0.9210170000      2.1442960000     -3.0752880000 
  H52           0.6524840000      1.4549820000     -2.6096750000 
  H53           0.9648250000     -2.8622550000     -0.4905250000 
  H54           0.1711760000     -2.9295420000      1.1223420000 
  H55          -0.5069560000     -3.8419160000     -0.2300880000 
  H56          -0.6634350000     -2.0908620000     -2.5422720000 
  H57          -2.0275400000     -2.9029450000     -1.7892070000 
  H58          -2.1492470000     -1.1796830000     -2.1325550000 
  H59          -1.8356470000     -1.6862910000      1.6668530000 
  H60          -2.8513880000     -0.9189660000      0.4051340000 
  H61          -2.6842430000     -2.6960970000      0.4765580000 
  H62           5.6022699500     -0.1875264494      2.3540258547 
  H63           3.9615378474     -1.0487278623      2.4922235730 
  H64           4.6795764486     -0.2577548218      3.8570505592 
   
  principal moments of inertia:
        amu*angstrom^2:              3069.05191              5297.93716              6200.39555
                g*cm^2:          5.09627997E-37          8.79743053E-37          1.02959978E-36
   
  rotational constants:
               cm^(-1):      0.00549278      0.00318192      0.00271880
                   GHz:      0.16466942      0.09539166      0.08150754
   
  Molecular weight:     592.05 amu
   
  Stoichiometry: PdC27PH33BrF
  Molecular Point Group: C1      
  Point Group used: C1
  
 
Number of optimization coordinates:   218
Number of independent coordinates:    218
Number of non-redundant coordinates:  186
Number of frozen coordinates:           0
Number of harmonic constraints:         0
 
Number of geometric degrees of freedom:   186
Maximum geometric degrees of freedom:     186
 " " " " " excluding dummy atoms:         186
 
 
  bond lengths (angstroms):
 
 P1      -Pd2     :   2.330414      P1      -C15     :   1.906550
 P1      -C16     :   1.920093      P1      -C17     :   1.917250
 Pd2     -C4      :   2.206308      Pd2     -C5      :   2.135381
 Br3     -C7      :   1.960878      C4      -C5      :   1.424595
 C4      -C9      :   1.414869      C4      -F10     :   1.363440
 C5      -C6      :   1.424569      C5      -H11     :   1.089291
 C6      -C7      :   1.384999      C6      -H12     :   1.085642
 C7      -C8      :   1.403555      C8      -C9      :   1.386043
 C8      -H13     :   1.085968      C9      -H14     :   1.085919
 C15     -C24     :   1.440939      C15     -C28     :   1.409634
 C16     -C29     :   1.548997      C16     -C30     :   1.549022
 C16     -C31     :   1.550220      C17     -C32     :   1.547508
 C17     -C33     :   1.552692      C17     -C34     :   1.549137
 C18     -C19     :   1.433452      C18     -C23     :   1.407323
 C18     -C24     :   1.440093      C19     -C20     :   1.413251
 C19     -C35     :   1.514581      C20     -C21     :   1.397376
 C20     -H36     :   1.102785      C21     -C22     :   1.392838
 C21     -H37     :   1.103008      C22     -C23     :   1.399824
 C22     -H38     :   1.103396      C23     -H39     :   1.082204
 C24     -C25     :   1.415742      C25     -C26     :   1.399836
 C25     -H40     :   1.088843      C26     -C27     :   1.390800
 C26     -H41     :   1.103851      C27     -C28     :   1.396048
 C27     -H42     :   1.103308      C28     -H43     :   1.091773
 C29     -H44     :   1.107669      C29     -H45     :   1.113909
 C29     -H46     :   1.107845      C30     -H47     :   1.112032
 C30     -H48     :   1.113461      C30     -H49     :   1.114017
 C31     -H50     :   1.110212      C31     -H51     :   1.114059
 C31     -H52     :   1.113053      C32     -H53     :   1.111894
 C32     -H54     :   1.110221      C32     -H55     :   1.113833
 C33     -H56     :   1.108952      C33     -H57     :   1.113922
 C33     -H58     :   1.107772      C34     -H59     :   1.112597
 C34     -H60     :   1.111077      C34     -H61     :   1.113881
 C35     -H62     :   1.113903      C35     -H63     :   1.113565
 C35     -H64     :   1.113416
 
  bond angles:
 
 C15     -P1      -Pd2     : 107.642814  C16     -P1      -Pd2     : 120.396068
 C16     -P1      -C15     : 105.383690  C17     -P1      -Pd2     : 100.381213
 C17     -P1      -C15     : 113.039431  C17     -P1      -C16     : 110.209354
 C4      -Pd2     -P1      : 139.790083  C5      -Pd2     -P1      : 172.817172
 C5      -Pd2     -C4      :  38.265372  C5      -C4      -Pd2     :  68.171301
 C9      -C4      -Pd2     : 107.010697  C9      -C4      -C5      : 121.097117
 F10     -C4      -Pd2     : 110.687033  F10     -C4      -C5      : 118.883777
 F10     -C4      -C9      : 117.183816  C4      -C5      -Pd2     :  73.563328
 C6      -C5      -Pd2     :  99.799198  C6      -C5      -C4      : 117.780247
 H11     -C5      -Pd2     : 107.932450  H11     -C5      -C4      : 120.331435
 H11     -C5      -C6      : 120.351769  C7      -C6      -C5      : 119.499655
 H12     -C6      -C5      : 119.379668  H12     -C6      -C7      : 121.041683
 C6      -C7      -Br3     : 118.884051  C8      -C7      -Br3     : 118.535581
 C8      -C7      -C6      : 122.561140  C9      -C8      -C7      : 119.006271
 H13     -C8      -C7      : 120.572301  H13     -C8      -C9      : 120.405679
 C8      -C9      -C4      : 119.907542  H14     -C9      -C4      : 118.797547
 H14     -C9      -C8      : 121.287651  C24     -C15     -P1      : 132.332083
 C28     -C15     -P1      : 109.049994  C28     -C15     -C24     : 118.601565
 C29     -C16     -P1      : 116.680003  C30     -C16     -P1      : 113.633317
 C30     -C16     -C29     : 105.789550  C31     -C16     -P1      : 109.575020
 C31     -C16     -C29     : 105.935583  C31     -C16     -C30     : 104.252746
 C32     -C17     -P1      : 111.754645  C33     -C17     -P1      : 119.639032
 C33     -C17     -C32     : 105.868645  C34     -C17     -P1      : 107.875063
 C34     -C17     -C32     : 105.244514  C34     -C17     -C33     : 105.414608
 C23     -C18     -C19     : 112.855389  C24     -C18     -C19     : 129.318543
 C24     -C18     -C23     : 117.822169  C20     -C19     -C18     : 120.577643
 C35     -C19     -C18     : 126.852870  C35     -C19     -C20     : 112.463886
 C21     -C20     -C19     : 123.661511  H36     -C20     -C19     : 120.364684
 H36     -C20     -C21     : 115.971317  C22     -C21     -C20     : 117.169856
 H37     -C21     -C20     : 121.666137  H37     -C21     -C22     : 121.163760
 C23     -C22     -C21     : 118.559909  H38     -C22     -C21     : 120.510758
 H38     -C22     -C23     : 120.927422  C22     -C23     -C18     : 127.174781
 H39     -C23     -C18     : 119.444547  H39     -C23     -C22     : 113.352565
 C18     -C24     -C15     : 128.578123  C25     -C24     -C15     : 114.079668
 C25     -C24     -C18     : 117.336141  C26     -C25     -C24     : 126.514616
 H40     -C25     -C24     : 122.531223  H40     -C25     -C26     : 110.900352
 C27     -C26     -C25     : 118.517836  H41     -C26     -C25     : 121.365931
 H41     -C26     -C27     : 120.110049  C28     -C27     -C26     : 117.048897
 H42     -C27     -C26     : 121.214686  H42     -C27     -C28     : 121.736280
 C27     -C28     -C15     : 125.228312  H43     -C28     -C15     : 120.513439
 H43     -C28     -C27     : 114.258064  H44     -C29     -C16     : 113.258537
 H45     -C29     -C16     : 111.689655  H45     -C29     -H44     : 105.503065
 H46     -C29     -C16     : 113.192670  H46     -C29     -H44     : 107.193094
 H46     -C29     -H45     : 105.391539  H47     -C30     -C16     : 112.058038
 H48     -C30     -C16     : 111.797889  H48     -C30     -H47     : 109.222001
 H49     -C30     -C16     : 112.013244  H49     -C30     -H47     : 105.726505
 H49     -C30     -H48     : 105.648678  H50     -C31     -C16     : 112.576983
 H51     -C31     -C16     : 112.189921  H51     -C31     -H50     : 106.196471
 H52     -C31     -C16     : 111.777365  H52     -C31     -H50     : 107.585060
 H52     -C31     -H51     : 106.102308  H53     -C32     -C17     : 112.298348
 H54     -C32     -C17     : 111.935505  H54     -C32     -H53     : 108.095584
 H55     -C32     -C17     : 112.091550  H55     -C32     -H53     : 106.820756
 H55     -C32     -H54     : 105.192635  H56     -C33     -C17     : 114.473937
 H57     -C33     -C17     : 111.330423  H57     -C33     -H56     : 104.456631
 H58     -C33     -C17     : 113.153150  H58     -C33     -H56     : 107.744798
 H58     -C33     -H57     : 104.894240  H59     -C34     -C17     : 112.032471
 H60     -C34     -C17     : 112.097904  H60     -C34     -H59     : 107.418253
 H61     -C34     -C17     : 112.211684  H61     -C34     -H59     : 105.875619
 H61     -C34     -H60     : 106.814392  H62     -C35     -C19     : 111.849660
 H63     -C35     -C19     : 111.964901  H63     -C35     -H62     : 113.066083
 H64     -C35     -C19     : 112.334273  H64     -C35     -H62     : 104.830478
 H64     -C35     -H63     : 102.205211
 
  torsional angles:
 
 P1      -Pd2     -C4      -C5      : 169.055599
 P1      -Pd2     -C4      -C9      : -73.602749
 P1      -Pd2     -C4      -F10     :  55.167448
 P1      -Pd2     -C5      -C4      : -78.600628
 P1      -Pd2     -C5      -C6      : 165.156178
 P1      -Pd2     -C5      -H11     :  38.653112
 P1      -C15     -C24     -C18     :  -3.538704
 P1      -C15     -C24     -C25     : 177.391602
 P1      -C15     -C28     -C27     :-177.644279
 P1      -C15     -C28     -H43     :   2.190069
 P1      -C16     -C29     -H44     :  62.775020
 P1      -C16     -C29     -H45     :-178.274494
 P1      -C16     -C29     -H46     : -59.513232
 P1      -C16     -C30     -H47     : -63.928460
 P1      -C16     -C30     -H48     :  59.071534
 P1      -C16     -C30     -H49     : 177.433697
 P1      -C16     -C31     -H50     :  59.682494
 P1      -C16     -C31     -H51     : 179.407630
 P1      -C16     -C31     -H52     : -61.546178
 P1      -C17     -C32     -H53     : -56.022773
 P1      -C17     -C32     -H54     :  65.784275
 P1      -C17     -C32     -H55     :-176.287823
 P1      -C17     -C33     -H56     :  67.566361
 P1      -C17     -C33     -H57     :-174.255908
 P1      -C17     -C33     -H58     : -56.409800
 P1      -C17     -C34     -H59     : -59.157476
 P1      -C17     -C34     -H60     :  61.695607
 P1      -C17     -C34     -H61     :-178.104440
 Pd2     -P1      -C15     -C24     : -32.618306
 Pd2     -P1      -C15     -C28     : 145.847045
 Pd2     -P1      -C16     -C29     : -71.513102
 Pd2     -P1      -C16     -C30     :  52.011638
 Pd2     -P1      -C16     -C31     : 168.168159
 Pd2     -P1      -C17     -C32     : -70.217488
 Pd2     -P1      -C17     -C33     : 165.326564
 Pd2     -P1      -C17     -C34     :  45.006587
 Pd2     -C4      -C5      -C6      :  92.587904
 Pd2     -C4      -C5      -H11     :-101.496949
 Pd2     -C4      -C9      -C8      : -71.447828
 Pd2     -C4      -C9      -H14     : 109.519591
 Pd2     -C5      -C4      -C9      : -97.263592
 Pd2     -C5      -C4      -F10     : 102.336045
 Pd2     -C5      -C6      -C7      :  79.957824
 Pd2     -C5      -C6      -H12     :-103.239758
 Br3     -C7      -C6      -C5      :-178.920910
 Br3     -C7      -C6      -H12     :   4.331201
 Br3     -C7      -C8      -C9      : 177.060737
 Br3     -C7      -C8      -H13     :  -1.501514
 C4      -Pd2     -P1      -C15     : 108.625624
 C4      -Pd2     -P1      -C16     : -11.991599
 C4      -Pd2     -P1      -C17     :-132.964271
 C4      -Pd2     -C5      -C6      :-116.243194
 C4      -Pd2     -C5      -H11     : 117.253740
 C4      -C5      -C6      -C7      :   3.464907
 C4      -C5      -C6      -H12     :-179.732674
 C4      -C9      -C8      -C7      :   0.134173
 C4      -C9      -C8      -H13     : 178.698884
 C5      -Pd2     -P1      -C15     : 178.737961
 C5      -Pd2     -P1      -C16     :  58.120738
 C5      -Pd2     -P1      -C17     : -62.851934
 C5      -Pd2     -C4      -C9      : 117.341652
 C5      -Pd2     -C4      -F10     :-113.888151
 C5      -C4      -C9      -C8      :   2.913388
 C5      -C4      -C9      -H14     :-176.119193
 C5      -C6      -C7      -C8      :  -0.540470
 C6      -C5      -C4      -C9      :  -4.675688
 C6      -C5      -C4      -F10     :-165.076052
 C6      -C7      -C8      -C9      :  -1.325091
 C6      -C7      -C8      -H13     :-179.887342
 C7      -C6      -C5      -H11     :-162.447253
 C7      -C8      -C9      -H14     : 179.142122
 C8      -C7      -C6      -H12     :-177.288359
 C8      -C9      -C4      -F10     : 163.633244
 C9      -C4      -C5      -H11     : 161.239459
 F10     -C4      -C5      -H11     :   0.839096
 F10     -C4      -C9      -H14     : -15.399337
 H11     -C5      -C6      -H12     :  14.355165
 H13     -C8      -C9      -H14     :  -2.293167
 C15     -P1      -C16     -C29     : 166.762405
 C15     -P1      -C16     -C30     : -69.712856
 C15     -P1      -C16     -C31     :  46.443665
 C15     -P1      -C17     -C32     :  44.159859
 C15     -P1      -C17     -C33     : -80.296088
 C15     -P1      -C17     -C34     : 159.383935
 C15     -C24     -C18     -C19     : 116.873206
 C15     -C24     -C18     -C23     : -63.902545
 C15     -C24     -C25     -C26     :   0.274863
 C15     -C24     -C25     -H40     : 177.359151
 C15     -C28     -C27     -C26     :  -0.346891
 C15     -C28     -C27     -H42     : 179.785728
 C16     -P1      -C15     -C24     :  97.038236
 C16     -P1      -C15     -C28     : -84.496413
 C16     -P1      -C17     -C32     : 161.788653
 C16     -P1      -C17     -C33     :  37.332705
 C16     -P1      -C17     -C34     : -82.987272
 C17     -P1      -C15     -C24     :-142.540243
 C17     -P1      -C15     -C28     :  35.925108
 C17     -P1      -C16     -C29     :  44.498558
 C17     -P1      -C16     -C30     : 168.023298
 C17     -P1      -C16     -C31     : -75.820182
 C18     -C19     -C20     -C21     :   0.204575
 C18     -C19     -C20     -H36     : 179.607156
 C18     -C19     -C35     -H62     :  85.260242
 C18     -C19     -C35     -H63     : -42.827948
 C18     -C19     -C35     -H64     :-157.167381
 C18     -C23     -C22     -C21     :   0.273642
 C18     -C23     -C22     -H38     : 179.773359
 C18     -C24     -C15     -C28     : 178.113550
 C18     -C24     -C25     -C26     :-178.906444
 C18     -C24     -C25     -H40     :  -1.822156
 C19     -C18     -C23     -C22     :  -0.019764
 C19     -C18     -C23     -H39     : 177.915884
 C19     -C18     -C24     -C25     : -64.082919
 C19     -C20     -C21     -C22     :   0.054983
 C19     -C20     -C21     -H37     : 179.876051
 C20     -C19     -C18     -C23     :  -0.212327
 C20     -C19     -C18     -C24     : 179.043146
 C20     -C19     -C35     -H62     : -98.492928
 C20     -C19     -C35     -H63     : 133.418882
 C20     -C19     -C35     -H64     :  19.079450
 C20     -C21     -C22     -C23     :  -0.276610
 C20     -C21     -C22     -H38     :-179.778484
 C21     -C20     -C19     -C35     :-176.307482
 C21     -C22     -C23     -H39     :-177.768294
 C22     -C21     -C20     -H36     :-179.371646
 C22     -C23     -C18     -C24     :-179.368488
 C23     -C18     -C19     -C35     : 175.758639
 C23     -C18     -C24     -C25     : 115.141330
 C23     -C22     -C21     -H37     : 179.901367
 C24     -C15     -C28     -C27     :   1.063585
 C24     -C15     -C28     -H43     :-179.102067
 C24     -C18     -C19     -C35     :  -4.985888
 C24     -C18     -C23     -H39     :  -1.432840
 C24     -C25     -C26     -C27     :   0.419544
 C24     -C25     -C26     -H41     : 179.515586
 C25     -C24     -C15     -C28     :  -0.956143
 C25     -C26     -C27     -C28     :  -0.387844
 C25     -C26     -C27     -H42     : 179.480274
 C26     -C27     -C28     -H43     : 179.809641
 C27     -C26     -C25     -H40     :-176.949296
 C28     -C27     -C26     -H41     :-179.495593
 C29     -C16     -C30     -H47     :  65.348403
 C29     -C16     -C30     -H48     :-171.651602
 C29     -C16     -C30     -H49     : -53.289439
 C29     -C16     -C31     -H50     : -66.981941
 C29     -C16     -C31     -H51     :  52.743195
 C29     -C16     -C31     -H52     : 171.789387
 C30     -C16     -C29     -H44     : -64.694553
 C30     -C16     -C29     -H45     :  54.255933
 C30     -C16     -C29     -H46     : 173.017195
 C30     -C16     -C31     -H50     :-178.358513
 C30     -C16     -C31     -H51     : -58.633377
 C30     -C16     -C31     -H52     :  60.412815
 C31     -C16     -C29     -H44     :-174.987439
 C31     -C16     -C29     -H45     : -56.036953
 C31     -C16     -C29     -H46     :  62.724309
 C31     -C16     -C30     -H47     : 176.830700
 C31     -C16     -C30     -H48     : -60.169305
 C31     -C16     -C30     -H49     :  58.192858
 C32     -C17     -C33     -H56     : -59.667052
 C32     -C17     -C33     -H57     :  58.510680
 C32     -C17     -C33     -H58     : 176.356787
 C32     -C17     -C34     -H59     :  60.283556
 C32     -C17     -C34     -H60     :-178.863361
 C32     -C17     -C34     -H61     : -58.663408
 C33     -C17     -C32     -H53     :  75.812279
 C33     -C17     -C32     -H54     :-162.380674
 C33     -C17     -C32     -H55     : -44.452771
 C33     -C17     -C34     -H59     : 171.945031
 C33     -C17     -C34     -H60     : -67.201886
 C33     -C17     -C34     -H61     :  52.998068
 C34     -C17     -C32     -H53     :-172.848971
 C34     -C17     -C32     -H54     : -51.041923
 C34     -C17     -C32     -H55     :  66.885980
 C34     -C17     -C33     -H56     :-170.886081
 C34     -C17     -C33     -H57     : -52.708349
 C34     -C17     -C33     -H58     :  65.137758
 C35     -C19     -C20     -H36     :   3.095099
 H36     -C20     -C21     -H37     :   0.449421
 H37     -C21     -C22     -H38     :   0.399493
 H38     -C22     -C23     -H39     :   1.731423
 H40     -C25     -C26     -H41     :   2.146746
 H41     -C26     -C27     -H42     :   0.372525
 H42     -C27     -C28     -H43     :  -0.057740
 
  nuclear repulsion energy.......          3828.947195605 hartrees
  
  Detected an organometallic with only one TM atom. 
  
  
 
  Will use High-Quality Initial guess for organometallics
       including d-d repulsion (iguess=30)
 
 Non-default options chosen:
   SCF calculation type: DFT(b3pw91-d3)              
   DFT=Becke_3_Parameter/HF+Slater+Becke88+PW91+PW-GGAIIC (B3PW91-D3)
   Geometry will be optimized in redundant internal coordinates
   Solvation energy will be computed using PBF
     -solute cavity energy will not be included
     -surface area terms will not be included
   Vibrational frequencies and related properties will be computed
      from analytic second derivatives
   IR intensities will be computed
   Thermochemical properties will be computed
   Maximum number of geometry steps: 100
   Scaling standard convergence criteria by a factor of   5.00
   Solvent: benzene                                                         
   Internal dielectric constant:    1.000
   Continuum dielectric constant:   2.283
   Solvent probe molecule radius:   2.600
  
 Non-default print settings:
     11=  2
  
 Temporary integer options set:
     21= -1  73=  2
  
  atom       vdw   vdw2    cov     mass  grid  daf  charge   basis
  P1        2.147  2.074  1.060   30.974    Y    Y      Y    ps_6-31g*
  Pd2       1.450  1.450  1.280  105.903    Y    Y      Y    lacv3p*
  Br3       2.095  2.095  1.140   78.918    Y    Y      Y    lav3p*
  C4        1.949  1.900  0.770   12.000    Y    Y      Y    ps_6-31g*
  C5        1.949  1.900  0.770   12.000    Y    Y      Y    ps_6-31g*
  C6        1.949  1.900  0.770   12.000    Y    Y      Y    ps_6-31g*
  C7        1.949  1.900  0.770   12.000    Y    Y      Y    ps_6-31g*
  C8        1.949  1.900  0.770   12.000    Y    Y      Y    ps_6-31g*
  C9        1.949  1.900  0.770   12.000    Y    Y      Y    ps_6-31g*
  F10       1.736  1.682  0.720   18.998    Y    Y      Y    ps_6-31g*
  H11       1.597  1.150  0.320    1.008    Y    Y      Y    ps_6-31g*
  H12       1.597  1.150  0.320    1.008    Y    Y      Y    ps_6-31g*
  H13       1.597  1.150  0.320    1.008    Y    Y      Y    ps_6-31g*
  H14       1.597  1.150  0.320    1.008    Y    Y      Y    ps_6-31g*
  C15       1.949  1.900  0.770   12.000    Y    Y      Y    ps_6-31g*
  C16       1.949  1.900  0.770   12.000    Y    Y      Y    ps_6-31g*
  C17       1.949  1.900  0.770   12.000    Y    Y      Y    ps_6-31g*
  C18       1.949  1.900  0.770   12.000    Y    Y      Y    ps_6-31g*
  C19       1.949  1.900  0.770   12.000    Y    Y      Y    ps_6-31g*
  C20       1.949  1.900  0.770   12.000    Y    Y      Y    ps_6-31g*
  C21       1.949  1.900  0.770   12.000    Y    Y      Y    ps_6-31g*
  C22       1.949  1.900  0.770   12.000    Y    Y      Y    ps_6-31g*
  C23       1.949  1.900  0.770   12.000    Y    Y      Y    ps_6-31g*
  C24       1.949  1.900  0.770   12.000    Y    Y      Y    ps_6-31g*
  C25       1.949  1.900  0.770   12.000    Y    Y      Y    ps_6-31g*
  C26       1.949  1.900  0.770   12.000    Y    Y      Y    ps_6-31g*
  C27       1.949  1.900  0.770   12.000    Y    Y      Y    ps_6-31g*
  C28       1.949  1.900  0.770   12.000    Y    Y      Y    ps_6-31g*
  C29       1.949  1.900  0.770   12.000    Y    Y      Y    ps_6-31g*
  C30       1.949  1.900  0.770   12.000    Y    Y      Y    ps_6-31g*
  C31       1.949  1.900  0.770   12.000    Y    Y      Y    ps_6-31g*
  C32       1.949  1.900  0.770   12.000    Y    Y      Y    ps_6-31g*
  C33       1.949  1.900  0.770   12.000    Y    Y      Y    ps_6-31g*
  C34       1.949  1.900  0.770   12.000    Y    Y      Y    ps_6-31g*
  C35       1.949  1.900  0.770   12.000    Y    Y      Y    ps_6-31g*
  H36       1.597  1.150  0.320    1.008    Y    Y      Y    ps_6-31g*
  H37       1.597  1.150  0.320    1.008    Y    Y      Y    ps_6-31g*
  H38       1.597  1.150  0.320    1.008    Y    Y      Y    ps_6-31g*
  H39       1.597  1.150  0.320    1.008    Y    Y      Y    ps_6-31g*
  H40       1.597  1.150  0.320    1.008    Y    Y      Y    ps_6-31g*
  H41       1.597  1.150  0.320    1.008    Y    Y      Y    ps_6-31g*
  H42       1.597  1.150  0.320    1.008    Y    Y      Y    ps_6-31g*
  H43       1.597  1.150  0.320    1.008    Y    Y      Y    ps_6-31g*
  H44       1.597  1.150  0.320    1.008    Y    Y      Y    ps_6-31g*
  H45       1.597  1.150  0.320    1.008    Y    Y      Y    ps_6-31g*
  H46       1.597  1.150  0.320    1.008    Y    Y      Y    ps_6-31g*
  H47       1.597  1.150  0.320    1.008    Y    Y      Y    ps_6-31g*
  H48       1.597  1.150  0.320    1.008    Y    Y      Y    ps_6-31g*
  H49       1.597  1.150  0.320    1.008    Y    Y      Y    ps_6-31g*
  H50       1.597  1.150  0.320    1.008    Y    Y      Y    ps_6-31g*
  H51       1.597  1.150  0.320    1.008    Y    Y      Y    ps_6-31g*
  H52       1.597  1.150  0.320    1.008    Y    Y      Y    ps_6-31g*
  H53       1.597  1.150  0.320    1.008    Y    Y      Y    ps_6-31g*
  H54       1.597  1.150  0.320    1.008    Y    Y      Y    ps_6-31g*
  H55       1.597  1.150  0.320    1.008    Y    Y      Y    ps_6-31g*
  H56       1.597  1.150  0.320    1.008    Y    Y      Y    ps_6-31g*
  H57       1.597  1.150  0.320    1.008    Y    Y      Y    ps_6-31g*
  H58       1.597  1.150  0.320    1.008    Y    Y      Y    ps_6-31g*
  H59       1.597  1.150  0.320    1.008    Y    Y      Y    ps_6-31g*
  H60       1.597  1.150  0.320    1.008    Y    Y      Y    ps_6-31g*
  H61       1.597  1.150  0.320    1.008    Y    Y      Y    ps_6-31g*
  H62       1.597  1.150  0.320    1.008    Y    Y      Y    ps_6-31g*
  H63       1.597  1.150  0.320    1.008    Y    Y      Y    ps_6-31g*
  H64       1.597  1.150  0.320    1.008    Y    Y      Y    ps_6-31g*
 
  atom      formal  2spin      esp    mulk    frag
  P1           0       0        Y    0.000       0
  Pd2          0       0        Y    0.000       0
  Br3          0       0        Y    0.000       0
  
  end of program pre
   
 Time(pre)  user:       1.523  user+sys:       1.523  wallclock:       1.584
  
  start of program onee
  
  smallest eigenvalue of S:    3.580E-04
  number of canonical orbitals.....          514
  end of program onee
   
 Time(onee)  user:       7.229  user+sys:       7.229  wallclock:       5.084
  
  start of program hfig
  
  initial wavefunction generated automatically from atomic wavefunctions
  Only one possible d-orb occupation 
  Skip d-d repulsion considerations 
 
  Irreducible     Total no   No of occupied orbitals 
  representation  orbitals   Shell_1  Shell_2    ...
  No Symm          514        122
  ------------------------
  Orbital occupation/shell    1.000
 
  end of program hfig
   
 Time(hfig)  user:       1.027  user+sys:       1.027  wallclock:       1.185
  
  start of program probe
  
  end of program probe
   
 Time(probe)  user:       0.528  user+sys:       0.528  wallclock:       0.432
  
  start of program grid
  
   grid     grid set  grid #  grid sym
  ------    --------  ------  --------
  coarse        0        0        1
  medium        2        1        1
  fine          0        0        1
  ultrafine     4        2        1
  charge       -1        3        1
  gradient      4        2        1
  density       0        0        1
  DFT-fine    -11        4        1
  DFT-med.    -10        5        1
  DFT-grad    -12        6        1
  DFT-der2     -8        7        1
  DFT-cphf     -9        8        1
  LMP2-enrg     4        2        1
  LMP2-grad     2        1        1
  DFT-cphf2   -15        9        1
  PBF-dens      0        0        1
  plotting      0        0        1
  Rel-grad    -17        0        1
  
  number of gridpoints: 
     atom           P1         Pd2         Br3          C4          C5          C6          C7
  grid # 1         615         368         488          80          92          95          93
  grid # 2         433         332         420         332         324         324         390
  grid # 3          10         284         257          21          21          27          35
  grid # 4        8714        8714        8714        8714        8714        8714        8714
  grid # 5        1192        1192        1192        1192        1192        1192        1192
  grid # 6        9132        9132        9132        5922        5922        5922        5922
  grid # 7       23034       32968       11582       13950       13950       13950       13950
  grid # 8         722        1150         694         748         748         748         748
  grid # 9         366        2198         358         394         394         394         394
   
  number of gridpoints: 
     atom           C8          C9         F10         H11         H12         H13         H14
  grid # 1          95          94         579         115         117          96         111
  grid # 2         321         325         563         464         465         398         451
  grid # 3          31          28         277         333         344          90         249
  grid # 4        8714        8714        8714        8714        8714        8714        8714
  grid # 5        1192        1192        1192        1192        1192        1192        1192
  grid # 6        5922        5922        5922        5922        5922        5922        5922
  grid # 7       13950       13950       23190       15206       15206       15206       15206
  grid # 8         748         748         770         786         786         786         786
  grid # 9         394         394         420         420         420         420         420
   
  number of gridpoints: 
     atom          C15         C16         C17         C18         C19         C20         C21
  grid # 1          92          91          88          98         100          93          93
  grid # 2         389         369         377         356         363         314         298
  grid # 3          15           6           6          13          19          30          29
  grid # 4        8714        8714        8714        8714        8714        8714        8714
  grid # 5        1192        1192        1192        1192        1192        1192        1192
  grid # 6        5922        5922        5922        5922        5922        5922        5922
  grid # 7       13950       13950       13950       13950       13950       13950       13950
  grid # 8         748         748         748         748         748         748         748
  grid # 9         394         394         394         394         394         394         394
   
  number of gridpoints: 
     atom          C22         C23         C24         C25         C26         C27         C28
  grid # 1          96          94          98          94          97          95          91
  grid # 2         321         325         360         323         324         322         322
  grid # 3          29          24          16          31          46          32          10
  grid # 4        8714        8714        8714        8714        8714        8714        8714
  grid # 5        1192        1192        1192        1192        1192        1192        1192
  grid # 6        5922        5922        5922        5922        5922        5922        5922
  grid # 7       13950       13950       13950       13950       13950       13950       13950
  grid # 8         748         748         748         748         748         748         748
  grid # 9         394         394         394         394         394         394         394
   
  number of gridpoints: 
     atom          C29         C30         C31         C32         C33         C34         C35
  grid # 1          83          84          82          80          82          79          81
  grid # 2         239         240         242         246         241         248         243
  grid # 3           6           6           6           6           6           6           6
  grid # 4        8714        8714        8714        8714        8714        8714        8714
  grid # 5        1192        1192        1192        1192        1192        1192        1192
  grid # 6        5922        5922        5922        5922        5922        5922        5922
  grid # 7       13950       13950       13950       13950       13950       13950       13950
  grid # 8         748         748         748         748         748         748         748
  grid # 9         394         394         394         394         394         394         394
   
  number of gridpoints: 
     atom          H36         H37         H38         H39         H40         H41         H42
  grid # 1          99         112         116         104         115         118         118
  grid # 2         437         446         460         421         455         467         467
  grid # 3         195         328         335         132         317         422         411
  grid # 4        8714        8714        8714        8714        8714        8714        8714
  grid # 5        1192        1192        1192        1192        1192        1192        1192
  grid # 6        5922        5922        5922        5922        5922        5922        5922
  grid # 7       15206       15206       15206       15206       15206       15206       15206
  grid # 8         786         786         786         786         786         786         786
  grid # 9         420         420         420         420         420         420         420
   
  number of gridpoints: 
     atom          H43         H44         H45         H46         H47         H48         H49
  grid # 1         100         105         108         101         107          97         108
  grid # 2         418         444         444         424         444         412         446
  grid # 3          66         222         267         146         177         102         263
  grid # 4        8714        8714        8714        8714        8714        8714        8714
  grid # 5        1192        1192        1192        1192        1192        1192        1192
  grid # 6        5922        5922        5922        5922        5922        5922        5922
  grid # 7       15206       15206       15206       15206       15206       15206       15206
  grid # 8         786         786         786         786         786         786         786
  grid # 9         420         420         420         420         420         420         420
   
  number of gridpoints: 
     atom          H50         H51         H52         H53         H54         H55         H56
  grid # 1         102         109         104         104         106         107         102
  grid # 2         425         445         434         437         446         446         431
  grid # 3         145         269         197         207         216         273         192
  grid # 4        8714        8714        8714        8714        8714        8714        8714
  grid # 5        1192        1192        1192        1192        1192        1192        1192
  grid # 6        5922        5922        5922        5922        5922        5922        5922
  grid # 7       15206       15206       15206       15206       15206       15206       15206
  grid # 8         786         786         786         786         786         786         786
  grid # 9         420         420         420         420         420         420         420
   
  number of gridpoints: 
     atom          H57         H58         H59         H60         H61         H62         H63
  grid # 1         107         101         101         103         107         112         108
  grid # 2         443         427         436         434         447         459         453
  grid # 3         259         148         155         166         277         337         252
  grid # 4        8714        8714        8714        8714        8714        8714        8714
  grid # 5        1192        1192        1192        1192        1192        1192        1192
  grid # 6        5922        5922        5922        5922        5922        5922        5922
  grid # 7       15206       15206       15206       15206       15206       15206       15206
  grid # 8         786         786         786         786         786         786         786
  grid # 9         420         420         420         420         420         420         420
   
  number of gridpoints: 
     atom          H64       total
  grid # 1          88        7998
  grid # 2         422       24774
  grid # 3         128        8959
  grid # 4        8714      557696
  grid # 5        1192       76288
  grid # 6        5922      388638
  grid # 7       15206      969222
  grid # 8         786       49470
  grid # 9         420       27840
   
  end of program grid
   
 Time(grid)  user:     216.032  user+sys:     216.032  wallclock:     111.114
  
  start of program rwr
  
  end of program rwr
   
 Time(rwr)  user:      15.802  user+sys:      15.802  wallclock:      19.925
  
  start of program scf
  
 number of electrons..........        244
 number of alpha electrons....        122
 number of beta electrons.....        122
 number of orbitals, total....        514
 number of doubly-occ'd orbs..        122
 number of open shell orbs....          0
 number of occupied orbitals..        122
 number of virtual orbitals...        392
 number of hamiltonians.......          1
 number of shells.............          1
 SCF type: DFT=Becke_3_Parameter/HF+Slater+Becke88+PW91+PW-GGAIIC (B3PW91-D3)
 Energy computed using pseudospectral method.
 Convergence Criterion:
    Energy (econv):       1.00E-05
    RMS density (dconv):  5.00E-06
  
       i  u  d  i  g                   
       t  p  i  c  r                                 RMS    maximum
       e  d  i  u  i                       energy  density   DIIS  
       r  t  s  t  d       total energy    change  change    error 
  
etot    1  N  N  5  M   -1625.62725953549           2.4E-03  2.2E-01
etot    2  Y  Y  6  M   -1628.20062972879  2.6E+00  3.5E-03  1.6E-01
etot    3  Y  Y  6  M   -1628.59052477570  3.9E-01  1.9E-03  4.8E-02
etot    4  N  Y  2  U   -1629.14155946224  5.5E-01  1.2E-03  2.3E-02
etot    5  Y  Y  6  M   -1629.23469959041  9.3E-02  6.2E-04  1.3E-02
etot    6  N  Y  2  U   -1629.24085407612  6.2E-03  3.9E-04  8.6E-03
etot    7  Y  Y  6  M   -1629.24357767517  2.7E-03  1.3E-04  3.9E-03
etot    8  Y  Y  6  M   -1629.24629289640  2.7E-03  3.3E-05  7.1E-04
etot    9  N  Y  2  U   -1629.24720977202  9.2E-04  1.1E-05  2.3E-04
etot   10  N  Y  2  U   -1629.24721979952  1.0E-05  5.5E-06  1.1E-04
etot   11  N  Y  2  U   -1629.24722260588  2.8E-06  1.9E-06  2.9E-05
etot   12  N  N  2  U   -1629.24722311242  5.1E-07  0.0E+00  0.0E+00
 
  Computing the dispersion energy correction and its gradients...
  
  
 Energy components, in hartrees:
   (A)  Nuclear repulsion............    3828.94719560482
   (E)  Total one-electron terms.....   -9901.82220693885
   (F)    Electron-nuclear...........  -11433.45805701043
   (H)    Kinetic....................    1531.63585007158
   (I)  Total two-electron terms.....    4443.62778822160
   (J)    Coulomb....................    4651.21571035410
   (K)    Exchange+Correlation.......    -207.58792213250
   (L)  Electronic energy............   -5458.19441871725  (E+I)
   (N0) D3 correction................      -0.11821869395
   (N)  Total energy.................   -1629.36544180637  (A+L+N0)
   (O)  Gas phase energy.............   -1629.36544180637
  
 SCFE: SCF energy: DFT(b3pw91-d3)     -1629.36544180637 hartrees   iterations:  12
  
 
 HOMO energy:    -0.16720
 LUMO energy:    -0.03782
 
  Orbital energies (hartrees): 
   -77.07087   -24.67590   -10.26014   -10.22296   -10.20831   -10.20650
   -10.20316   -10.20201   -10.18897   -10.18627   -10.18528   -10.18170
   -10.18144   -10.18080   -10.18054   -10.18012   -10.17965   -10.17383
   -10.17065   -10.16995   -10.16871   -10.16844   -10.16823   -10.16724
   -10.16411   -10.16266   -10.16191   -10.16008   -10.13389    -6.56996
    -4.72823    -4.72788    -4.72417    -3.26589    -2.00463    -1.98536
    -1.97769    -1.20443    -0.88504    -0.87066    -0.85451    -0.82576
    -0.80993    -0.80861    -0.79957    -0.76199    -0.76124    -0.75578
    -0.73668    -0.72348    -0.69159    -0.68908    -0.68239    -0.68107
    -0.67897    -0.65297    -0.63291    -0.62574    -0.60598    -0.60157
    -0.58901    -0.57930    -0.55856    -0.53910    -0.53411    -0.51085
    -0.50117    -0.48735    -0.47980    -0.47741    -0.47245    -0.46648
    -0.46023    -0.45847    -0.45327    -0.44837    -0.44433    -0.44142
    -0.43950    -0.43646    -0.42994    -0.42675    -0.41992    -0.41511
    -0.40409    -0.40130    -0.39788    -0.39288    -0.39004    -0.38436
    -0.38387    -0.37806    -0.37418    -0.37133    -0.36738    -0.36482
    -0.36223    -0.35864    -0.35674    -0.34638    -0.33902    -0.33734
    -0.33442    -0.32792    -0.32467    -0.32296    -0.31600    -0.31109
    -0.30185    -0.28635    -0.27795    -0.26240    -0.26067    -0.25031
    -0.24126    -0.23195    -0.22098    -0.20999    -0.20153    -0.19984
    -0.18423    -0.16720    -0.03782    -0.02853    -0.02138    -0.00885
    -0.00792     0.00129     0.01217     0.03247     0.04080     0.04276
 
  end of program scf
   
 Time(scf)  user:     376.752  user+sys:     376.752  wallclock:     203.790
  
  start of program der1a
  
  end of program der1a
   
 Time(der1a)  user:      19.752  user+sys:      19.752  wallclock:      10.824
  
  start of program rwr
  
  end of program rwr
   
 Time(rwr)  user:      16.595  user+sys:      16.595  wallclock:      21.258
  
  start of program der1b
  
   
  forces (hartrees/bohr) : total     
   
 atom  label           x              y              z
 ---- --------   -------------  -------------  -------------
    1 P1          9.976581E-03   1.585215E-02   3.866802E-02
    2 Pd2         2.085109E-04   6.852110E-03  -1.109940E-02
    3 Br3        -4.137019E-02  -1.307946E-02   1.040487E-01
    4 C4         -1.823044E-03   3.039948E-03   5.620169E-03
    5 C5         -6.324667E-04   8.288309E-04   4.216857E-03
    6 C6          1.794047E-03   3.003246E-04  -1.459507E-03
    7 C7         -6.843185E-03  -7.759220E-04   1.975971E-03
    8 C8         -3.879247E-02  -1.888375E-02   4.248058E-02
    9 C9         -3.206228E-03  -5.830647E-03   2.822009E-03
   10 F10         4.614557E-03  -2.185235E-03  -1.213853E-03
   11 H11         9.599739E-04   7.188028E-04  -5.099671E-04
   12 H12         3.011199E-04   6.292119E-04  -1.942471E-04
   13 H13        -4.520693E-02  -2.216692E-02   4.305655E-02
   14 H14        -1.950213E-04  -5.880968E-04   9.837086E-04
   15 C15        -1.522980E-02  -7.005294E-03  -1.655790E-02
   16 C16        -5.413772E-03   1.860784E-02  -3.212455E-02
   17 C17        -1.231880E-02  -2.854770E-02  -1.585833E-02
   18 C18        -1.250288E-02   4.108165E-02   4.822948E-02
   19 C19         1.053664E-02  -1.333853E-03   1.726232E-02
   20 C20         4.750544E-02   1.400579E-02  -4.401305E-02
   21 C21         3.374345E-02   3.541190E-02  -5.796789E-02
   22 C22         1.021483E-02   5.293083E-03   8.168801E-03
   23 C23        -5.763635E-03   7.090931E-03  -8.720145E-03
   24 C24         1.069699E-03  -3.765463E-02  -3.408063E-02
   25 C25         1.501229E-02  -1.650064E-03  -6.937820E-03
   26 C26        -5.195880E-03  -1.700982E-03  -2.370942E-03
   27 C27         3.072548E-03  -4.331194E-04   1.526516E-03
   28 C28         3.537061E-03  -7.862281E-03  -1.281945E-02
   29 C29        -1.219899E-02  -9.606907E-03   8.997783E-03
   30 C30         6.784457E-03   4.634518E-03   1.317996E-02
   31 C31         7.237825E-03  -5.686762E-03  -1.376156E-02
   32 C32         1.739599E-02  -3.172932E-03   5.278780E-03
   33 C33        -4.298016E-03   2.332925E-03  -1.399499E-02
   34 C34        -1.147627E-02   9.739214E-03   1.038566E-02
   35 C35         1.607589E-02  -1.573622E-02  -2.672024E-02
   36 H36        -1.633668E-03   5.624747E-03  -2.095458E-02
   37 H37         3.934701E-03  -2.192569E-03  -9.634210E-03
   38 H38         4.398699E-03  -1.062181E-02  -1.044682E-03
   39 H39         5.095873E-03  -6.497806E-03  -7.414508E-04
   40 H40        -5.653391E-03   5.520346E-03   1.363016E-02
   41 H41        -8.121000E-03   3.885628E-03   7.802525E-03
   42 H42        -2.435018E-03   5.579898E-03   9.314246E-03
   43 H43         9.586113E-04   5.531621E-03   5.969347E-03
   44 H44         5.927189E-03  -2.997681E-03  -4.016749E-03
   45 H45         1.016036E-02  -6.118004E-03   4.069109E-03
   46 H46         4.958974E-03   5.955397E-03   3.740899E-03
   47 H47         6.511514E-03  -4.741510E-03  -7.149100E-03
   48 H48        -1.786487E-02  -3.062283E-03  -9.752783E-05
   49 H49         9.664482E-04  -1.250229E-02   1.407325E-03
   50 H50         3.295109E-03   8.097692E-03   4.131761E-03
   51 H51         1.826025E-03  -5.575940E-03   9.101809E-03
   52 H52        -1.073827E-02  -2.449809E-03   2.055002E-03
   53 H53        -8.667183E-03  -4.966013E-04   5.649191E-03
   54 H54         1.375654E-03   4.924249E-03  -8.021957E-03
   55 H55        -1.250955E-04   1.232160E-02  -6.603185E-04
   56 H56        -3.704388E-03   3.759285E-03   6.870572E-03
   57 H57         6.284623E-03   7.529260E-03   5.722917E-03
   58 H58         7.312038E-03  -4.196336E-03   3.172467E-03
   59 H59        -4.470910E-05   3.290791E-03  -9.534116E-03
   60 H60         6.603863E-03  -7.236258E-03   2.906355E-03
   61 H61         8.450547E-03   6.901827E-03  -5.061661E-03
   62 H62        -1.254607E-02  -4.845821E-03  -7.102534E-03
   63 H63         9.997752E-03   7.621822E-03  -8.031158E-03
   64 H64         1.352447E-02   5.130042E-03  -6.013032E-02
 -------------   -------------  -------------  -------------
     total       -2.377893E-03   6.579767E-04  -1.392966E-04
   
  end of program der1b
   
 Time(der1b)  user:     124.837  user+sys:     124.837  wallclock:      66.790
  
  start of program geopt
  
 ----------------------------------------------------------------------------
  Geometry optimization step  1
  Total energy:     -1629.36544180637 hartrees
 ----------------------------------------------------------------------------
  
  
  Level shifts adjusted to satisfy step-size constraints
   Step size:    0.3008321
   Cos(theta):   0.4498147
   Final level shift:  -5.4620597E-01
  
  gradient maximum:        1.1797E+00 .  (  2.2500E-03 )
  gradient rms:            1.7191E-01 .  (  1.5000E-03 )
  displacement maximum:    8.3783E-02 .  (  9.0000E-03 )
  displacement rms:        1.9885E-02 .  (  6.0000E-03 )
  
  predicted energy change:  -1.9507E-01
  step size:     0.29361
  trust radius:  0.30000
  
  molecular structure not yet converged...
  
  center of mass moved by:
     x:    -1.4066E-01     y:    -2.7851E-02     z:     1.5574E-01
  
  new geometry: 
                                   angstroms
  atom               x                 y                 z
  P1            0.0466926623      0.0835939701     -0.0063198980 
  Pd2          -0.0193861392      0.0802467500      2.3252924486 
  Br3           3.5332303833     -0.2704296875      5.8414842106 
  C4           -0.5124420588      1.4267833306      3.9922327746 
  C5           -0.4144243679      0.0809505911      4.4383391495 
  C6            0.8308583249     -0.3730879468      4.9479346847 
  C7            1.9064314775      0.4857049089      5.0323046792 
  C8            1.7945587753      1.8357845000      4.6256064694 
  C9            0.5871244650      2.3017240907      4.1205581600 
  F10          -1.7601761067      1.9473258830      3.8381343076 
  H11          -1.3134752590     -0.5078372395      4.6113063371 
  H12           0.9207971924     -1.3980688589      5.2932242167 
  H13           2.6427569529      2.5207559571      4.6053526447 
  H14           0.4632820464      3.3412953147      3.8339250399 
  C15           1.8316261515      0.0475297494     -0.6562242088 
  C16          -0.8460234893      1.4313519300     -1.0318843480 
  C17          -0.7187711662     -1.6170494252     -0.4279230358 
  C18           3.2635513463      1.4872168615      1.0035272974 
  C19           4.0182928086      1.1621082752      2.1608478668 
  C20           4.2156166090      2.1104291098      3.1750140964 
  C21           3.7052739681      3.4014289901      3.1401817068 
  C22           2.9664442557      3.7542863347      2.0166793548 
  C23           2.7750084817      2.8035629234      1.0052427105 
  C24           3.0514525116      0.6168104501     -0.1493437050 
  C25           4.2146105202      0.3020431205     -0.8798334017 
  C26           4.2599052229     -0.4850229179     -2.0305547831 
  C27           3.0729005146     -1.0114071323     -2.5261703838 
  C28           1.8998635947     -0.7277235190     -1.8300564873 
  C29          -2.3848206524      1.3197134603     -1.0104968977 
  C30          -0.4868224989      2.8605929395     -0.5838092799 
  C31          -0.4011162091      1.3322322433     -2.5130139075 
  C32           0.2543004041     -2.7427091311     -0.0132413668 
  C33          -1.1566830803     -1.8910930625     -1.8882787917 
  C34          -1.9848059565     -1.7637604601      0.4475726154 
  C35           4.5834393137     -0.1989824471      2.4655628646 
  H36           4.8020577289      1.8428935903      4.0574334218 
  H37           3.8892073433      4.1200787031      3.9494679809 
  H38           2.5381419949      4.7592183496      1.9194860808 
  H39           2.2227425870      3.1529349384      0.1451947510 
  H40           5.1798771201      0.7168342943     -0.5928421856 
  H41           5.2103572440     -0.6745165630     -2.5448831207 
  H42           3.0556938558     -1.6288397442     -3.4325899554 
  H43           0.9922038756     -1.1609241763     -2.2463747294 
  H44          -2.8079062293      1.4465168455      0.0012146742 
  H45          -2.8438679871      2.1068144841     -1.6401556407 
  H46          -2.7536512240      0.3585533473     -1.4059367582 
  H47          -0.7994375497      3.0593891295      0.4587718100 
  H48           0.5923732658      3.0608740497     -0.6905010821 
  H49          -1.0017282063      3.6132282360     -1.2129373768 
  H50          -0.6329859760      0.3499454619     -2.9614973452 
  H51          -0.9067801107      2.0925815986     -3.1409020359 
  H52           0.6864354955      1.5009992456     -2.6263626908 
  H53           1.2478716059     -2.6375989945     -0.4869377781 
  H54           0.4048525571     -2.7689463883      1.0816508234 
  H55          -0.1403300937     -3.7379534947     -0.2967687659 
  H56          -0.3200322677     -1.9510631521     -2.6064662484 
  H57          -1.6710337185     -2.8696790018     -1.9627577725 
  H58          -1.8762893301     -1.1476221261     -2.2693006903 
  H59          -1.7455084380     -1.6998163861      1.5267149545 
  H60          -2.7379372088     -0.9853633840      0.2288169808 
  H61          -2.4720947601     -2.7457419370      0.2858882620 
  H62           5.5867500857     -0.3432208145      2.0167230462 
  H63           3.8849865405     -1.0102456178      2.1807954749 
  H64           4.6753897089     -0.3054486099      3.5732215885 
   
 
  bond lengths (angstroms):
 
 P1      -Pd2     :   2.332551      P1      -C15     :   1.899912
 P1      -C16     :   1.914465      P1      -C17     :   1.912033
 Pd2     -C4      :   2.198853      Pd2     -C5      :   2.149656
 Br3     -C7      :   1.967990      C4      -C5      :   1.421226
 C4      -C9      :   1.411040      C4      -F10     :   1.360717
 C5      -C6      :   1.420059      C5      -H11     :   1.088523
 C6      -C7      :   1.378949      C6      -H12     :   1.085311
 C7      -C8      :   1.414438      C8      -C9      :   1.389270
 C8      -H13     :   1.090429      C9      -H14     :   1.085451
 C15     -C24     :   1.438397      C15     -C28     :   1.408388
 C16     -C29     :   1.542990      C16     -C30     :   1.540301
 C16     -C31     :   1.549681      C17     -C32     :   1.544648
 C17     -C33     :   1.549034      C17     -C34     :   1.546241
 C18     -C19     :   1.419409      C18     -C23     :   1.404081
 C18     -C24     :   1.460036      C19     -C20     :   1.402420
 C19     -C35     :   1.504928      C20     -C21     :   1.388648
 C20     -H36     :   1.092773      C21     -C22     :   1.390192
 C21     -H37     :   1.097831      C22     -C23     :   1.401259
 C22     -H38     :   1.096712      C23     -H39     :   1.080158
 C24     -C25     :   1.409124      C25     -C26     :   1.394878
 C25     -H40     :   1.089108      C26     -C27     :   1.389854
 C26     -H41     :   1.097178      C27     -C28     :   1.393222
 C27     -H42     :   1.096866      C28     -H43     :   1.088499
 C29     -H44     :   1.103921      C29     -H45     :   1.107575
 C29     -H46     :   1.102832      C30     -H47     :   1.106446
 C30     -H48     :   1.102796      C30     -H49     :   1.107876
 C31     -H50     :   1.104440      C31     -H51     :   1.108183
 C31     -H52     :   1.106390      C32     -H53     :   1.105722
 C32     -H54     :   1.105506      C32     -H55     :   1.107534
 C33     -H56     :   1.104253      C33     -H57     :   1.108032
 C33     -H58     :   1.102615      C34     -H59     :   1.107204
 C34     -H60     :   1.104972      C34     -H61     :   1.108097
 C35     -H62     :   1.108555      C35     -H63     :   1.107735
 C35     -H64     :   1.116556
 
  bond angles:
 
 C15     -P1      -Pd2     : 111.624404  C16     -P1      -Pd2     : 121.552345
 C16     -P1      -C15     : 105.557158  C17     -P1      -Pd2     : 101.993081
 C17     -P1      -C15     : 106.487285  C17     -P1      -C16     : 108.744985
 C4      -Pd2     -P1      : 139.752783  C5      -Pd2     -P1      : 171.033466
 C5      -Pd2     -C4      :  38.131832  C5      -C4      -Pd2     :  69.059211
 C9      -C4      -Pd2     : 105.898031  C9      -C4      -C5      : 120.323714
 F10     -C4      -Pd2     : 110.733915  F10     -C4      -C5      : 117.454514
 F10     -C4      -C9      : 119.186112  C4      -C5      -Pd2     :  72.808956
 C6      -C5      -Pd2     : 101.039666  C6      -C5      -C4      : 118.417323
 H11     -C5      -Pd2     : 107.926606  H11     -C5      -C4      : 120.339730
 H11     -C5      -C6      : 119.624651  C7      -C6      -C5      : 120.452672
 H12     -C6      -C5      : 119.261607  H12     -C6      -C7      : 120.269323
 C6      -C7      -Br3     : 115.508081  C8      -C7      -Br3     : 123.390390
 C8      -C7      -C6      : 121.008520  C9      -C8      -C7      : 119.563900
 H13     -C8      -C7      : 122.915527  H13     -C8      -C9      : 117.297894
 C8      -C9      -C4      : 120.156627  H14     -C9      -C4      : 118.746510
 H14     -C9      -C8      : 121.088833  C24     -C15     -P1      : 131.964371
 C28     -C15     -P1      : 109.942023  C28     -C15     -C24     : 118.064937
 C29     -C16     -P1      : 113.996036  C30     -C16     -P1      : 112.870636
 C30     -C16     -C29     : 107.197795  C31     -C16     -P1      : 109.456714
 C31     -C16     -C29     : 107.153703  C31     -C16     -C30     : 105.689913
 C32     -C17     -P1      : 109.681040  C33     -C17     -P1      : 118.581386
 C33     -C17     -C32     : 107.593424  C34     -C17     -P1      : 106.698465
 C34     -C17     -C32     : 107.136604  C34     -C17     -C33     : 106.591096
 C23     -C18     -C19     : 113.500022  C24     -C18     -C19     : 125.768830
 C24     -C18     -C23     : 120.618668  C20     -C19     -C18     : 120.634618
 C35     -C19     -C18     : 124.884597  C35     -C19     -C20     : 114.350165
 C21     -C20     -C19     : 123.973146  H36     -C20     -C19     : 119.597857
 H36     -C20     -C21     : 116.428981  C22     -C21     -C20     : 116.843753
 H37     -C21     -C20     : 121.905022  H37     -C21     -C22     : 121.241203
 C23     -C22     -C21     : 118.929452  H38     -C22     -C21     : 120.780548
 H38     -C22     -C23     : 120.289995  C22     -C23     -C18     : 126.116530
 H39     -C23     -C18     : 118.695852  H39     -C23     -C22     : 115.158168
 C18     -C24     -C15     : 129.597743  C25     -C24     -C15     : 115.399663
 C25     -C24     -C18     : 114.998423  C26     -C25     -C24     : 125.486167
 H40     -C25     -C24     : 120.657758  H40     -C25     -C26     : 113.797477
 C27     -C26     -C25     : 118.694988  H41     -C26     -C25     : 120.817320
 H41     -C26     -C27     : 120.481725  C28     -C27     -C26     : 117.631853
 H42     -C27     -C26     : 121.417429  H42     -C27     -C28     : 120.950717
 C27     -C28     -C15     : 124.701933  H43     -C28     -C15     : 119.830858
 H43     -C28     -C27     : 115.464121  H44     -C29     -C16     : 112.743621
 H45     -C29     -C16     : 110.734511  H45     -C29     -H44     : 106.292456
 H46     -C29     -C16     : 113.055236  H46     -C29     -H44     : 107.490709
 H46     -C29     -H45     : 106.075398  H47     -C30     -C16     : 112.020436
 H48     -C30     -C16     : 111.628372  H48     -C30     -H47     : 109.574069
 H49     -C30     -C16     : 110.903086  H49     -C30     -H47     : 106.362632
 H49     -C30     -H48     : 106.051694  H50     -C31     -C16     : 112.626559
 H51     -C31     -C16     : 111.508626  H51     -C31     -H50     : 106.520642
 H52     -C31     -C16     : 111.738336  H52     -C31     -H50     : 107.483675
 H52     -C31     -H51     : 106.608080  H53     -C32     -C17     : 112.444087
 H54     -C32     -C17     : 111.652259  H54     -C32     -H53     : 107.708639
 H55     -C32     -C17     : 111.202854  H55     -C32     -H53     : 107.213053
 H55     -C32     -H54     : 106.304271  H56     -C33     -C17     : 114.114856
 H57     -C33     -C17     : 110.538955  H57     -C33     -H56     : 105.071706
 H58     -C33     -C17     : 113.016187  H58     -C33     -H56     : 107.839341
 H58     -C33     -H57     : 105.624060  H59     -C34     -C17     : 111.679696
 H60     -C34     -C17     : 112.280085  H60     -C34     -H59     : 107.432485
 H61     -C34     -C17     : 111.194113  H61     -C34     -H59     : 106.764353
 H61     -C34     -H60     : 107.197058  H62     -C35     -C19     : 112.059876
 H63     -C35     -C19     : 111.933640  H63     -C35     -H62     : 111.795013
 H64     -C35     -C19     : 108.543762  H64     -C35     -H62     : 108.343955
 H64     -C35     -H63     : 103.716362
 
  torsional angles:
 
 P1      -Pd2     -C4      -C5      : 166.186008
 P1      -Pd2     -C4      -C9      : -76.871520
 P1      -Pd2     -C4      -F10     :  53.667990
 P1      -Pd2     -C5      -C4      : -81.806360
 P1      -Pd2     -C5      -C6      : 161.630916
 P1      -Pd2     -C5      -H11     :  35.299898
 P1      -C15     -C24     -C18     :  -4.535013
 P1      -C15     -C24     -C25     : 176.253879
 P1      -C15     -C28     -C27     :-176.784431
 P1      -C15     -C28     -H43     :   2.546307
 P1      -C16     -C29     -H44     :  62.534346
 P1      -C16     -C29     -H45     :-178.521786
 P1      -C16     -C29     -H46     : -59.646878
 P1      -C16     -C30     -H47     : -62.662796
 P1      -C16     -C30     -H48     :  60.643912
 P1      -C16     -C30     -H49     : 178.667532
 P1      -C16     -C31     -H50     :  59.719387
 P1      -C16     -C31     -H51     : 179.414699
 P1      -C16     -C31     -H52     : -61.384716
 P1      -C17     -C32     -H53     : -56.652126
 P1      -C17     -C32     -H54     :  64.550910
 P1      -C17     -C32     -H55     :-176.895202
 P1      -C17     -C33     -H56     :  67.472997
 P1      -C17     -C33     -H57     :-174.366748
 P1      -C17     -C33     -H58     : -56.225934
 P1      -C17     -C34     -H59     : -58.960419
 P1      -C17     -C34     -H60     :  61.788560
 P1      -C17     -C34     -H61     :-178.107794
 Pd2     -P1      -C15     -C24     : -33.848180
 Pd2     -P1      -C15     -C28     : 144.115313
 Pd2     -P1      -C16     -C29     : -70.878903
 Pd2     -P1      -C16     -C30     :  51.738378
 Pd2     -P1      -C16     -C31     : 169.144479
 Pd2     -P1      -C17     -C32     : -69.567395
 Pd2     -P1      -C17     -C33     : 166.347530
 Pd2     -P1      -C17     -C34     :  46.154744
 Pd2     -C4      -C5      -C6      :  93.468663
 Pd2     -C4      -C5      -H11     :-101.083844
 Pd2     -C4      -C9      -C8      : -71.614813
 Pd2     -C4      -C9      -H14     : 109.404744
 Pd2     -C5      -C4      -C9      : -96.658637
 Pd2     -C5      -C4      -F10     : 103.200031
 Pd2     -C5      -C6      -C7      :  77.713910
 Pd2     -C5      -C6      -H12     :-103.755056
 Br3     -C7      -C6      -C5      : 177.108092
 Br3     -C7      -C6      -H12     :  -1.408088
 Br3     -C7      -C8      -C9      :-176.992816
 Br3     -C7      -C8      -H13     :   8.579257
 C4      -Pd2     -P1      -C15     : 109.484002
 C4      -Pd2     -P1      -C16     : -16.106018
 C4      -Pd2     -P1      -C17     :-137.168108
 C4      -Pd2     -C5      -C6      :-116.562724
 C4      -Pd2     -C5      -H11     : 117.106258
 C4      -C5      -C6      -C7      :   1.412924
 C4      -C5      -C6      -H12     : 179.943958
 C4      -C9      -C8      -C7      :  -1.135688
 C4      -C9      -C8      -H13     : 173.601395
 C5      -Pd2     -P1      -C15     :-179.438848
 C5      -Pd2     -P1      -C16     :  54.971132
 C5      -Pd2     -P1      -C17     : -66.090959
 C5      -Pd2     -C4      -C9      : 116.942471
 C5      -Pd2     -C4      -F10     :-112.518019
 C5      -C4      -C9      -C8      :   3.082168
 C5      -C4      -C9      -H14     :-175.898274
 C5      -C6      -C7      -C8      :   0.499410
 C6      -C5      -C4      -C9      :  -3.189974
 C6      -C5      -C4      -F10     :-163.331306
 C6      -C7      -C8      -C9      :  -0.659006
 C6      -C7      -C8      -H13     :-175.086933
 C7      -C6      -C5      -H11     :-164.141258
 C7      -C8      -C9      -H14     : 177.820478
 C8      -C7      -C6      -H12     :-178.016770
 C8      -C9      -C4      -F10     : 162.883303
 C9      -C4      -C5      -H11     : 162.257519
 F10     -C4      -C5      -H11     :   2.116186
 F10     -C4      -C9      -H14     : -16.097140
 H11     -C5      -C6      -H12     :  14.389776
 H13     -C8      -C9      -H14     :  -7.442438
 C15     -P1      -C16     -C29     : 160.815709
 C15     -P1      -C16     -C30     : -76.567010
 C15     -P1      -C16     -C31     :  40.839091
 C15     -P1      -C17     -C32     :  47.547235
 C15     -P1      -C17     -C33     : -76.537839
 C15     -P1      -C17     -C34     : 163.269374
 C15     -C24     -C18     -C19     : 116.098802
 C15     -C24     -C18     -C23     : -68.015583
 C15     -C24     -C25     -C26     :   0.738890
 C15     -C24     -C25     -H40     : 177.777235
 C15     -C28     -C27     -C26     :  -0.385532
 C15     -C28     -C27     -H42     : 179.602189
 C16     -P1      -C15     -C24     : 100.152272
 C16     -P1      -C15     -C28     : -81.884235
 C16     -P1      -C17     -C32     : 160.863545
 C16     -P1      -C17     -C33     :  36.778471
 C16     -P1      -C17     -C34     : -83.414315
 C17     -P1      -C15     -C24     :-144.362393
 C17     -P1      -C15     -C28     :  33.601100
 C17     -P1      -C16     -C29     :  46.888654
 C17     -P1      -C16     -C30     : 169.505935
 C17     -P1      -C16     -C31     : -73.087964
 C18     -C19     -C20     -C21     :   0.228198
 C18     -C19     -C20     -H36     :-179.820084
 C18     -C19     -C35     -H62     :  87.446002
 C18     -C19     -C35     -H63     : -39.070805
 C18     -C19     -C35     -H64     :-152.942692
 C18     -C23     -C22     -C21     :   0.090370
 C18     -C23     -C22     -H38     :-179.885395
 C18     -C24     -C15     -C28     : 177.634543
 C18     -C24     -C25     -C26     :-178.590413
 C18     -C24     -C25     -H40     :  -1.552067
 C19     -C18     -C23     -C22     :  -0.379420
 C19     -C18     -C23     -H39     : 177.544368
 C19     -C18     -C24     -C25     : -64.687495
 C19     -C20     -C21     -C22     :  -0.526379
 C19     -C20     -C21     -H37     :-179.387869
 C20     -C19     -C18     -C23     :   0.217361
 C20     -C19     -C18     -C24     : 176.356787
 C20     -C19     -C35     -H62     : -96.704797
 C20     -C19     -C35     -H63     : 136.778396
 C20     -C19     -C35     -H64     :  22.906510
 C20     -C21     -C22     -C23     :   0.362469
 C20     -C21     -C22     -H38     :-179.661889
 C21     -C20     -C19     -C35     :-175.814903
 C21     -C22     -C23     -H39     :-177.897572
 C22     -C21     -C20     -H36     : 179.520503
 C22     -C23     -C18     -C24     :-176.739839
 C23     -C18     -C19     -C35     : 175.821958
 C23     -C18     -C24     -C25     : 111.198120
 C23     -C22     -C21     -H37     : 179.232037
 C24     -C15     -C28     -C27     :   1.499626
 C24     -C15     -C28     -H43     :-179.169636
 C24     -C18     -C19     -C35     :  -8.038616
 C24     -C18     -C23     -H39     :   1.183949
 C24     -C25     -C26     -C27     :   0.353670
 C24     -C25     -C26     -H41     : 179.469228
 C25     -C24     -C15     -C28     :  -1.576564
 C25     -C26     -C27     -C28     :  -0.549588
 C25     -C26     -C27     -H42     : 179.462752
 C26     -C27     -C28     -H43     :-179.742480
 C27     -C26     -C25     -H40     :-176.862035
 C28     -C27     -C26     -H41     :-179.668211
 C29     -C16     -C30     -H47     :  63.677835
 C29     -C16     -C30     -H48     :-173.015458
 C29     -C16     -C30     -H49     : -54.991837
 C29     -C16     -C31     -H50     : -64.365789
 C29     -C16     -C31     -H51     :  55.329522
 C29     -C16     -C31     -H52     : 174.530107
 C30     -C16     -C29     -H44     : -63.135020
 C30     -C16     -C29     -H45     :  55.808848
 C30     -C16     -C29     -H46     : 174.683756
 C30     -C16     -C31     -H50     :-178.452300
 C30     -C16     -C31     -H51     : -58.756989
 C30     -C16     -C31     -H52     :  60.443597
 C31     -C16     -C29     -H44     :-176.201688
 C31     -C16     -C29     -H45     : -57.257821
 C31     -C16     -C29     -H46     :  61.617087
 C31     -C16     -C30     -H47     : 177.733839
 C31     -C16     -C30     -H48     : -58.959454
 C31     -C16     -C30     -H49     :  59.064167
 C32     -C17     -C33     -H56     : -57.632943
 C32     -C17     -C33     -H57     :  60.527312
 C32     -C17     -C33     -H58     : 178.668126
 C32     -C17     -C34     -H59     :  58.455301
 C32     -C17     -C34     -H60     : 179.204281
 C32     -C17     -C34     -H61     : -60.692074
 C33     -C17     -C32     -H53     :  73.621377
 C33     -C17     -C32     -H54     :-165.175587
 C33     -C17     -C32     -H55     : -46.621699
 C33     -C17     -C34     -H59     : 173.410618
 C33     -C17     -C34     -H60     : -65.840402
 C33     -C17     -C34     -H61     :  54.263243
 C34     -C17     -C32     -H53     :-172.095910
 C34     -C17     -C32     -H54     : -50.892875
 C34     -C17     -C32     -H55     :  67.661013
 C34     -C17     -C33     -H56     :-172.279109
 C34     -C17     -C33     -H57     : -54.118854
 C34     -C17     -C33     -H58     :  64.021960
 C35     -C19     -C20     -H36     :   4.136815
 H36     -C20     -C21     -H37     :   0.659013
 H37     -C21     -C22     -H38     :  -0.792321
 H38     -C22     -C23     -H39     :   2.126663
 H40     -C25     -C26     -H41     :   2.253523
 H41     -C26     -C27     -H42     :   0.344129
 H42     -C27     -C28     -H43     :   0.245241
 
  nuclear repulsion energy.......          3791.123087328 hartrees
 -------------------------------------------------
   end of geometry optimization iteration  1
 -------------------------------------------------
   
  end of program geopt
   
 Time(geopt)  user:       0.871  user+sys:       0.871  wallclock:       0.899
  
  start of program onee
  
  smallest eigenvalue of S:    3.640E-04
  number of canonical orbitals.....          514
  end of program onee
   
 Time(onee)  user:       5.844  user+sys:       5.844  wallclock:       4.483
  
  start of program probe
  
  end of program probe
   
 Time(probe)  user:       0.529  user+sys:       0.529  wallclock:       0.508
  
  start of program grid
  
  end of program grid
   
 Time(grid)  user:     217.931  user+sys:     217.931  wallclock:     111.898
  
  start of program rwr
  
  end of program rwr
   
 Time(rwr)  user:      14.927  user+sys:      14.927  wallclock:      19.046
  
  start of program scf
  
 Energy computed using pseudospectral method.
 Convergence Criterion:
    Energy (econv):       1.00E-05
    RMS density (dconv):  5.00E-06
  
       i  u  d  i  g                   
       t  p  i  c  r                                 RMS    maximum
       e  d  i  u  i                       energy  density   DIIS  
       r  t  s  t  d       total energy    change  change    error 
  
etot    1  N  N  2  U   -1629.28836186856           1.1E-03  3.0E-02
etot    2  Y  Y  6  M   -1629.39870547916  1.1E-01  2.6E-04  3.6E-03
etot    3  N  Y  2  U   -1629.39950204405  8.0E-04  1.4E-04  3.6E-03
etot    4  Y  Y  6  M   -1629.40330930867  3.8E-03  4.3E-05  1.1E-03
etot    5  N  Y  2  U   -1629.40356867362  2.6E-04  1.8E-05  7.1E-04
etot    6  N  Y  2  U   -1629.40361632204  4.8E-05  8.1E-06  3.4E-04
etot    7  N  Y  2  U   -1629.40362887055  1.3E-05  3.2E-06  7.5E-05
etot    8  N  N  2  U   -1629.40363034172  1.5E-06  0.0E+00  0.0E+00
 
  Computing the dispersion energy correction and its gradients...
  
  
 Energy components, in hartrees:
   (A)  Nuclear repulsion............    3791.12308732832
   (E)  Total one-electron terms.....   -9826.43658944254
   (F)    Electron-nuclear...........  -11357.93196563520
   (H)    Kinetic....................    1531.49537619266
   (I)  Total two-electron terms.....    4405.90987177250
   (J)    Coulomb....................    4613.47448963783
   (K)    Exchange+Correlation.......    -207.56461786534
   (L)  Electronic energy............   -5420.52671767004  (E+I)
   (N0) D3 correction................      -0.11628030225
   (N)  Total energy.................   -1629.51991064397  (A+L+N0)
   (O)  Gas phase energy.............   -1629.51991064397
  
 SCFE: SCF energy: DFT(b3pw91-d3)     -1629.51991064397 hartrees   iterations:   8
  
 
 HOMO energy:    -0.17389
 LUMO energy:    -0.03642
 
  Orbital energies (hartrees): 
   -77.06945   -24.67817   -10.26103   -10.22327   -10.20527   -10.20463
   -10.20175   -10.19942   -10.18715   -10.18517   -10.18238   -10.18172
   -10.18115   -10.17962   -10.17881   -10.17844   -10.17680   -10.17585
   -10.17180   -10.17057   -10.17017   -10.16963   -10.16616   -10.16490
   -10.16175   -10.16076   -10.16004   -10.15909   -10.14958    -6.56874
    -4.72704    -4.72649    -4.72305    -3.26875    -2.00736    -1.98832
    -1.98067    -1.20752    -0.87653    -0.87054    -0.85440    -0.82924
    -0.81104    -0.79333    -0.78853    -0.76580    -0.75981    -0.75721
    -0.73097    -0.71752    -0.69786    -0.69329    -0.68481    -0.68385
    -0.67808    -0.65312    -0.62688    -0.62272    -0.60635    -0.60017
    -0.58819    -0.57490    -0.55767    -0.53874    -0.53461    -0.51050
    -0.49528    -0.48719    -0.47502    -0.47299    -0.46927    -0.46621
    -0.46059    -0.45757    -0.45559    -0.45345    -0.44432    -0.44324
    -0.43910    -0.43385    -0.43061    -0.42466    -0.41499    -0.41045
    -0.40392    -0.40014    -0.39621    -0.39550    -0.38829    -0.38521
    -0.37976    -0.37581    -0.37280    -0.37165    -0.36788    -0.36509
    -0.36231    -0.35787    -0.35594    -0.34790    -0.34238    -0.33882
    -0.33678    -0.33239    -0.32857    -0.32470    -0.31538    -0.31092
    -0.30589    -0.29173    -0.28418    -0.26605    -0.26335    -0.25865
    -0.25024    -0.23793    -0.23776    -0.21440    -0.20677    -0.20339
    -0.18897    -0.17389    -0.03642    -0.02446    -0.02016    -0.00937
    -0.00400     0.00361     0.00507     0.03003     0.03928     0.05866
 
  end of program scf
   
 Time(scf)  user:     320.084  user+sys:     320.084  wallclock:     172.493
  
  start of program der1a
  
  end of program der1a
   
 Time(der1a)  user:      20.969  user+sys:      20.969  wallclock:      11.254
  
  start of program rwr
  
  end of program rwr
   
 Time(rwr)  user:      16.243  user+sys:      16.243  wallclock:      21.136
  
  start of program der1b
  
   
  forces (hartrees/bohr) : total     
   
 atom  label           x              y              z
 ---- --------   -------------  -------------  -------------
    1 P1          1.384660E-02   8.083435E-03   2.716608E-02
    2 Pd2        -2.811728E-04   6.538300E-03  -1.242293E-02
    3 Br3        -2.999579E-03   7.454131E-03   3.310962E-03
    4 C4         -4.321046E-03  -2.389162E-03   9.108422E-03
    5 C5          2.805686E-04  -2.000049E-03   3.779481E-03
    6 C6         -3.440297E-03  -4.833131E-03  -3.060073E-03
    7 C7         -3.211560E-03   9.396842E-03  -2.817577E-07
    8 C8         -1.434308E-03  -4.636306E-03   8.077766E-03
    9 C9         -7.857854E-04  -2.117391E-03   3.519347E-04
   10 F10         4.436113E-03   2.317989E-03  -2.267541E-03
   11 H11         3.545820E-05   9.469759E-04  -8.836709E-04
   12 H12        -1.257411E-03   3.367681E-04   6.587631E-04
   13 H13        -1.332219E-02  -1.103614E-02   1.344928E-02
   14 H14         1.450181E-03  -4.806937E-04  -1.048114E-03
   15 C15        -8.744796E-03   1.246038E-04  -1.014387E-02
   16 C16        -2.488736E-03   8.870829E-03  -2.621748E-02
   17 C17        -7.280100E-03  -1.620147E-02  -1.076990E-02
   18 C18        -4.846696E-03   2.879478E-02   3.562018E-02
   19 C19         8.460221E-04  -7.534932E-03   7.758035E-03
   20 C20         1.489171E-02   5.719219E-03  -2.970766E-03
   21 C21         7.586739E-03   9.775701E-03  -1.695665E-02
   22 C22        -4.160126E-05  -2.045803E-03  -3.801758E-04
   23 C23        -7.109891E-03   9.947823E-03  -7.275218E-03
   24 C24        -5.524160E-03  -2.461941E-02  -2.128184E-02
   25 C25         1.218648E-02  -1.535692E-04  -5.860100E-03
   26 C26        -2.673350E-03  -1.407623E-03  -1.962020E-03
   27 C27         1.582811E-03   3.486026E-04   1.917864E-03
   28 C28         5.669014E-03  -3.360692E-03  -8.977736E-03
[...]
    C7       X     0.00017   0.00186   0.00047  -0.00009   0.00163  -0.00001
    C7       Y     0.00013   0.00131  -0.00085  -0.00007  -0.00371  -0.00002
    C7       Z     0.00022   0.00217   0.00037  -0.00003   0.00122  -0.00000
    C8       X     0.00030  -0.00079   0.01451   0.00069   0.03926   0.00016
    C8       Y     0.00063   0.00038   0.02373   0.00067   0.05376   0.00021
    C8       Z     0.00035  -0.00056   0.01518   0.00063   0.04000   0.00016
    C9       X     0.00044   0.00125   0.01592  -0.00104  -0.00903  -0.00002
    C9       Y    -0.00187  -0.00393  -0.07417   0.00437   0.03255   0.00003
    C9       Z     0.00024   0.00087   0.00780  -0.00057  -0.00518  -0.00002
    F10      X     0.00002   0.00015  -0.00032   0.00004   0.00024  -0.00001
    F10      Y    -0.00002  -0.00013   0.00002  -0.00000   0.00002   0.00000
    F10      Z     0.00002   0.00010  -0.00022   0.00003   0.00019  -0.00001
    H11      X     0.02856   0.25966  -0.00353   0.00343   0.00680  -0.00026
    H11      Y     0.02488   0.22639  -0.00387   0.00319   0.00656  -0.00022
    H11      Z     0.00872   0.07947  -0.00182   0.00132   0.00199  -0.00005
    H12      X    -0.01009  -0.09759   0.00485  -0.00086  -0.00239  -0.00003
    H12      Y     0.08619   0.83979  -0.04396   0.00689   0.02047   0.00033
    H12      Z    -0.02435  -0.23745   0.01261  -0.00191  -0.00512  -0.00009
    H13      X    -0.00463   0.00298  -0.18912  -0.00617  -0.44484  -0.00170
    H13      Y    -0.00632   0.00307  -0.26159  -0.00767  -0.60353  -0.00232
    H13      Z    -0.00465   0.00262  -0.19250  -0.00563  -0.45200  -0.00174
    H14      X    -0.00505  -0.01133  -0.19979   0.01173   0.08764   0.00010
    H14      Y     0.02155   0.04685   0.84467  -0.04923  -0.35806  -0.00032
    H14      Z    -0.00272  -0.00598  -0.10418   0.00615   0.04639   0.00004
    C15      X    -0.00010  -0.00000  -0.00001   0.00002  -0.00001   0.00052
    C15      Y    -0.00011   0.00001  -0.00000  -0.00001  -0.00000  -0.00078
    C15      Z    -0.00017   0.00001  -0.00002  -0.00005  -0.00000  -0.00255
    C16      X     0.00001   0.00001  -0.00000  -0.00001   0.00000  -0.00004
    C16      Y     0.00003  -0.00002  -0.00001  -0.00001  -0.00001  -0.00002
    C16      Z    -0.00002  -0.00001  -0.00001   0.00002  -0.00001   0.00010
    C17      X    -0.00002  -0.00001  -0.00001  -0.00000   0.00000  -0.00020
    C17      Y    -0.00002   0.00000   0.00001   0.00000   0.00000   0.00001
    C17      Z     0.00000  -0.00003  -0.00001   0.00001  -0.00001   0.00010
    C18      X     0.00006   0.00001  -0.00000   0.00015   0.00001   0.00003
    C18      Y    -0.00150   0.00020   0.00010   0.00070  -0.00002   0.00000
    C18      Z    -0.00048   0.00006   0.00005   0.00048  -0.00001  -0.00005
    C19      X     0.00022  -0.00000   0.00000   0.00033  -0.00002  -0.00001
    C19      Y     0.00012  -0.00003   0.00005   0.00094  -0.00002   0.00003
    C19      Z     0.00063  -0.00011   0.00004   0.00109  -0.00004   0.00001
    C20      X    -0.00391   0.00087  -0.00042  -0.00960   0.00012  -0.00003
    C20      Y     0.00815  -0.00171   0.00089   0.02133  -0.00032   0.00007
    C20      Z    -0.00926   0.00201  -0.00098  -0.02236   0.00028  -0.00007
    C21      X    -0.00404   0.00046  -0.00053  -0.01834   0.00071  -0.00004
    C21      Y    -0.00768   0.00093  -0.00071  -0.02694   0.00095  -0.00006
    C21      Z    -0.01388   0.00159  -0.00177  -0.06105   0.00224  -0.00013
    C22      X     0.00012  -0.00002   0.00008   0.00165  -0.00005  -0.00000
    C22      Y     0.01784  -0.00207  -0.00265  -0.03307   0.00121  -0.00017
    C22      Z     0.00428  -0.00049  -0.00035  -0.00247   0.00008  -0.00003
    C23      X    -0.01197   0.00134   0.00085   0.00619  -0.00009   0.00008
    C23      Y     0.02496  -0.00279  -0.00171  -0.01148   0.00012  -0.00013
    C23      Z    -0.03327   0.00370   0.00239   0.01749  -0.00026   0.00022
    C24      X    -0.00124   0.00012   0.00000  -0.00002   0.00000  -0.00053
    C24      Y     0.00007  -0.00001  -0.00001  -0.00006   0.00000  -0.00030
    C24      Z     0.00104  -0.00009   0.00000   0.00006   0.00001  -0.00030
    C25      X     0.02869  -0.00269  -0.00012  -0.00040   0.00001  -0.00200
    C25      Y     0.01615  -0.00152  -0.00007  -0.00023   0.00001  -0.00119
    C25      Z     0.01708  -0.00161  -0.00008  -0.00030   0.00000  -0.00134
    C26      X     0.04119  -0.00396  -0.00013  -0.00044   0.00000  -0.00444
    C26      Y     0.00471  -0.00045  -0.00001  -0.00004   0.00000  -0.00098
    C26      Z    -0.02623   0.00251   0.00009   0.00030   0.00000   0.00160
    C27      X    -0.00145   0.00014   0.00001   0.00003   0.00001  -0.00271
    C27      Y    -0.00983   0.00096   0.00002   0.00004  -0.00001   0.00589
    C27      Z    -0.02487   0.00243   0.00005   0.00009  -0.00005   0.01816
    C28      X     0.00606  -0.00059  -0.00009  -0.00030  -0.00021   0.06534
    C28      Y     0.00365  -0.00036  -0.00005  -0.00015  -0.00011   0.03393
    C28      Z     0.00450  -0.00044  -0.00005  -0.00015  -0.00011   0.03334
    C29      X    -0.00001   0.00005  -0.00001   0.00001   0.00001   0.00005
    C29      Y     0.00004  -0.00000  -0.00006  -0.00001  -0.00001   0.00003
    C29      Z     0.00002   0.00011  -0.00004   0.00000   0.00000   0.00014
    C30      X     0.00114  -0.00012   0.00001  -0.00038   0.00002   0.00003
    C30      Y    -0.00007  -0.00001  -0.00001   0.00001  -0.00001  -0.00004
    C30      Z    -0.00044   0.00014  -0.00014   0.00019   0.00005   0.00012
    C31      X    -0.00013   0.00001   0.00001   0.00002   0.00001  -0.00124
    C31      Y     0.00018  -0.00002  -0.00004  -0.00002   0.00000   0.00009
    C31      Z     0.00008   0.00000  -0.00001  -0.00000   0.00000   0.00050
    C32      X    -0.00005   0.00002   0.00001   0.00005   0.00001  -0.00016
    C32      Y    -0.00005   0.00003   0.00001   0.00004   0.00001  -0.00002
    C32      Z     0.00009   0.00002  -0.00001  -0.00001  -0.00001   0.00037
    C33      X    -0.00071   0.00009   0.00002   0.00005   0.00002  -0.00290
    C33      Y     0.00001   0.00001  -0.00000  -0.00000   0.00000   0.00003
    C33      Z     0.00063  -0.00006  -0.00001  -0.00003  -0.00002   0.00310
    C34      X     0.00003   0.00032  -0.00001   0.00002   0.00001   0.00012
    C34      Y    -0.00003  -0.00012   0.00001  -0.00001  -0.00001   0.00002
    C34      Z     0.00004   0.00019  -0.00000  -0.00000  -0.00001   0.00014
    C35      X    -0.00008   0.00006   0.00002  -0.00011   0.00002  -0.00003
    C35      Y    -0.00006   0.00001   0.00002   0.00016   0.00001   0.00000
    C35      Z    -0.00057   0.00029   0.00002  -0.00037   0.00000  -0.00007
    H36      X     0.04402  -0.00977   0.00460   0.10685  -0.00133   0.00039
    H36      Y    -0.08626   0.01871  -0.00905  -0.21115   0.00277  -0.00073
    H36      Z     0.10713  -0.02343   0.01122   0.25881  -0.00335   0.00098
    H37      X     0.04883  -0.00551   0.00541   0.20233  -0.00792   0.00044
    H37      Y     0.07487  -0.00859   0.00829   0.30026  -0.01102   0.00064
    H37      Z     0.16513  -0.01889   0.01907   0.68140  -0.02528   0.00147
    H38      X     0.00548  -0.00062  -0.00087  -0.01243   0.00033  -0.00005
    H38      Y    -0.19825   0.02337   0.02872   0.35104  -0.01320   0.00192
    H38      Z    -0.02762   0.00323   0.00368   0.04150  -0.00140   0.00029
    H39      X     0.13652  -0.01522  -0.00951  -0.06661   0.00088  -0.00072
    H39      Y    -0.28911   0.03220   0.02012   0.13929  -0.00178   0.00153
    H39      Z     0.37283  -0.04155  -0.02619  -0.18266   0.00242  -0.00204
    H40      X    -0.32809   0.03082   0.00140   0.00462  -0.00016   0.02191
    H40      Y    -0.17606   0.01653   0.00073   0.00238  -0.00008   0.01191
    H40      Z    -0.17203   0.01616   0.00075   0.00254  -0.00007   0.01169
    H41      X    -0.45622   0.04382   0.00144   0.00500   0.00001   0.04022
    H41      Y    -0.05384   0.00518   0.00016   0.00056   0.00000   0.00534
    H41      Z     0.28614  -0.02748  -0.00092  -0.00322  -0.00002  -0.02347
    H42      X    -0.00495   0.00050   0.00001  -0.00002  -0.00002   0.00823
    H42      Y     0.10101  -0.00989  -0.00023  -0.00042   0.00016  -0.06604
    H42      Z     0.27403  -0.02685  -0.00062  -0.00110   0.00043  -0.18423
    H43      X    -0.08269   0.00815   0.00122   0.00331   0.00251  -0.75023
    H43      Y    -0.04385   0.00433   0.00064   0.00168   0.00132  -0.39115
    H43      Z    -0.04443   0.00439   0.00062   0.00161   0.00129  -0.38520
    H44      X    -0.00003   0.00007   0.00002   0.00003   0.00000   0.00011
    H44      Y     0.00001  -0.00006  -0.00013  -0.00002  -0.00006  -0.00002
    H44      Z    -0.00016  -0.00074   0.00034  -0.00001  -0.00009  -0.00219
    H45      X     0.00034  -0.00039  -0.00029  -0.00015  -0.00008  -0.00057
    H45      Y    -0.00040   0.00050   0.00033   0.00019   0.00009   0.00055
    H45      Z     0.00015  -0.00022  -0.00018  -0.00007  -0.00004  -0.00012
    H46      X    -0.00028  -0.00024   0.00032   0.00003  -0.00001  -0.00029
    H46      Y    -0.00039  -0.00047   0.00058   0.00003  -0.00001  -0.00053
    H46      Z    -0.00011  -0.00020   0.00025   0.00001   0.00002  -0.00011
    H47      X     0.00082  -0.00007   0.00013  -0.00028   0.00003   0.00000
    H47      Y     0.00017  -0.00019  -0.00002  -0.00011  -0.00003  -0.00022
    H47      Z     0.00074  -0.00101   0.00164  -0.00057  -0.00067  -0.00138
    H48      X    -0.01389   0.00167  -0.00009   0.00501  -0.00015   0.00039
    H48      Y    -0.00196   0.00021   0.00002   0.00076  -0.00002  -0.00003
    H48      Z     0.00545  -0.00060   0.00009  -0.00182   0.00010  -0.00000
    H49      X    -0.00174  -0.00016  -0.00005   0.00042  -0.00011  -0.00058
    H49      Y     0.00203   0.00021   0.00010  -0.00052   0.00016   0.00067
    H49      Z    -0.00132  -0.00012  -0.00013   0.00035  -0.00006  -0.00030
    H50      X    -0.00084   0.00009   0.00017   0.00008  -0.00002  -0.00124
    H50      Y    -0.00190   0.00018   0.00040   0.00015  -0.00006  -0.00348
    H50      Z    -0.00073   0.00009   0.00019   0.00007  -0.00002  -0.00089
    H51      X     0.00122  -0.00030  -0.00024  -0.00021  -0.00008   0.00382
    H51      Y    -0.00124   0.00032   0.00025   0.00022   0.00009  -0.00379
    H51      Z     0.00044  -0.00017  -0.00016  -0.00009  -0.00007   0.00072
    H52      X     0.00133   0.00001  -0.00007  -0.00014  -0.00011   0.01417
    H52      Y     0.00063  -0.00005  -0.00005  -0.00008  -0.00003   0.00402
    H52      Z    -0.00066  -0.00000   0.00004   0.00007   0.00007  -0.00654
    H53      X     0.00059  -0.00005  -0.00012  -0.00034  -0.00008   0.00281
    H53      Y    -0.00013   0.00003  -0.00000   0.00000   0.00000  -0.00018
    H53      Z    -0.00049   0.00004   0.00015   0.00045   0.00009  -0.00171
    H54      X    -0.00020  -0.00017   0.00001  -0.00005   0.00003  -0.00070
    H54      Y    -0.00011  -0.00005   0.00001  -0.00002   0.00001  -0.00031
    H54      Z    -0.00043  -0.00035  -0.00004  -0.00028   0.00003  -0.00225
    H55      X     0.00027  -0.00013  -0.00004  -0.00019  -0.00003   0.00015
    H55      Y     0.00060  -0.00035  -0.00009  -0.00042  -0.00012   0.00021
    H55      Z    -0.00004   0.00001   0.00000   0.00000   0.00000  -0.00002
    H56      X     0.00652  -0.00065  -0.00012  -0.00031  -0.00018   0.03461
    H56      Y     0.00139  -0.00013  -0.00002  -0.00006  -0.00003   0.00872
    H56      Z    -0.00869   0.00087   0.00017   0.00045   0.00025  -0.04457
    H57      X     0.00032  -0.00016  -0.00003  -0.00004  -0.00004   0.00049
    H57      Y     0.00140  -0.00050  -0.00009  -0.00016  -0.00013   0.00427
    H57      Z     0.00003  -0.00002  -0.00000   0.00001  -0.00002   0.00048
    H58      X     0.00276  -0.00038  -0.00016  -0.00031  -0.00008   0.00893
    H58      Y    -0.00212   0.00031   0.00011   0.00023   0.00007  -0.00727
    H58      Z     0.00057  -0.00007  -0.00003  -0.00006  -0.00002   0.00227
    H59      X    -0.00019  -0.00097  -0.00000   0.00004   0.00006  -0.00103
    H59      Y    -0.00012  -0.00059   0.00004   0.00001  -0.00002  -0.00026
    H59      Z    -0.00033  -0.00222   0.00006   0.00001   0.00004  -0.00163
    H60      X    -0.00019  -0.00259   0.00007  -0.00021  -0.00018   0.00012
    H60      Y     0.00012   0.00192  -0.00005   0.00017   0.00012   0.00003
    H60      Z    -0.00005  -0.00031   0.00003  -0.00002  -0.00003  -0.00008
    H61      X     0.00017   0.00002  -0.00002  -0.00004  -0.00002  -0.00020
    H61      Y     0.00043   0.00008  -0.00004  -0.00010  -0.00002  -0.00038
    H61      Z    -0.00001   0.00008   0.00000   0.00001   0.00002  -0.00001
    H62      X    -0.00059  -0.00013   0.00001   0.00190  -0.00007   0.00029
    H62      Y     0.00013   0.00005  -0.00005  -0.00091  -0.00001  -0.00008
    H62      Z    -0.00038   0.00010  -0.00001  -0.00064   0.00000  -0.00003
    H63      X     0.00243  -0.00121  -0.00023   0.00047  -0.00007   0.00029
    H63      Y     0.00134  -0.00080  -0.00023  -0.00089  -0.00005   0.00034
    H63      Z     0.00431  -0.00221  -0.00045   0.00046  -0.00014   0.00043
    H64      X    -0.00108   0.00051  -0.00001  -0.00131  -0.00003  -0.00013
    H64      Y    -0.00162   0.00101  -0.00012  -0.00319  -0.00010  -0.00026
    H64      Z     0.00198  -0.00118   0.00010   0.00287   0.00011   0.00045
  
  Number of imaginary frequencies:   0
   
  Writing vibrational animation data to enc_comp_L1_PL154.vib
  Writing IR vibrational spectrum data to enc_comp_L1_PL154_vib.spm
  rotational symmetry number:  1

  rotational temperatures (K):      0.008786      0.004439      0.003828
   
  The Quasi-Harmonic approximation will be applied to compute
  vibrational constributions to thermodynamic properties.
  Frequencies will be adjusted to a minimum value of  100.00 cm^-1.

  vibrational temperatures:
       mode:      1        2        3        4        5        6
  temp. (K):   143.88   143.88   143.88   143.88   143.88   143.88
   
       mode:      7        8        9       10       11       12
  temp. (K):   143.88   143.88   143.88   143.88   147.01   166.81
   
       mode:     13       14       15       16       17       18
  temp. (K):   169.41   185.05   188.47   208.47   219.68   238.22
   
       mode:     19       20       21       22       23       24
  temp. (K):   248.75   291.25   297.44   327.68   342.38   356.17
   
       mode:     25       26       27       28       29       30
  temp. (K):   368.91   372.26   374.70   379.94   396.93   402.23
   
       mode:     31       32       33       34       35       36
  temp. (K):   414.15   435.20   453.46   472.89   479.11   484.37
   
       mode:     37       38       39       40       41       42
  temp. (K):   501.04   513.83   522.33   558.02   578.52   586.82
   
       mode:     43       44       45       46       47       48
  temp. (K):   591.22   594.17   600.05   619.41   639.03   664.32
   
       mode:     49       50       51       52       53       54
  temp. (K):   701.15   726.65   738.95   773.99   796.66   802.72
   
       mode:     55       56       57       58       59       60
  temp. (K):   832.80   839.86   851.28   882.23   887.35   907.69
   
       mode:     61       62       63       64       65       66
  temp. (K):   966.44   993.50  1046.68  1074.82  1107.11  1108.37
   
       mode:     67       68       69       70       71       72
  temp. (K):  1138.71  1145.45  1157.09  1183.37  1186.12  1200.61
   
       mode:     73       74       75       76       77       78
  temp. (K):  1202.45  1265.06  1295.34  1301.69  1303.24  1373.77
   
       mode:     79       80       81       82       83       84
  temp. (K):  1379.87  1384.56  1385.57  1392.54  1411.59  1416.79
   
       mode:     85       86       87       88       89       90
  temp. (K):  1417.42  1435.18  1448.57  1456.68  1462.97  1472.51
   
       mode:     91       92       93       94       95       96
  temp. (K):  1502.57  1510.01  1514.21  1516.96  1524.19  1527.87
   
       mode:     97       98       99      100      101      102
  temp. (K):  1540.53  1560.11  1584.83  1593.33  1659.89  1681.18
   
       mode:    103      104      105      106      107      108
  temp. (K):  1688.75  1734.53  1739.66  1749.40  1755.74  1767.05
   
       mode:    109      110      111      112      113      114
  temp. (K):  1774.92  1782.28  1791.61  1799.45  1802.69  1845.26
   
       mode:    115      116      117      118      119      120
  temp. (K):  1875.90  1882.48  1886.78  1940.81  1954.87  1989.79
   
       mode:    121      122      123      124      125      126
  temp. (K):  2041.00  2042.96  2045.31  2052.73  2053.35  2064.09
   
       mode:    127      128      129      130      131      132
  temp. (K):  2090.66  2102.05  2120.97  2128.20  2140.23  2158.04
   
       mode:    133      134      135      136      137      138
  temp. (K):  2161.38  2167.72  2171.55  2173.42  2174.60  2178.80
   
       mode:    139      140      141      142      143      144
  temp. (K):  2185.29  2187.60  2198.78  2203.38  2207.14  2211.47
   
       mode:    145      146      147      148      149      150
  temp. (K):  2217.65  2231.63  2232.64  2274.61  2327.95  2340.92
   
       mode:    151      152      153      154      155      156
  temp. (K):  2377.82  2380.07  2383.61  4373.00  4374.33  4375.50
   
       mode:    157      158      159      160      161      162
  temp. (K):  4378.61  4379.97  4382.17  4386.04  4476.76  4480.33
   
       mode:    163      164      165      166      167      168
  temp. (K):  4482.98  4484.19  4486.42  4489.26  4493.33  4521.48
   
       mode:    169      170      171      172      173      174
  temp. (K):  4533.63  4534.07  4541.92  4551.08  4552.76  4573.20
   
       mode:    175      176      177      178      179      180
  temp. (K):  4584.09  4587.43  4596.59  4600.71  4604.86  4618.73
   
       mode:    181      182      183      184      185      186
  temp. (K):  4619.29  4619.48  4628.58  4635.04  4655.47  4660.86
   
   
  Thermodynamic properties calculated assuming an ideal gas

  In the table below, the units for temperature
  are kelvins, the units for U, H, and G are
  kcal/mol and the units for Cv and S are cal/(mol K)

  The zero point energy (ZPE):    335.293 kcal/mol
  is not included in U, H, or G in the table below
  
 
  =============================================================================
  Thermodynamic properties for P = 1.00E+00 atm, calculated at   1 temperatures


  T =   298.15 K, P = 1.00E+00 atm
   
                  U         Cv          S          H          G        ln(Q)
              =========  =========  =========  =========  =========  =========
  trans.          0.889      2.981     45.019      1.481    -11.941   20.15452
  rot.            0.889      2.981     36.718      0.889    -10.059   16.97736
  vib.           18.581    121.991    112.191     18.581    -14.869   25.09609
  elec.           0.000      0.000      0.000      0.000      0.000    0.00000
  ----------------------------------------------------------------------------
  total          20.358    127.952    193.929     20.951    -36.869   62.22797
   
   Total internal energy, Utot(SCFE + ZPE + U):   -1629.030226 hartrees
   Total enthalpy, Htot (Utot + nRT), with n=1:   -1629.029281 hartrees
    Total Gibbs free energy, Gtot (Htot - T*S):   -1629.121423 hartrees
   
  end of program freq
   
 Time(freq)  user:       0.366  user+sys:       0.366  wallclock:       0.460
  
  start of program post
  
  Writing input files for PBF
  end of program post
   
 Time(post)  user:       0.179  user+sys:       0.179  wallclock:       0.120

 Total cpu seconds     user:   83192.382   user+sys:   83192.382
  
 Total elapsed time:    48235 seconds

Job enc_comp_L1_PL154 completed on bp1-compute145.data.bp.acrc.priv at Mon Mar 24 14:53:47 2025
