Job L1_NaOtBu_PL154 started on bp1-compute089 at Sun Nov 30 18:38:48 2025
jobid: bp1-compute089-0-692c8f2f

  +--------------------------------------------------------------------+
  |  Jaguar version 12.5, release 138                                  |
  |                                                                    |
  |  Copyright Schrodinger, Inc.                                       |
  |  All Rights Reserved.                                              |
  |                                                                    |
  |  The following have contributed to Jaguar (listed alphabetically): |
  |  Ty Balduf, Mike Beachy, Chandler Bennett, Art Bochevarov,         |
  |  Dale Braden, Yixiang Cao, Alan Chien, Chris Cortis,               |
  |  Rich Friesner, Jim Furness, Bill Goddard, Hod Greeley,            |
  |  Tom Hughes, Leif Jacobson, Jean-Marc Langlois, Daniel Levine,     |
  |  Rob Murphy, Dean Philipp, Tom Pollard, Murco Ringnalda,           |
  |  Daniel Mainz, Pablo Videla, Mark Watson, Haoyu Yu.                |
  |                                                                    |
  |  Use of this program should be acknowledged in publications as:    |
  |                                                                    |
  |  Jaguar, version 12.5, Schrodinger, Inc., New York, NY, 2024.      |
  |                                                                    |
  |  A. D. Bochevarov, E. Harder, T. F. Hughes, J. R. Greenwood,       |
  |  D. A. Braden, D. M. Philipp, D. Rinaldo, M. D. Halls,             |
  |  J. Zhang, R. A. Friesner, "Jaguar: A High-Performance Quantum     |
  |  Chemistry Software Program with Strengths in Life and Materials   |
  |  Sciences", Int. J. Quantum Chem., 2013, 113(18), 2110-2142.       |
  +--------------------------------------------------------------------+
  
  start of program pre
  
  Job name: L1_NaOtBu_PL154
  Executables used: /software/local/apps/schrodinger2024-3/jaguar-v12.5/bin/Linux-x86_64
  Temporary files : /tmp/ar21627/L1_NaOtBu_PL154#bp1-compute089-0-692c8f2f
  Basis file : using default basis file from /software/local/apps/schrodinger2024-3
  Maestro file (input):  L1_NaOtBu_PL154.mae
  Maestro file (output): L1_NaOtBu_PL154.01.mae
  
 Contents of input file: &gen and (if present) &atomic sections only
 ----------------Contents start----------------
&gen
dftname=b3pw91-d3
basis=6-31G*
numd=5
ip11=2
iaccg=3
isolv=2
igeopt=1
solvent=benzene
ifreq=1
&
&atomic
atom basis
Pd2 lacv3p*
&
 -----------------Contents end-----------------
 
  PS calculation requested. Using PS version of 6-31g*
  basis set:               non_standard                    
  net molecular charge:    0
  multiplicity:            1
  
  Using up to  18 threads per process
  
  This run will use ECP on 1 atom
  number of basis functions....          507
  
 Input geometry:
                                   angstroms
  atom               x                 y                 z
  P1            0.0000000000      0.0000000000      0.0000000000 
  Pd2           0.0000000000      0.0000000000      2.2537850879 
  C3            1.8386502195      0.0000000000     -0.3079578764 
  C4           -0.5729690060      1.6466156397     -0.7818617699 
  C5           -0.6784927912     -1.5076791908     -0.9570283204 
  C6            2.3266184107     -0.0921977234      2.2411789997 
  C7            2.6539050604     -1.2743557360      2.9646164288 
  C8            2.5518037927     -1.2722306378      4.3606791896 
  C9            2.1309759397     -0.1442653570      5.0676785442 
  C10           1.8052496861      1.0228710844      4.3731525741 
  C11           1.9251535070      1.0653669483      2.9723311354 
  C12           2.7289403413      0.0128632701      0.7923356890 
  C13           4.1099318644      0.0842950790      0.5491173234 
  C14           4.6284899304      0.1110401627     -0.7419230709 
  C15           3.7570867950      0.0529363989     -1.8288880794 
  C16           2.3837015856      0.0024638136     -1.6038010833 
  C17          -2.1060716024      1.6790797022     -0.7174258903 
  C18          -0.0167823034      2.7419706847      0.1444469259 
  C19          -0.1071289150      1.9648159596     -2.2086243735 
  C20           0.2604376021     -2.6728446282     -0.6101088868 
  C21          -0.8165953574     -1.3885940472     -2.4782420722 
  C22          -2.0608559360     -1.8183816736     -0.3563034203 
  C23           3.1134782255     -2.5111968311      2.2371517562 
  H24           2.8038245630     -2.1820221653      4.9040175153 
  H25           2.0569022014     -0.1749857947      6.1525125012 
  H26           1.4964157949      1.9187908652      4.9070575427 
  H27           1.8410846737      2.0155890961      2.4497302552 
  H28           4.7840883667      0.1074666195      1.4034505783 
  H29           5.7039402946      0.1660042732     -0.8965137994 
  H30           4.1401571364      0.0519778197     -2.8472956691 
  H31           1.7220897990     -0.0364992369     -2.4617038286 
  H32          -2.4661603022      1.3975696250      0.2791429490 
  H33          -2.4619083561      2.6953721040     -0.9342395826 
  H34          -2.5640965882      1.0091778194     -1.4529945053 
  H35          -0.3778668793      2.6166192530      1.1715489137 
  H36           1.0792682462      2.7273343987      0.1659799845 
  H37          -0.3338293132      3.7288759860     -0.2202962588 
  H38          -0.4040883975      1.2087743778     -2.9392826288 
  H39          -0.5573997406      2.9172817651     -2.5230712248 
  H40           0.9786001060      2.0893427385     -2.2583914271 
  H41           1.2509138533     -2.5514119254     -1.0607890955 
  H42           0.3865246022     -2.7603008336      0.4764342007 
  H43          -0.1691964126     -3.6147642376     -0.9768947513 
  H44           0.1373360642     -1.1884687664     -2.9754984653 
  H45          -1.1961509385     -2.3389820775     -2.8804393492 
  H46          -1.5300589993     -0.6099658482     -2.7664384629 
  H47          -1.9924697365     -1.9389611832      0.7303170006 
  H48          -2.7926259731     -1.0305372594     -0.5596196858 
  H49          -2.4477776800     -2.7518317952     -0.7883632124 
  H50           4.1588359637     -2.4268144187      1.9125290084 
  H51           2.5189358310     -2.6840509704      1.3346112265 
  H52           3.0335824785     -3.3969088109      2.8764815360 
  O93          -0.4023856038     -0.2175593432      4.3268105840 
  Na94         -0.6723528236     -2.3433746605      3.9355313367 
  C95          -1.0767435072      0.8587888705      4.9127225565 
  C96          -2.5114526301      0.9734785258      4.3662233271 
  H97          -3.0602190929      1.8216581928      4.8004121123 
  H98          -3.0757040651      0.0542896162      4.5792340436 
  H99          -2.4654502165      1.0960165205      3.2780220657 
  C100         -0.3434032089      2.1831635285      4.6322797678 
  H101         -0.8375200928      3.0397995234      5.1150291483 
  H102         -0.3034403913      2.3577671622      3.5483400489 
  H103          0.6902222590      2.1254518225      4.9888506929 
  C104         -1.1410454548      0.6393129179      6.4338209921 
  H105         -1.6503014885     -0.3089050182      6.6499896840 
  H106         -1.6852573239      1.4438782046      6.9481776932 
  H107         -0.1302376814      0.5875349047      6.8527044579 
   
  principal moments of inertia:
        amu*angstrom^2:              2443.99179              3766.80321              4493.43931
                g*cm^2:          4.05834334E-37          6.25492311E-37          7.46153059E-37
   
  rotational constants:
               cm^(-1):      0.00689758      0.00447531      0.00375161
                   GHz:      0.20678425      0.13416655      0.11247042
   
  Molecular weight:     514.16 amu
   
  Stoichiometry: NaPdC25PH38O
  Molecular Point Group: C1      
  Point Group used: C1
  
 
Number of optimization coordinates:   214
Number of independent coordinates:    214
Number of non-redundant coordinates:  195
Number of frozen coordinates:           0
Number of harmonic constraints:         0
 
Number of geometric degrees of freedom:   195
Maximum geometric degrees of freedom:     195
 " " " " " excluding dummy atoms:         195
 
 
  bond lengths (angstroms):
 
 P1      -Pd2     :   2.253785      P1      -C3      :   1.864262
 P1      -C4      :   1.910744      P1      -C5      :   1.910328
 Pd2     -O93     :   2.122894      Pd2     -Na94    :   2.961711
 C3      -C12     :   1.415425      C3      -C16     :   1.405808
 C4      -C17     :   1.534799      C4      -C18     :   1.538569
 C4      -C19     :   1.534246      C5      -C20     :   1.536084
 C5      -C21     :   1.532105      C5      -C22     :   1.538939
 C6      -C7      :   1.424070      C6      -C11     :   1.426784
 C6      -C12     :   1.507331      C7      -C8      :   1.399793
 C7      -C23     :   1.506714      C8      -C9      :   1.396155
 C8      -H24     :   1.089244      C9      -C10     :   1.396664
 C9      -H25     :   1.087794      C10     -C11     :   1.406586
 C10     -H26     :   1.087706      C11     -H27     :   1.087705
 C12     -C13     :   1.404064      C13     -C14     :   1.391547
 C13     -H28     :   1.088535      C14     -C15     :   1.394350
 C14     -H29     :   1.087894      C15     -C16     :   1.392623
 C15     -H30     :   1.088071      C16     -H31     :   1.084087
 C17     -H32     :   1.096386      C17     -H33     :   1.098398
 C17     -H34     :   1.095270      C18     -H35     :   1.095917
 C18     -H36     :   1.096360      C18     -H37     :   1.098881
 C19     -H38     :   1.092541      C19     -H39     :   1.099460
 C19     -H40     :   1.093980      C20     -H41     :   1.094944
 C20     -H42     :   1.097325      C20     -H43     :   1.098330
 C21     -H44     :   1.094212      C21     -H45     :   1.099574
 C21     -H46     :   1.094691      C22     -H47     :   1.095427
 C22     -H48     :   1.094314      C22     -H49     :   1.098960
 C23     -H50     :   1.097849      C23     -H51     :   1.094504
 C23     -H52     :   1.095268      O93     -Na94    :   2.178319
 O93     -C95     :   1.398777      C95     -C96     :   1.539547
 C95     -C100    :   1.539612      C95     -C104    :   1.538195
 C96     -H97     :   1.099579      C96     -H98     :   1.099391
 C96     -H99     :   1.096045      C100    -H101    :   1.100465
 C100    -H102    :   1.098640      C100    -H103    :   1.094922
 C104    -H105    :   1.097810      C104    -H106    :   1.099115
 C104    -H107    :   1.095389
 
  bond angles:
 
 C3      -P1      -Pd2     :  99.508286  C4      -P1      -Pd2     : 114.154102
 C4      -P1      -C3      : 103.188337  C5      -P1      -Pd2     : 120.064591
 C5      -P1      -C3      : 105.517643  C5      -P1      -C4      : 111.631063
 O93     -Pd2     -P1      : 167.556501  Na94    -Pd2     -P1      : 124.598990
 Na94    -Pd2     -O93     :  47.265152  C12     -C3      -P1      : 119.468039
 C16     -C3      -P1      : 122.320593  C16     -C3      -C12     : 118.207623
 C17     -C4      -P1      : 107.492696  C18     -C4      -P1      : 104.996496
 C18     -C4      -C17     : 108.708973  C19     -C4      -P1      : 117.917969
 C19     -C4      -C17     : 109.751878  C19     -C4      -C18     : 107.605836
 C20     -C5      -P1      : 105.569629  C21     -C5      -P1      : 117.910116
 C21     -C5      -C20     : 109.773127  C22     -C5      -P1      : 106.428500
 C22     -C5      -C20     : 107.924128  C22     -C5      -C21     : 108.802050
 C11     -C6      -C7      : 118.543806  C12     -C6      -C7      : 119.000172
 C12     -C6      -C11     : 120.738297  C8      -C7      -C6      : 119.250534
 C23     -C7      -C6      : 120.415439  C23     -C7      -C8      : 120.332869
 C9      -C8      -C7      : 121.887481  H24     -C8      -C7      : 118.642828
 H24     -C8      -C9      : 119.468665  C10     -C9      -C8      : 119.578629
 H25     -C9      -C8      : 120.180208  H25     -C9      -C10     : 120.241154
 C11     -C10     -C9      : 120.039929  H26     -C10     -C9      : 120.693347
 H26     -C10     -C11     : 119.219779  C10     -C11     -C6      : 120.651977
 H27     -C11     -C6      : 118.966566  H27     -C11     -C10     : 119.887456
 C6      -C12     -C3      : 125.357629  C13     -C12     -C3      : 118.977106
 C13     -C12     -C6      : 115.630968  C14     -C13     -C12     : 121.884998
 H28     -C13     -C12     : 118.312194  H28     -C13     -C14     : 119.799100
 C15     -C14     -C13     : 119.311445  H29     -C14     -C13     : 120.079077
 H29     -C14     -C15     : 120.606246  C16     -C15     -C14     : 119.461126
 H30     -C15     -C14     : 120.640700  H30     -C15     -C16     : 119.897403
 C15     -C16     -C3      : 122.100554  H31     -C16     -C3      : 119.523165
 H31     -C16     -C15     : 118.376272  H32     -C17     -C4      : 111.149300
 H33     -C17     -C4      : 109.565566  H33     -C17     -H32     : 108.094791
 H34     -C17     -C4      : 112.122590  H34     -C17     -H32     : 108.424518
 H34     -C17     -H33     : 107.329837  H35     -C18     -C4      : 111.328636
 H36     -C18     -C4      : 111.328506  H36     -C18     -H35     : 108.026367
 H37     -C18     -C4      : 109.587787  H37     -C18     -H35     : 108.586990
 H37     -C18     -H36     : 107.875247  H38     -C19     -C4      : 113.320244
 H39     -C19     -C4      : 108.740829  H39     -C19     -H38     : 107.271541
 H40     -C19     -C4      : 111.546179  H40     -C19     -H38     : 108.548244
 H40     -C19     -H39     : 107.147243  H41     -C20     -C5      : 112.076772
 H42     -C20     -C5      : 110.751587  H42     -C20     -H41     : 108.207231
 H43     -C20     -C5      : 109.632481  H43     -C20     -H41     : 108.149950
 H43     -C20     -H42     : 107.894461  H44     -C21     -C5      : 112.758318
 H45     -C21     -C5      : 109.093411  H45     -C21     -H44     : 107.024883
 H46     -C21     -C5      : 112.050822  H46     -C21     -H44     : 108.570101
 H46     -C21     -H45     : 107.067802  H47     -C22     -C5      : 110.692858
 H48     -C22     -C5      : 112.506585  H48     -C22     -H47     : 107.775850
 H49     -C22     -C5      : 109.528661  H49     -C22     -H47     : 108.570737
 H49     -C22     -H48     : 107.639920  H50     -C23     -C7      : 111.721901
 H51     -C23     -C7      : 111.228584  H51     -C23     -H50     : 106.591389
 H52     -C23     -C7      : 111.084757  H52     -C23     -H50     : 107.710900
 H52     -C23     -H51     : 108.300725  Na94    -O93     -Pd2     :  87.024930
 C95     -O93     -Pd2     : 114.932881  C95     -O93     -Na94    : 140.034958
 O93     -Na94    -Pd2     :  45.709918  C96     -C95     -O93     : 110.971894
 C100    -C95     -O93     : 110.853821  C100    -C95     -C96     : 108.369222
 C104    -C95     -O93     : 108.940018  C104    -C95     -C96     : 108.826351
 C104    -C95     -C100    : 108.830862  H97     -C96     -C95     : 112.481207
 H98     -C96     -C95     : 110.317828  H98     -C96     -H97     : 108.196843
 H99     -C96     -C95     : 108.762694  H99     -C96     -H97     : 109.071641
 H99     -C96     -H98     : 107.901590  H101    -C100    -C95     : 112.075727
 H102    -C100    -C95     : 109.496514  H102    -C100    -H101    : 108.991436
 H103    -C100    -C95     : 110.181214  H103    -C100    -H101    : 108.786421
 H103    -C100    -H102    : 107.177907  H105    -C104    -C95     : 109.715720
 H106    -C104    -C95     : 112.273233  H106    -C104    -H105    : 108.085199
 H107    -C104    -C95     : 110.262682  H107    -C104    -H105    : 108.176014
 H107    -C104    -H106    : 108.212951
 
  torsional angles:
 
 P1      -Pd2     -O93     -Na94    :  53.186529
 P1      -Pd2     -O93     -C95     : -92.117901
 P1      -Pd2     -Na94    -O93     :-167.902713
 P1      -C3      -C12     -C6      :   5.568031
 P1      -C3      -C12     -C13     :-176.660516
 P1      -C3      -C16     -C15     : 177.547438
 P1      -C3      -C16     -H31     :  -2.487665
 P1      -C4      -C17     -H32     :  47.305269
 P1      -C4      -C17     -H33     : 166.706346
 P1      -C4      -C17     -H34     : -74.233531
 P1      -C4      -C18     -H35     : -57.957240
 P1      -C4      -C18     -H36     :  62.646062
 P1      -C4      -C18     -H37     :-178.099022
 P1      -C4      -C19     -H38     :  58.287712
 P1      -C4      -C19     -H39     : 177.475381
 P1      -C4      -C19     -H40     : -64.575648
 P1      -C5      -C20     -H41     : -70.124433
 P1      -C5      -C20     -H42     :  50.822465
 P1      -C5      -C20     -H43     : 169.770949
 P1      -C5      -C21     -H44     :  60.003888
 P1      -C5      -C21     -H45     : 178.767909
 P1      -C5      -C21     -H46     : -62.852296
 P1      -C5      -C22     -H47     : -53.622890
 P1      -C5      -C22     -H48     :  67.025132
 P1      -C5      -C22     -H49     :-173.305118
 Pd2     -P1      -C3      -C12     :  -0.598083
 Pd2     -P1      -C3      -C16     :-179.881174
 Pd2     -P1      -C4      -C17     : -79.071890
 Pd2     -P1      -C4      -C18     :  36.560665
 Pd2     -P1      -C4      -C19     : 156.317422
 Pd2     -P1      -C5      -C20     : -64.393749
 Pd2     -P1      -C5      -C21     : 172.581547
 Pd2     -P1      -C5      -C22     :  50.140439
 Pd2     -O93     -C95     -C96     :  67.171459
 Pd2     -O93     -C95     -C100    : -53.304028
 Pd2     -O93     -C95     -C104    :-173.032830
 Pd2     -Na94    -O93     -C95     : 126.525054
 C3      -P1      -Pd2     -O93     :-151.601073
 C3      -P1      -Pd2     -Na94    :-106.009058
 C3      -P1      -C4      -C17     : 174.008310
 C3      -P1      -C4      -C18     : -70.359135
 C3      -P1      -C4      -C19     :  49.397621
 C3      -P1      -C5      -C20     :  46.633559
 C3      -P1      -C5      -C21     : -76.391145
 C3      -P1      -C5      -C22     : 161.167747
 C3      -C12     -C6      -C7      : 110.634201
 C3      -C12     -C6      -C11     : -84.512993
 C3      -C12     -C13     -C14     :  -1.537515
 C3      -C12     -C13     -H28     : 179.164783
 C3      -C16     -C15     -C14     :  -0.385403
 C3      -C16     -C15     -H30     : 179.931877
 C4      -P1      -Pd2     -O93     :  99.212682
 C4      -P1      -Pd2     -Na94    : 144.804698
 C4      -P1      -C3      -C12     : 117.136731
 C4      -P1      -C3      -C16     : -62.146360
 C4      -P1      -C5      -C20     : 158.030575
 C4      -P1      -C5      -C21     :  35.005871
 C4      -P1      -C5      -C22     : -87.435237
 C5      -P1      -Pd2     -O93     : -37.372154
 C5      -P1      -Pd2     -Na94    :   8.219861
 C5      -P1      -C3      -C12     :-125.605030
 C5      -P1      -C3      -C16     :  55.111879
 C5      -P1      -C4      -C17     :  61.145527
 C5      -P1      -C4      -C18     : 176.778082
 C5      -P1      -C4      -C19     : -63.465161
 C6      -C7      -C8      -C9      :   0.323103
 C6      -C7      -C8      -H24     : 179.952480
 C6      -C7      -C23     -H50     :  76.828656
 C6      -C7      -C23     -H51     : -42.151080
 C6      -C7      -C23     -H52     :-162.868577
 C6      -C11     -C10     -C9      :   2.539536
 C6      -C11     -C10     -H26     :-179.934790
 C6      -C12     -C3      -C16     :-175.119451
 C6      -C12     -C13     -C14     : 176.446710
 C6      -C12     -C13     -H28     :  -2.850992
 C7      -C6      -C11     -C10     :  -2.453164
 C7      -C6      -C11     -H27     : 169.475050
 C7      -C6      -C12     -C13     : -67.203492
 C7      -C8      -C9      -C10     :  -0.274159
 C7      -C8      -C9      -H25     : 179.691651
 C8      -C7      -C6      -C11     :   1.024288
 C8      -C7      -C6      -C12     : 166.211264
 C8      -C7      -C23     -H50     :-102.777019
 C8      -C7      -C23     -H51     : 138.243244
 C8      -C7      -C23     -H52     :  17.525747
 C8      -C9      -C10     -C11     :  -1.157697
 C8      -C9      -C10     -H26     :-178.646395
 C9      -C8      -C7      -C23     : 179.933350
 C9      -C10     -C11     -H27     :-169.314663
 C10     -C9      -C8      -H24     :-179.900556
 C10     -C11     -C6      -C12     :-167.373650
 C11     -C6      -C7      -C23     :-178.585629
 C11     -C6      -C12     -C13     :  97.649314
 C11     -C10     -C9      -H25     : 178.876515
 C12     -C3      -C16     -C15     :  -1.744286
 C12     -C3      -C16     -H31     : 178.220612
 C12     -C6      -C7      -C23     : -13.398653
 C12     -C6      -C11     -H27     :   4.554564
 C12     -C13     -C14     -C15     :  -0.609483
 C12     -C13     -C14     -H29     :-179.959530
 C13     -C12     -C3      -C16     :   2.652003
 C13     -C14     -C15     -C16     :   1.569283
 C13     -C14     -C15     -H30     :-178.750408
 C14     -C15     -C16     -H31     : 179.649313
 C15     -C14     -C13     -H28     : 178.678019
 C16     -C15     -C14     -H29     :-179.084179
 C17     -C4      -C18     -H35     :  56.830834
 C17     -C4      -C18     -H36     : 177.434136
 C17     -C4      -C18     -H37     : -63.310947
 C17     -C4      -C19     -H38     : -65.196235
 C17     -C4      -C19     -H39     :  53.991435
 C17     -C4      -C19     -H40     : 171.940405
 C18     -C4      -C17     -H32     : -65.846769
 C18     -C4      -C17     -H33     :  53.554308
 C18     -C4      -C17     -H34     : 172.614431
 C18     -C4      -C19     -H38     : 176.671637
 C18     -C4      -C19     -H39     : -64.140693
 C18     -C4      -C19     -H40     :  53.808278
 C19     -C4      -C17     -H32     : 176.707625
 C19     -C4      -C17     -H33     : -63.891298
 C19     -C4      -C17     -H34     :  55.168824
 C19     -C4      -C18     -H35     : 175.633912
 C19     -C4      -C18     -H36     : -63.762786
 C19     -C4      -C18     -H37     :  55.492130
 C20     -C5      -C21     -H44     : -60.872838
 C20     -C5      -C21     -H45     :  57.891184
 C20     -C5      -C21     -H46     : 176.270979
 C20     -C5      -C22     -H47     :  59.299363
 C20     -C5      -C22     -H48     : 179.947385
 C20     -C5      -C22     -H49     : -60.382864
 C21     -C5      -C20     -H41     :  57.938612
 C21     -C5      -C20     -H42     : 178.885509
 C21     -C5      -C20     -H43     : -62.166007
 C21     -C5      -C22     -H47     : 178.359182
 C21     -C5      -C22     -H48     : -60.992796
 C21     -C5      -C22     -H49     :  58.676955
 C22     -C5      -C20     -H41     : 176.378995
 C22     -C5      -C20     -H42     : -62.674107
 C22     -C5      -C20     -H43     :  56.274377
 C22     -C5      -C21     -H44     :-178.769000
 C22     -C5      -C21     -H45     : -60.004979
 C22     -C5      -C21     -H46     :  58.374817
 C23     -C7      -C8      -H24     :  -0.437273
 H24     -C8      -C9      -H25     :   0.065253
 H25     -C9      -C10     -H26     :   1.387816
 H26     -C10     -C11     -H27     :   8.211011
 H28     -C13     -C14     -H29     :  -0.672028
 H29     -C14     -C15     -H30     :   0.596129
 H30     -C15     -C16     -H31     :  -0.033407
 O93     -C95     -C96     -H97     :-179.186993
 O93     -C95     -C96     -H98     :  59.908020
 O93     -C95     -C96     -H99     : -58.253096
 O93     -C95     -C100    -H101    :-177.946050
 O93     -C95     -C100    -H102    :  60.981440
 O93     -C95     -C100    -H103    : -56.659576
 O93     -C95     -C104    -H105    : -58.290236
 O93     -C95     -C104    -H106    :-178.497519
 O93     -C95     -C104    -H107    :  60.756190
 Na94    -Pd2     -O93     -C95     :-145.304431
 Na94    -O93     -C95     -C96     : -50.577886
 Na94    -O93     -C95     -C100    :-171.053372
 Na94    -O93     -C95     -C104    :  69.217825
 C96     -C95     -C100    -H101    :  60.044610
 C96     -C95     -C100    -H102    : -61.027900
 C96     -C95     -C100    -H103    :-178.668916
 C96     -C95     -C104    -H105    :  62.826352
 C96     -C95     -C104    -H106    : -57.380931
 C96     -C95     -C104    -H107    :-178.127222
 H97     -C96     -C95     -C100    : -57.249933
 H97     -C96     -C95     -C104    :  60.949489
 H98     -C96     -C95     -C100    :-178.154920
 H98     -C96     -C95     -C104    : -59.955498
 H99     -C96     -C95     -C100    :  63.683964
 H99     -C96     -C95     -C104    :-178.116614
 C100    -C95     -C104    -H105    :-179.265756
 C100    -C95     -C104    -H106    :  60.526961
 C100    -C95     -C104    -H107    : -60.219330
 H101    -C100    -C95     -C104    : -58.151943
 H102    -C100    -C95     -C104    :-179.224454
 H103    -C100    -C95     -C104    :  63.134531
 
  nuclear repulsion energy.......          3778.414856634 hartrees
  
  Detected an organometallic with only one TM atom. 
  
  
 
  Will use High-Quality Initial guess for organometallics
       including d-d repulsion (iguess=30)
 
 Non-default options chosen:
   SCF calculation type: DFT(b3pw91-d3)              
   DFT=Becke_3_Parameter/HF+Slater+Becke88+PW91+PW-GGAIIC (B3PW91-D3)
   Geometry will be optimized in redundant internal coordinates
   Solvation energy will be computed using PBF
     -solute cavity energy will not be included
     -surface area terms will not be included
   Vibrational frequencies and related properties will be computed
      from analytic second derivatives
   IR intensities will be computed
   Thermochemical properties will be computed
   Maximum number of geometry steps: 100
   Scaling standard convergence criteria by a factor of   5.00
   Solvent: benzene                                                         
   Internal dielectric constant:    1.000
   Continuum dielectric constant:   2.283
   Solvent probe molecule radius:   2.600
  
 Non-default print settings:
     11=  2
  
 Temporary integer options set:
     21= -1  73=  2
  
  atom       vdw   vdw2    cov     mass  grid  daf  charge   basis
  P1        2.147  2.074  1.060   30.974    Y    Y      Y    ps_6-31g*
  Pd2       1.450  1.450  1.280  105.903    Y    Y      Y    lacv3p*
  C3        1.949  1.900  0.770   12.000    Y    Y      Y    ps_6-31g*
  C4        1.949  1.900  0.770   12.000    Y    Y      Y    ps_6-31g*
  C5        1.949  1.900  0.770   12.000    Y    Y      Y    ps_6-31g*
  C6        1.949  1.900  0.770   12.000    Y    Y      Y    ps_6-31g*
  C7        1.949  1.900  0.770   12.000    Y    Y      Y    ps_6-31g*
  C8        1.949  1.900  0.770   12.000    Y    Y      Y    ps_6-31g*
  C9        1.949  1.900  0.770   12.000    Y    Y      Y    ps_6-31g*
  C10       1.949  1.900  0.770   12.000    Y    Y      Y    ps_6-31g*
  C11       1.949  1.900  0.770   12.000    Y    Y      Y    ps_6-31g*
  C12       1.949  1.900  0.770   12.000    Y    Y      Y    ps_6-31g*
  C13       1.949  1.900  0.770   12.000    Y    Y      Y    ps_6-31g*
  C14       1.949  1.900  0.770   12.000    Y    Y      Y    ps_6-31g*
  C15       1.949  1.900  0.770   12.000    Y    Y      Y    ps_6-31g*
  C16       1.949  1.900  0.770   12.000    Y    Y      Y    ps_6-31g*
  C17       1.949  1.900  0.770   12.000    Y    Y      Y    ps_6-31g*
  C18       1.949  1.900  0.770   12.000    Y    Y      Y    ps_6-31g*
  C19       1.949  1.900  0.770   12.000    Y    Y      Y    ps_6-31g*
  C20       1.949  1.900  0.770   12.000    Y    Y      Y    ps_6-31g*
  C21       1.949  1.900  0.770   12.000    Y    Y      Y    ps_6-31g*
  C22       1.949  1.900  0.770   12.000    Y    Y      Y    ps_6-31g*
  C23       1.949  1.900  0.770   12.000    Y    Y      Y    ps_6-31g*
  H24       1.597  1.150  0.320    1.008    Y    Y      Y    ps_6-31g*
  H25       1.597  1.150  0.320    1.008    Y    Y      Y    ps_6-31g*
  H26       1.597  1.150  0.320    1.008    Y    Y      Y    ps_6-31g*
  H27       1.597  1.150  0.320    1.008    Y    Y      Y    ps_6-31g*
  H28       1.597  1.150  0.320    1.008    Y    Y      Y    ps_6-31g*
  H29       1.597  1.150  0.320    1.008    Y    Y      Y    ps_6-31g*
  H30       1.597  1.150  0.320    1.008    Y    Y      Y    ps_6-31g*
  H31       1.597  1.150  0.320    1.008    Y    Y      Y    ps_6-31g*
  H32       1.597  1.150  0.320    1.008    Y    Y      Y    ps_6-31g*
  H33       1.597  1.150  0.320    1.008    Y    Y      Y    ps_6-31g*
  H34       1.597  1.150  0.320    1.008    Y    Y      Y    ps_6-31g*
  H35       1.597  1.150  0.320    1.008    Y    Y      Y    ps_6-31g*
  H36       1.597  1.150  0.320    1.008    Y    Y      Y    ps_6-31g*
  H37       1.597  1.150  0.320    1.008    Y    Y      Y    ps_6-31g*
  H38       1.597  1.150  0.320    1.008    Y    Y      Y    ps_6-31g*
  H39       1.597  1.150  0.320    1.008    Y    Y      Y    ps_6-31g*
  H40       1.597  1.150  0.320    1.008    Y    Y      Y    ps_6-31g*
  H41       1.597  1.150  0.320    1.008    Y    Y      Y    ps_6-31g*
  H42       1.597  1.150  0.320    1.008    Y    Y      Y    ps_6-31g*
  H43       1.597  1.150  0.320    1.008    Y    Y      Y    ps_6-31g*
  H44       1.597  1.150  0.320    1.008    Y    Y      Y    ps_6-31g*
  H45       1.597  1.150  0.320    1.008    Y    Y      Y    ps_6-31g*
  H46       1.597  1.150  0.320    1.008    Y    Y      Y    ps_6-31g*
  H47       1.597  1.150  0.320    1.008    Y    Y      Y    ps_6-31g*
  H48       1.597  1.150  0.320    1.008    Y    Y      Y    ps_6-31g*
  H49       1.597  1.150  0.320    1.008    Y    Y      Y    ps_6-31g*
  H50       1.597  1.150  0.320    1.008    Y    Y      Y    ps_6-31g*
  H51       1.597  1.150  0.320    1.008    Y    Y      Y    ps_6-31g*
  H52       1.597  1.150  0.320    1.008    Y    Y      Y    ps_6-31g*
  O93       1.702  1.600  0.730   15.995    Y    Y      Y    ps_6-31g*
  Na94      2.308  1.492  1.540   22.990    Y    Y      Y    ps_6-31g*
  C95       1.949  1.900  0.770   12.000    Y    Y      Y    ps_6-31g*
  C96       1.949  1.900  0.770   12.000    Y    Y      Y    ps_6-31g*
  H97       1.597  1.150  0.320    1.008    Y    Y      Y    ps_6-31g*
  H98       1.597  1.150  0.320    1.008    Y    Y      Y    ps_6-31g*
  H99       1.597  1.150  0.320    1.008    Y    Y      Y    ps_6-31g*
  C100      1.949  1.900  0.770   12.000    Y    Y      Y    ps_6-31g*
  H101      1.597  1.150  0.320    1.008    Y    Y      Y    ps_6-31g*
  H102      1.597  1.150  0.320    1.008    Y    Y      Y    ps_6-31g*
  H103      1.597  1.150  0.320    1.008    Y    Y      Y    ps_6-31g*
  C104      1.949  1.900  0.770   12.000    Y    Y      Y    ps_6-31g*
  H105      1.597  1.150  0.320    1.008    Y    Y      Y    ps_6-31g*
  H106      1.597  1.150  0.320    1.008    Y    Y      Y    ps_6-31g*
  H107      1.597  1.150  0.320    1.008    Y    Y      Y    ps_6-31g*
 
  atom      formal  2spin      esp    mulk    frag
  P1           0       0        Y    0.000       0
  Pd2          0       0        Y    0.000       0
  O93          0       0        Y    0.000       0
  
  end of program pre
   
 Time(pre)  user:       4.477  user+sys:       4.477  wallclock:       1.188
  
  start of program onee
  
  smallest eigenvalue of S:    3.896E-04
  number of canonical orbitals.....          505
  end of program onee
   
 Time(onee)  user:       4.191  user+sys:       4.191  wallclock:       0.793
  
  start of program hfig
  
  initial wavefunction generated automatically from atomic wavefunctions
  Only one possible d-orb occupation 
  Skip d-d repulsion considerations 
 
  Irreducible     Total no   No of occupied orbitals 
  representation  orbitals   Shell_1  Shell_2    ...
  No Symm          505        120
  ------------------------
  Orbital occupation/shell    1.000
 
  end of program hfig
   
 Time(hfig)  user:       1.911  user+sys:       1.911  wallclock:       0.828
  
  start of program probe
  
  end of program probe
   
 Time(probe)  user:       0.908  user+sys:       0.908  wallclock:       0.251
  
  start of program grid
  
   grid     grid set  grid #  grid sym
  ------    --------  ------  --------
  coarse        0        0        1
  medium        2        1        1
  fine          0        0        1
  ultrafine     4        2        1
  charge       -1        3        1
  gradient      4        2        1
  density       0        0        1
  DFT-fine    -11        4        1
  DFT-med.    -10        5        1
  DFT-grad    -12        6        1
  DFT-der2     -8        7        1
  DFT-cphf     -9        8        1
  LMP2-enrg     4        2        1
  LMP2-grad     2        1        1
  DFT-cphf2   -15        9        1
  PBF-dens      0        0        1
  plotting      0        0        1
  Rel-grad    -17        0        1
  
  number of gridpoints: 
     atom           P1         Pd2          C3          C4          C5          C6          C7
  grid # 1         607         352          94          88          87          98          96
  grid # 2         421         316         382         365         367         359         358
  grid # 3           6         199           8           6           6           9          12
  grid # 4        8582        8582        8582        8582        8582        8582        8582
  grid # 5        1192        1192        1192        1192        1192        1192        1192
  grid # 6        9488        9488        6164        6164        6164        6164        6164
  grid # 7       23054       32756       14018       14018       14018       14018       14018
  grid # 8         724        1144         750         750         750         750         750
  grid # 9         380        2168         406         406         406         406         406
   
  number of gridpoints: 
     atom           C8          C9         C10         C11         C12         C13         C14
  grid # 1          95          95          95          93          98          95          96
  grid # 2         323         319         318         320         360         324         324
  grid # 3          26          30          27          15          11          24          38
  grid # 4        8582        8582        8582        8582        8582        8582        8582
  grid # 5        1192        1192        1192        1192        1192        1192        1192
  grid # 6        6164        6164        6164        6164        6164        6164        6164
  grid # 7       14018       14018       14018       14018       14018       14018       14018
  grid # 8         750         750         750         750         750         750         750
  grid # 9         406         406         406         406         406         406         406
   
  number of gridpoints: 
     atom          C15         C16         C17         C18         C19         C20         C21
  grid # 1          95          93          78          80          81          80          82
  grid # 2         324         324         241         240         235         238         234
  grid # 3          34          14           6           6           6           6           6
  grid # 4        8582        8582        8582        8582        8582        8582        8582
  grid # 5        1192        1192        1192        1192        1192        1192        1192
  grid # 6        6164        6164        6164        6164        6164        6164        6164
  grid # 7       14018       14018       14018       14018       14018       14018       14018
  grid # 8         750         750         750         750         750         750         750
  grid # 9         406         406         406         406         406         406         406
   
  number of gridpoints: 
     atom          C22         C23         H24         H25         H26         H27         H28
  grid # 1          80          79         114         114          86         110         115
  grid # 2         236         242         458         452         364         440         453
  grid # 3           6           6         284         279         173         177         293
  grid # 4        8582        8582        8582        8582        8582        8582        8582
  grid # 5        1192        1192        1192        1192        1192        1192        1192
  grid # 6        6164        6164        6164        6164        6164        6164        6164
  grid # 7       14018       14018       15170       15170       15170       15170       15170
  grid # 8         750         750         792         792         792         792         792
  grid # 9         406         406         420         420         420         420         420
   
  number of gridpoints: 
     atom          H29         H30         H31         H32         H33         H34         H35
  grid # 1         118         118         102         105         107         102         103
  grid # 2         466         466         424         437         445         432         428
  grid # 3         419         417          97         157         277         168          96
  grid # 4        8582        8582        8582        8582        8582        8582        8582
  grid # 5        1192        1192        1192        1192        1192        1192        1192
  grid # 6        6164        6164        6164        6164        6164        6164        6164
  grid # 7       15170       15170       15170       15170       15170       15170       15170
  grid # 8         792         792         792         792         792         792         792
  grid # 9         420         420         420         420         420         420         420
   
  number of gridpoints: 
     atom          H36         H37         H38         H39         H40         H41         H42
  grid # 1         106         108         104         109         104         104         100
  grid # 2         438         447         426         447         434         440         431
  grid # 3         170         273         152         269         192         184          74
  grid # 4        8582        8582        8582        8582        8582        8582        8582
  grid # 5        1192        1192        1192        1192        1192        1192        1192
  grid # 6        6164        6164        6164        6164        6164        6164        6164
  grid # 7       15170       15170       15170       15170       15170       15170       15170
  grid # 8         792         792         792         792         792         792         792
  grid # 9         420         420         420         420         420         420         420
   
  number of gridpoints: 
     atom          H43         H44         H45         H46         H47         H48         H49
  grid # 1         109         100         109         102         104         105         107
  grid # 2         447         427         446         429         440         435         445
  grid # 3         273         160         274         162         130         175         277
  grid # 4        8582        8582        8582        8582        8582        8582        8582
  grid # 5        1192        1192        1192        1192        1192        1192        1192
  grid # 6        6164        6164        6164        6164        6164        6164        6164
  grid # 7       15170       15170       15170       15170       15170       15170       15170
  grid # 8         792         792         792         792         792         792         792
  grid # 9         420         420         420         420         420         420         420
   
  number of gridpoints: 
     atom          H50         H51         H52         O93        Na94         C95         C96
  grid # 1         108         103         107         114         711          91          81
  grid # 2         447         429         453         469         662         322         236
  grid # 3         280         120         265          11         329           6           6
  grid # 4        8582        8582        8582        8582        8582        8582        8582
  grid # 5        1192        1192        1192        1192        1192        1192        1192
  grid # 6        6164        6164        6164        6164        9488        6164        6164
  grid # 7       15170       15170       15170       23358       21102       14018       14018
  grid # 8         792         792         792         774         642         750         750
  grid # 9         420         420         420         412         338         406         406
   
  number of gridpoints: 
     atom          H97         H98         H99        C100        H101        H102        H103
  grid # 1         108         109         105          81         109         101          82
  grid # 2         452         452         440         238         451         420         346
  grid # 3         294         243         140           6         291          87          64
  grid # 4        8582        8582        8582        8582        8582        8582        8582
  grid # 5        1192        1192        1192        1192        1192        1192        1192
  grid # 6        6164        6164        6164        6164        6164        6164        6164
  grid # 7       15170       15170       15170       14018       15170       15170       15170
  grid # 8         792         792         792         750         792         792         792
  grid # 9         420         420         420         406         420         420         420
   
  number of gridpoints: 
     atom         C104        H105        H106        H107       total
  grid # 1          80         109         109         106        8016
  grid # 2         238         452         449         440       25963
  grid # 3           6         242         289         195        8983
  grid # 4        8582        8582        8582        8582      574994
  grid # 5        1192        1192        1192        1192       79864
  grid # 6        6164        6164        6164        6164      422960
  grid # 7       14018       15170       15170       15170     1027180
  grid # 8         750         792         792         792       52130
  grid # 9         406         420         420         420       29408
   
  end of program grid
   
 Time(grid)  user:     221.698  user+sys:     221.698  wallclock:      15.718
  
  start of program rwr
  
  end of program rwr
   
 Time(rwr)  user:      41.692  user+sys:      41.692  wallclock:       9.395
  
  start of program scf
  
 number of electrons..........        240
 number of alpha electrons....        120
 number of beta electrons.....        120
 number of orbitals, total....        505
 number of doubly-occ'd orbs..        120
 number of open shell orbs....          0
 number of occupied orbitals..        120
 number of virtual orbitals...        385
 number of hamiltonians.......          1
 number of shells.............          1
 SCF type: DFT=Becke_3_Parameter/HF+Slater+Becke88+PW91+PW-GGAIIC (B3PW91-D3)
 Energy computed using pseudospectral method.
 Convergence Criterion:
    Energy (econv):       1.00E-05
    RMS density (dconv):  5.00E-06
  
       i  u  d  i  g                   
       t  p  i  c  r                                 RMS    maximum
       e  d  i  u  i                       energy  density   DIIS  
       r  t  s  t  d       total energy    change  change    error 
  
etot    1  N  N  5  M   -1676.87467289845           2.7E-03  1.6E-01
etot    2  Y  Y  6  M   -1679.49960516072  2.6E+00  3.7E-03  1.1E-01
etot    3  Y  Y  6  M   -1680.12685605915  6.3E-01  2.0E-03  5.6E-02
etot    4  N  Y  2  U   -1680.49569694493  3.7E-01  1.1E-03  4.6E-02
etot    5  Y  Y  6  M   -1680.62535563223  1.3E-01  6.7E-04  2.9E-02
etot    6  N  Y  2  U   -1680.63928928721  1.4E-02  8.0E-04  1.6E-02
etot    7  Y  Y  6  M   -1680.65250813493  1.3E-02  2.1E-04  1.0E-02
etot    8  N  Y  2  U   -1680.66508205507  1.3E-02  5.2E-05  9.8E-04
etot    9  Y  Y  6  M   -1680.66539438594  3.1E-04  2.7E-05  3.0E-04
etot   10  N  Y  2  U   -1680.66543552141  4.1E-05  8.3E-06  1.2E-04
etot   11  N  Y  2  U   -1680.66544007696  4.6E-06  4.7E-06  6.8E-05
etot   12  N  N  2  U   -1680.66544234424  2.3E-06  0.0E+00  0.0E+00
 
  Computing the dispersion energy correction and its gradients...
  
  
 Energy components, in hartrees:
   (A)  Nuclear repulsion............    3778.41485663365
   (E)  Total one-electron terms.....   -9877.55044358296
   (F)    Electron-nuclear...........  -11469.76946625915
   (H)    Kinetic....................    1592.21902267619
   (I)  Total two-electron terms.....    4418.47014460506
   (J)    Coulomb....................    4627.34317502350
   (K)    Exchange+Correlation.......    -208.87303041844
   (L)  Electronic energy............   -5459.08029897789  (E+I)
   (N0) D3 correction................      -0.12595594145
   (N)  Total energy.................   -1680.79139828570  (A+L+N0)
   (O)  Gas phase energy.............   -1680.79139828570
  
 SCFE: SCF energy: DFT(b3pw91-d3)     -1680.79139828570 hartrees   iterations:  12
  
 
 HOMO energy:    -0.11991
 LUMO energy:    -0.04545
 
  Orbital energies (hartrees): 
   -77.04458   -38.47459   -19.03260   -10.18679   -10.18262   -10.17904
   -10.17810   -10.17311   -10.17101   -10.16977   -10.16921   -10.16858
   -10.16501   -10.16156   -10.15716   -10.15432   -10.15217   -10.15019
   -10.14814   -10.14751   -10.14741   -10.14701   -10.14464   -10.14250
   -10.13802   -10.12238   -10.11383   -10.10030    -6.54404    -4.70225
    -4.70181    -4.69839    -3.25361    -2.23605    -1.98396    -1.97371
    -1.97083    -1.16468    -1.16415    -1.16181    -0.91212    -0.86095
    -0.83535    -0.81830    -0.80176    -0.77170    -0.75758    -0.74490
    -0.73535    -0.71188    -0.69490    -0.69044    -0.68454    -0.67834
    -0.67624    -0.65586    -0.65027    -0.63696    -0.60766    -0.59090
    -0.57751    -0.56538    -0.54383    -0.53175    -0.51068    -0.49507
    -0.48252    -0.45916    -0.45747    -0.45296    -0.44953    -0.44446
    -0.44317    -0.43579    -0.42997    -0.42511    -0.42200    -0.41391
    -0.41325    -0.41127    -0.40726    -0.40091    -0.39409    -0.39217
    -0.38649    -0.37854    -0.37608    -0.37334    -0.37003    -0.36709
    -0.36400    -0.35948    -0.35747    -0.35567    -0.35082    -0.34421
    -0.33829    -0.33638    -0.33230    -0.32499    -0.32286    -0.31969
    -0.31686    -0.31306    -0.30498    -0.29591    -0.28637    -0.27930
    -0.25931    -0.25540    -0.24565    -0.24236    -0.23669    -0.21692
    -0.20152    -0.19426    -0.18207    -0.17318    -0.15786    -0.11991
    -0.04545    -0.01677    -0.00569     0.00468     0.01357     0.02136
     0.02701     0.03920     0.04637     0.06274
 
  end of program scf
   
 Time(scf)  user:     432.247  user+sys:     432.247  wallclock:      42.601
  
  start of program der1a
  
  end of program der1a
   
 Time(der1a)  user:      11.712  user+sys:      11.712  wallclock:       1.261
  
  start of program rwr
  
  end of program rwr
   
 Time(rwr)  user:      24.296  user+sys:      24.296  wallclock:      11.317
  
  start of program der1b
  
   
  forces (hartrees/bohr) : total     
   
 atom  label           x              y              z
 ---- --------   -------------  -------------  -------------
    1 P1          9.231501E-03   1.963598E-03   1.321808E-02
    2 Pd2        -1.857604E-02  -1.370601E-02  -1.994814E-02
    3 C3          1.322730E-03  -6.303915E-04  -5.638919E-03
    4 C4         -5.322178E-04  -3.687581E-04  -8.300698E-05
    5 C5         -5.689861E-04  -3.059032E-04   2.009789E-03
    6 C6         -3.078539E-04   1.541112E-03  -1.830937E-03
    7 C7          5.469076E-04   5.986020E-04   3.188426E-04
    8 C8         -3.857778E-03  -7.102121E-04  -9.811715E-04
    9 C9          3.055278E-03   6.032818E-03  -4.645186E-03
   10 C10         8.298431E-02  -2.877019E-02  -1.064124E-02
   11 C11         1.088410E-02   1.042682E-03   8.947787E-03
   12 C12         5.115803E-04  -1.455860E-04   1.643292E-03
   13 C13         5.869193E-05  -1.366710E-04  -1.499235E-03
   14 C14        -1.582228E-03  -1.756269E-04  -5.895982E-05
   15 C15        -4.252238E-04  -1.541019E-05   1.028533E-03
   16 C16         2.031476E-03   1.276597E-04   4.461995E-04
   17 C17        -3.617293E-04   2.160650E-04   7.335979E-04
   18 C18         2.286169E-04  -8.831032E-04   6.736971E-04
   19 C19         1.744857E-05   6.713695E-05   3.274428E-04
   20 C20        -5.803081E-04  -2.864044E-04  -1.644616E-03
   21 C21         2.219114E-04  -2.797121E-04   1.282365E-04
   22 C22        -2.578185E-04  -1.427727E-03  -1.153877E-03
   23 C23        -3.100957E-06   1.424486E-03  -5.010612E-04
   24 H24         1.592812E-03  -8.987511E-04   5.072787E-04
   25 H25         6.386863E-04   3.011717E-04  -6.732307E-04
   26 H26         1.171322E-01  -3.878143E-02  -1.395999E-02
   27 H27         1.350824E-04   9.229100E-05  -3.868715E-04
   28 H28        -6.244620E-04   2.405519E-05  -1.560093E-04
   29 H29        -2.914286E-04   1.853868E-05  -7.951799E-05
   30 H30         8.958220E-05   1.914702E-05   3.263667E-04
   31 H31        -1.348629E-04   5.604418E-05   8.071758E-05
   32 H32         2.544878E-04  -9.223824E-05   5.571491E-05
   33 H33        -8.051226E-05   1.649704E-04  -2.403239E-04
   34 H34        -7.602824E-05  -2.188843E-04  -4.077355E-04
   35 H35        -4.311818E-04   2.153570E-04  -9.520382E-05
   36 H36         2.350250E-04  -3.505575E-05  -9.597483E-05
   37 H37        -1.760698E-04  -5.005980E-05   3.655743E-06
   38 H38        -5.222908E-05  -1.691451E-04  -2.447666E-04
   39 H39         1.700725E-05  -1.742692E-04  -8.723278E-05
   40 H40         4.760205E-05  -2.471661E-05  -3.088045E-05
   41 H41         1.385856E-04  -7.169474E-05   2.973218E-04
   42 H42         1.322304E-04   8.999566E-04   5.718422E-04
   43 H43        -1.260776E-04  -3.332160E-04  -4.006747E-04
   44 H44        -1.403388E-04   3.379120E-05   2.003828E-04
   45 H45         6.660526E-05   1.478136E-04  -2.432634E-04
   46 H46         1.908690E-04   6.568063E-06   1.599393E-04
   47 H47         1.158826E-04   1.555290E-03   3.691267E-04
   48 H48         1.323817E-04   5.325097E-05   5.645227E-04
   49 H49        -1.799081E-04  -5.288207E-04  -9.486783E-04
   50 H50        -6.631794E-05  -7.406239E-04  -1.675933E-04
   51 H51        -1.404738E-04  -2.559952E-04  -7.109517E-04
   52 H52         5.698658E-04  -8.320547E-04   4.842463E-04
   53 O93        -2.723928E-02  -8.603972E-03   1.429692E-02
   54 Na94        4.782978E-03   1.599831E-02  -3.179692E-03
   55 C95        -3.537679E-03  -2.473675E-03   1.067341E-03
   56 C96        -4.494015E-04   8.815011E-04   6.579711E-04
   57 H97         4.424596E-04  -6.066847E-04  -6.333579E-05
   58 H98         3.387790E-04  -5.632600E-04  -5.948262E-06
   59 H99        -6.570760E-04  -2.023687E-04  -8.973699E-04
   60 C100       -4.922347E-02   2.792524E-02   1.033457E-02
   61 H101       -6.016248E-03  -1.207177E-03  -2.077185E-03
   62 H102        5.417387E-04   2.138863E-03   1.722665E-03
   63 H103       -1.241337E-01   4.063440E-02   1.231219E-02
   64 C104        4.038623E-06   8.913739E-04  -1.483225E-04
   65 H105        1.015926E-04  -6.483146E-04   3.471376E-04
   66 H106        5.837530E-04  -7.349892E-04  -6.449437E-04
   67 H107        4.970352E-04  -8.606651E-04   4.212182E-04
 -------------   -------------  -------------  -------------
     total       -9.541926E-04  -1.877682E-03  -3.154237E-04
   
  end of program der1b
   
 Time(der1b)  user:     147.444  user+sys:     147.444  wallclock:      13.398
  
  start of program geopt
  
 ----------------------------------------------------------------------------
  Geometry optimization step  1
  Total energy:     -1680.79139828570 hartrees
 ----------------------------------------------------------------------------
  
  
  Level shifts adjusted to satisfy step-size constraints
   Step size:    0.3000639
   Cos(theta):   0.1670198
   Final level shift:  -2.3026585E-01
  
  gradient maximum:        1.9799E+00 .  (  2.2500E-03 )
  gradient rms:            2.4937E-01 .  (  1.5000E-03 )
  displacement maximum:    1.4358E-01 .  (  9.0000E-03 )
  displacement rms:        2.0512E-02 .  (  6.0000E-03 )
  
  predicted energy change:  -1.0178E-01
  step size:     0.30006
  trust radius:  0.30000
  
  molecular structure not yet converged...
  
  center of mass moved by:
     x:    -3.9952E-02     y:     1.6268E-02     z:     3.7985E-02
  
  new geometry: 
                                   angstroms
  atom               x                 y                 z
  P1            0.0203279896     -0.0071078508      0.0435674735 
  Pd2          -0.0795136717      0.0407714480      2.2879861517 
  C3            1.8502602899     -0.0111460287     -0.3049151845 
  C4           -0.5216340883      1.6268196633     -0.7829155450 
  C5           -0.6405358191     -1.5257618705     -0.9096829354 
  C6            2.4462625454     -0.1991694176      2.2183067602 
  C7            2.8878426372     -1.4060057188      2.8317334436 
  C8            2.9161135603     -1.4982509574      4.2259926044 
  C9            2.5026944473     -0.4408666922      5.0347992639 
  C10           2.0759363072      0.7428691986      4.4473745673 
  C11           2.0735670071      0.8865385432      3.0542956868 
  C12           2.7738982290     -0.0223680933      0.7616857216 
  C13           4.1428865252      0.0858289237      0.4703894667 
  C14           4.6169260417      0.1601094975     -0.8341523739 
  C15           3.7121432883      0.1121223709     -1.8905544512 
  C16           2.3508486530      0.0317858386     -1.6179220872 
  C17          -2.0564253700      1.6555226362     -0.7846715314 
  C18          -0.0097678382      2.7325911544      0.1560560897 
  C19           0.0050978372      1.9282602685     -2.1920547996 
  C20           0.2575060653     -2.6990629113     -0.4924630235 
  C21          -0.6981376484     -1.4378710147     -2.4378352300 
  C22          -2.0578751883     -1.7985927594     -0.3767848434 
  C23           3.3295432020     -2.5716547657      1.9838361592 
  H24           3.2630071488     -2.4259243704      4.6823361484 
  H25           2.5203144882     -0.5403278914      6.1172259469 
  H26           1.6503424079      1.5547013654      5.0422804898 
  H27           1.9007353420      1.8625674014      2.6059300576 
  H28           4.8457165344      0.0934885275      1.3009906989 
  H29           5.6848971718      0.2427668045     -1.0228311213 
  H30           4.0602595406      0.1470132540     -2.9205744588 
  H31           1.6594443330      0.0180557376     -2.4527825695 
  H32          -2.4572083450      1.3857095364      0.1995028322 
  H33          -2.4052513969      2.6678552707     -1.0305698248 
  H34          -2.4804198474      0.9745305697     -1.5309796313 
  H35          -0.4181663380      2.6178154484      1.1665584151 
  H36           1.0843747934      2.7196970510      0.2280183203 
  H37          -0.3111330937      3.7148651405     -0.2336958142 
  H38          -0.2571908509      1.1616686044     -2.9253759734 
  H39          -0.4341062123      2.8745295319     -2.5387995877 
  H40           1.0915694437      2.0564202604     -2.1962044968 
  H41           1.2703730599     -2.6077191719     -0.8983009142 
  H42           0.3313112913     -2.7583583413      0.6012625946 
  H43          -0.1730075848     -3.6418334206     -0.8572510980 
  H44           0.2841011593     -1.2675263216     -2.8885068571 
  H45          -1.0758930526     -2.3887580032     -2.8403290275 
  H46          -1.3789516124     -0.6513473363     -2.7782361318 
  H47          -2.0481441736     -1.8898787304      0.7149836752 
  H48          -2.7640115542     -1.0044687899     -0.6374074727 
  H49          -2.4366075608     -2.7370824648     -0.8072522486 
  H50           4.3348276944     -2.4185840227      1.5701397170 
  H51           2.6607460648     -2.7176170482      1.1290176815 
  H52           3.3509877449     -3.4992180845      2.5674427037 
  O93          -0.6210672511     -0.0867893676      4.3595207113 
  Na94         -0.8599171095     -2.2115677002      4.0209124811 
  C95          -1.2918374334      1.0020667931      4.9308192054 
  C96          -2.7364065998      1.0928074290      4.4050880381 
  H97          -3.2835115829      1.9475241099      4.8266977558 
  H98          -3.2880452528      0.1740209347      4.6515757524 
  H99          -2.7124401310      1.1863563472      3.3125057490 
  C100         -0.5862356956      2.3295244934      4.5636997639 
  H101         -0.9826968521      3.1774605468      5.1439289322 
  H102         -0.7425981469      2.5413989107      3.4984227957 
  H103          0.5203052746      2.1986028149      4.6461032124 
  C104         -1.3130524894      0.8225247817      6.4584407374 
  H105         -1.8098878342     -0.1230008169      6.7142946220 
  H106         -1.8472106218      1.6370150196      6.9654305740 
  H107         -0.2906793784      0.7844354879      6.8515682904 
   
 
  bond lengths (angstroms):
 
 P1      -Pd2     :   2.247148      P1      -C3      :   1.862823
 P1      -C4      :   1.909585      P1      -C5      :   1.910952
 Pd2     -O93     :   2.144949      Pd2     -Na94    :   2.947048
 C3      -C12     :   1.410982      C3      -C16     :   1.405852
 C4      -C17     :   1.535061      C4      -C18     :   1.538313
 C4      -C19     :   1.534271      C5      -C20     :   1.535313
 C5      -C21     :   1.531761      C5      -C22     :   1.538593
 C6      -C7      :   1.423987      C6      -C11     :   1.420050
 C6      -C12     :   1.503446      C7      -C8      :   1.397593
 C7      -C23     :   1.507570      C8      -C9      :   1.393967
 C8      -H24     :   1.090487      C9      -C10     :   1.388676
 C9      -H25     :   1.087129      C10     -C11     :   1.400470
 C10     -H26     :   1.092756      C11     -H27     :   1.087904
 C12     -C13     :   1.403812      C13     -C14     :   1.389986
 C13     -H28     :   1.088084      C14     -C15     :   1.391733
 C14     -H29     :   1.087655      C15     -C16     :   1.390649
 C15     -H30     :   1.087816      C16     -H31     :   1.084076
 C17     -H32     :   1.096369      C17     -H33     :   1.098619
 C17     -H34     :   1.095672      C18     -H35     :   1.095937
 C18     -H36     :   1.096582      C18     -H37     :   1.098904
 C19     -H38     :   1.092803      C19     -H39     :   1.099344
 C19     -H40     :   1.094012      C20     -H41     :   1.094965
 C20     -H42     :   1.097816      C20     -H43     :   1.098740
 C21     -H44     :   1.094036      C21     -H45     :   1.099494
 C21     -H46     :   1.094532      C22     -H47     :   1.095621
 C22     -H48     :   1.094160      C22     -H49     :   1.099774
 C23     -H50     :   1.097803      C23     -H51     :   1.095130
 C23     -H52     :   1.096098      O93     -Na94    :   2.164807
 O93     -C95     :   1.400686      C95     -C96     :   1.539937
 C95     -C100    :   1.547512      C95     -C104    :   1.538282
 C96     -H97     :   1.098917      C96     -H98     :   1.099650
 C96     -H99     :   1.096842      C100    -H101    :   1.101291
 C100    -H102    :   1.097340      C100    -H103    :   1.117302
 C104    -H105    :   1.098328      C104    -H106    :   1.098070
 C104    -H107    :   1.096014
 
  bond angles:
 
 C3      -P1      -Pd2     : 103.328702  C4      -P1      -Pd2     : 113.668294
 C4      -P1      -C3      : 101.518765  C5      -P1      -Pd2     : 119.986552
 C5      -P1      -C3      : 104.163072  C5      -P1      -C4      : 111.465462
 O93     -Pd2     -P1      : 167.046071  Na94    -Pd2     -P1      : 125.646887
 Na94    -Pd2     -O93     :  47.140359  C12     -C3      -P1      : 120.109390
 C16     -C3      -P1      : 121.630515  C16     -C3      -C12     : 118.239570
 C17     -C4      -P1      : 107.472966  C18     -C4      -P1      : 104.858762
 C18     -C4      -C17     : 108.659565  C19     -C4      -P1      : 117.916433
 C19     -C4      -C17     : 109.787121  C19     -C4      -C18     : 107.766928
 C20     -C5      -P1      : 105.633526  C21     -C5      -P1      : 117.714451
 C21     -C5      -C20     : 109.691427  C22     -C5      -P1      : 106.661915
 C22     -C5      -C20     : 108.010581  C22     -C5      -C21     : 108.727738
 C11     -C6      -C7      : 118.408171  C12     -C6      -C7      : 116.708443
 C12     -C6      -C11     : 122.524046  C8      -C7      -C6      : 119.469753
 C23     -C7      -C6      : 120.255844  C23     -C7      -C8      : 120.273275
 C9      -C8      -C7      : 121.518223  H24     -C8      -C7      : 118.689426
 H24     -C8      -C9      : 119.790186  C10     -C9      -C8      : 119.491920
 H25     -C9      -C8      : 120.232059  H25     -C9      -C10     : 120.274901
 C11     -C10     -C9      : 120.580273  H26     -C10     -C9      : 121.512188
 H26     -C10     -C11     : 117.688429  C10     -C11     -C6      : 120.445595
 H27     -C11     -C6      : 119.012538  H27     -C11     -C10     : 120.150161
 C6      -C12     -C3      : 126.204293  C13     -C12     -C3      : 118.743996
 C13     -C12     -C6      : 115.000232  C14     -C13     -C12     : 122.103212
 H28     -C13     -C12     : 118.167597  H28     -C13     -C14     : 119.720656
 C15     -C14     -C13     : 119.264298  H29     -C14     -C13     : 120.115024
 H29     -C14     -C15     : 120.616655  C16     -C15     -C14     : 119.312388
 H30     -C15     -C14     : 120.635560  H30     -C15     -C16     : 120.049141
 C15     -C16     -C3      : 122.236977  H31     -C16     -C3      : 119.456862
 H31     -C16     -C15     : 118.299015  H32     -C17     -C4      : 111.091732
 H33     -C17     -C4      : 109.569091  H33     -C17     -H32     : 108.156897
 H34     -C17     -C4      : 112.089954  H34     -C17     -H32     : 108.482962
 H34     -C17     -H33     : 107.300822  H35     -C18     -C4      : 111.317110
 H36     -C18     -C4      : 111.322009  H36     -C18     -H35     : 108.063989
 H37     -C18     -C4      : 109.559682  H37     -C18     -H35     : 108.568741
 H37     -C18     -H36     : 107.903644  H38     -C19     -C4      : 113.334253
 H39     -C19     -C4      : 108.762328  H39     -C19     -H38     : 107.233694
 H40     -C19     -C4      : 111.558093  H40     -C19     -H38     : 108.541557
 H40     -C19     -H39     : 107.141317  H41     -C20     -C5      : 112.122949
 H42     -C20     -C5      : 110.569129  H42     -C20     -H41     : 108.154272
 H43     -C20     -C5      : 109.652686  H43     -C20     -H41     : 108.117814
 H43     -C20     -H42     : 108.105407  H44     -C21     -C5      : 112.714294
 H45     -C21     -C5      : 109.178110  H45     -C21     -H44     : 106.997121
 H46     -C21     -C5      : 112.017614  H46     -C21     -H44     : 108.569334
 H46     -C21     -H45     : 107.092405  H47     -C22     -C5      : 110.593101
 H48     -C22     -C5      : 112.538808  H48     -C22     -H47     : 107.671563
 H49     -C22     -C5      : 109.450072  H49     -C22     -H47     : 108.783709
 H49     -C22     -H48     : 107.689965  H50     -C23     -C7      : 111.865660
 H51     -C23     -C7      : 111.292878  H51     -C23     -H50     : 106.479362
 H52     -C23     -C7      : 111.136145  H52     -C23     -H50     : 107.501082
 H52     -C23     -H51     : 108.346438  Na94    -O93     -Pd2     :  86.282678
 C95     -O93     -Pd2     : 117.942697  C95     -O93     -Na94    : 140.710770
 O93     -Na94    -Pd2     :  46.576963  C96     -C95     -O93     : 110.841866
 C100    -C95     -O93     : 110.592499  C100    -C95     -C96     : 107.228604
 C104    -C95     -O93     : 108.718352  C104    -C95     -C96     : 109.449257
 C104    -C95     -C100    : 109.998479  H97     -C96     -C95     : 112.449943
 H98     -C96     -C95     : 110.171067  H98     -C96     -H97     : 108.306999
 H99     -C96     -C95     : 108.941367  H99     -C96     -H97     : 109.069286
 H99     -C96     -H98     : 107.788449  H101    -C100    -C95     : 111.797611
 H102    -C100    -C95     : 109.326690  H102    -C100    -H101    : 108.150259
 H103    -C100    -C95     : 109.484793  H103    -C100    -H101    : 114.072476
 H103    -C100    -H102    : 103.611758  H105    -C104    -C95     : 109.758154
 H106    -C104    -C95     : 112.249791  H106    -C104    -H105    : 108.116431
 H107    -C104    -C95     : 110.328002  H107    -C104    -H105    : 107.968172
 H107    -C104    -H106    : 108.296519
 
  torsional angles:
 
 P1      -Pd2     -O93     -Na94    :  60.823655
 P1      -Pd2     -O93     -C95     : -86.686060
 P1      -Pd2     -Na94    -O93     :-166.062896
 P1      -C3      -C12     -C6      :   7.922498
 P1      -C3      -C12     -C13     :-174.826420
 P1      -C3      -C16     -C15     : 175.963598
 P1      -C3      -C16     -H31     :  -3.046997
 P1      -C4      -C17     -H32     :  47.312354
 P1      -C4      -C17     -H33     : 166.756763
 P1      -C4      -C17     -H34     : -74.237697
 P1      -C4      -C18     -H35     : -58.076285
 P1      -C4      -C18     -H36     :  62.562580
 P1      -C4      -C18     -H37     :-178.169455
 P1      -C4      -C19     -H38     :  58.235773
 P1      -C4      -C19     -H39     : 177.399348
 P1      -C4      -C19     -H40     : -64.638398
 P1      -C5      -C20     -H41     : -70.158786
 P1      -C5      -C20     -H42     :  50.624559
 P1      -C5      -C20     -H43     : 169.733464
 P1      -C5      -C21     -H44     :  59.999049
 P1      -C5      -C21     -H45     : 178.757384
 P1      -C5      -C21     -H46     : -62.797788
 P1      -C5      -C22     -H47     : -53.392517
 P1      -C5      -C22     -H48     :  67.073813
 P1      -C5      -C22     -H49     :-173.226027
 Pd2     -P1      -C3      -C12     :   1.680000
 Pd2     -P1      -C3      -C16     :-176.642786
 Pd2     -P1      -C4      -C17     : -79.165782
 Pd2     -P1      -C4      -C18     :  36.336013
 Pd2     -P1      -C4      -C19     : 156.193855
 Pd2     -P1      -C5      -C20     : -64.138301
 Pd2     -P1      -C5      -C21     : 173.024781
 Pd2     -P1      -C5      -C22     :  50.626493
 Pd2     -O93     -C95     -C96     :  71.417778
 Pd2     -O93     -C95     -C100    : -47.371735
 Pd2     -O93     -C95     -C104    :-168.239033
 Pd2     -Na94    -O93     -C95     : 131.463416
 C3      -P1      -Pd2     -O93     :-159.183922
 C3      -P1      -Pd2     -Na94    :-107.222578
 C3      -P1      -C4      -C17     : 170.578653
 C3      -P1      -C4      -C18     : -73.919552
 C3      -P1      -C4      -C19     :  45.938290
 C3      -P1      -C5      -C20     :  50.704293
 C3      -P1      -C5      -C21     : -72.132625
 C3      -P1      -C5      -C22     : 165.469087
 C3      -C12     -C6      -C7      : 111.989216
 C3      -C12     -C6      -C11     : -85.748396
 C3      -C12     -C13     -C14     :  -2.105293
 C3      -C12     -C13     -H28     : 178.961231
 C3      -C16     -C15     -C14     :  -0.389135
 C3      -C16     -C15     -H30     :-179.772539
 C4      -P1      -Pd2     -O93     :  91.674250
 C4      -P1      -Pd2     -Na94    : 143.635594
 C4      -P1      -C3      -C12     : 119.669916
 C4      -P1      -C3      -C16     : -58.652869
 C4      -P1      -C5      -C20     : 159.399127
 C4      -P1      -C5      -C21     :  36.562209
 C4      -P1      -C5      -C22     : -85.836079
 C5      -P1      -Pd2     -O93     : -43.904827
 C5      -P1      -Pd2     -Na94    :   8.056517
 C5      -P1      -C3      -C12     :-124.443069
 C5      -P1      -C3      -C16     :  57.234145
 C5      -P1      -C4      -C17     :  60.185643
 C5      -P1      -C4      -C18     : 175.687438
 C5      -P1      -C4      -C19     : -64.454720
 C6      -C7      -C8      -C9      :   0.952375
 C6      -C7      -C8      -H24     :-179.584209
 C6      -C7      -C23     -H50     :  76.716469
 C6      -C7      -C23     -H51     : -42.260415
 C6      -C7      -C23     -H52     :-163.114907
 C6      -C11     -C10     -C9      :   3.068606
 C6      -C11     -C10     -H26     :-171.633674
 C6      -C12     -C3      -C16     :-173.698482
 C6      -C12     -C13     -C14     : 175.447444
 C6      -C12     -C13     -H28     :  -3.486033
 C7      -C6      -C11     -C10     :  -3.289190
 C7      -C6      -C11     -H27     : 169.538193
 C7      -C6      -C12     -C13     : -65.351496
 C7      -C8      -C9      -C10     :  -1.243095
 C7      -C8      -C9      -H25     : 179.140802
 C8      -C7      -C6      -C11     :   1.300630
 C8      -C7      -C6      -C12     : 164.320178
 C8      -C7      -C23     -H50     :-102.895123
 C8      -C7      -C23     -H51     : 138.127993
 C8      -C7      -C23     -H52     :  17.273501
 C8      -C9      -C10     -C11     :  -0.778991
 C8      -C9      -C10     -H26     : 173.717860
 C9      -C8      -C7      -C23     :-179.432985
 C9      -C10     -C11     -H27     :-169.677040
 C10     -C9      -C8      -H24     : 179.299291
 C10     -C11     -C6      -C12     :-165.265388
 C11     -C6      -C7      -C23     :-178.314078
 C11     -C6      -C12     -C13     :  96.910893
 C11     -C10     -C9      -H25     : 178.836943
 C12     -C3      -C16     -C15     :  -2.389481
 C12     -C3      -C16     -H31     : 178.599923
 C12     -C6      -C7      -C23     : -15.294530
 C12     -C6      -C11     -H27     :   7.561995
 C12     -C13     -C14     -C15     :  -0.690531
 C12     -C13     -C14     -H29     :-179.965428
 C13     -C12     -C3      -C16     :   3.552600
 C13     -C14     -C15     -C16     :   1.935272
 C13     -C14     -C15     -H30     :-178.685030
 C14     -C15     -C16     -H31     : 178.632428
 C15     -C14     -C13     -H28     : 178.226834
 C16     -C15     -C14     -H29     :-178.793561
 C17     -C4      -C18     -H35     :  56.598760
 C17     -C4      -C18     -H36     : 177.237625
 C17     -C4      -C18     -H37     : -63.494410
 C17     -C4      -C19     -H38     : -65.250607
 C17     -C4      -C19     -H39     :  53.912967
 C17     -C4      -C19     -H40     : 171.875222
 C18     -C4      -C17     -H32     : -65.645684
 C18     -C4      -C17     -H33     :  53.798724
 C18     -C4      -C17     -H34     : 172.804264
 C18     -C4      -C19     -H38     : 176.563780
 C18     -C4      -C19     -H39     : -64.272645
 C18     -C4      -C19     -H40     :  53.689610
 C19     -C4      -C17     -H32     : 176.723242
 C19     -C4      -C17     -H33     : -63.832350
 C19     -C4      -C17     -H34     :  55.173190
 C19     -C4      -C18     -H35     : 175.507105
 C19     -C4      -C18     -H36     : -63.854030
 C19     -C4      -C18     -H37     :  55.413934
 C20     -C5      -C21     -H44     : -60.752805
 C20     -C5      -C21     -H45     :  58.005530
 C20     -C5      -C21     -H46     : 176.450358
 C20     -C5      -C22     -H47     :  59.754641
 C20     -C5      -C22     -H48     :-179.779029
 C20     -C5      -C22     -H49     : -60.078869
 C21     -C5      -C20     -H41     :  57.653418
 C21     -C5      -C20     -H42     : 178.436763
 C21     -C5      -C20     -H43     : -62.454333
 C21     -C5      -C22     -H47     : 178.724399
 C21     -C5      -C22     -H48     : -60.809271
 C21     -C5      -C22     -H49     :  58.890890
 C22     -C5      -C20     -H41     : 176.008915
 C22     -C5      -C20     -H42     : -63.207740
 C22     -C5      -C20     -H43     :  55.901164
 C22     -C5      -C21     -H44     :-178.662920
 C22     -C5      -C21     -H45     : -59.904586
 C22     -C5      -C21     -H46     :  58.540243
 C23     -C7      -C8      -H24     :   0.030430
 H24     -C8      -C9      -H25     :  -0.316811
 H25     -C9      -C10     -H26     :  -6.666205
 H26     -C10     -C11     -H27     :  15.620680
 H28     -C13     -C14     -H29     :  -1.048063
 H29     -C14     -C15     -H30     :   0.586137
 H30     -C15     -C16     -H31     :  -0.750976
 O93     -C95     -C96     -H97     :-179.223595
 O93     -C95     -C96     -H98     :  59.855108
 O93     -C95     -C96     -H99     : -58.190070
 O93     -C95     -C100    -H101    :-169.719684
 O93     -C95     -C100    -H102    :  70.558236
 O93     -C95     -C100    -H103    : -42.311503
 O93     -C95     -C104    -H105    : -58.474368
 O93     -C95     -C104    -H106    :-178.734746
 O93     -C95     -C104    -H107    :  60.382779
 Na94    -Pd2     -O93     -C95     :-147.509715
 Na94    -O93     -C95     -C96     : -50.750459
 Na94    -O93     -C95     -C100    :-169.539972
 Na94    -O93     -C95     -C104    :  69.592730
 C96     -C95     -C100    -H101    :  69.320178
 C96     -C95     -C100    -H102    : -50.401902
 C96     -C95     -C100    -H103    :-163.271642
 C96     -C95     -C104    -H105    :  62.726800
 C96     -C95     -C104    -H106    : -57.533577
 C96     -C95     -C104    -H107    :-178.416052
 H97     -C96     -C95     -C100    : -58.421160
 H97     -C96     -C95     -C104    :  60.868995
 H98     -C96     -C95     -C100    :-179.342456
 H98     -C96     -C95     -C104    : -60.052302
 H99     -C96     -C95     -C100    :  62.612366
 H99     -C96     -C95     -C104    :-178.097480
 C100    -C95     -C104    -H105    :-179.706562
 C100    -C95     -C104    -H106    :  60.033061
 C100    -C95     -C104    -H107    : -60.849414
 H101    -C100    -C95     -C104    : -49.616395
 H102    -C100    -C95     -C104    :-169.338476
 H103    -C100    -C95     -C104    :  77.791785
 
  nuclear repulsion energy.......          3729.613016063 hartrees
 -------------------------------------------------
   end of geometry optimization iteration  1
 -------------------------------------------------
   
  end of program geopt
   
 Time(geopt)  user:       1.611  user+sys:       1.611  wallclock:       0.658
  
  start of program onee
  
  smallest eigenvalue of S:    4.031E-04
  number of canonical orbitals.....          505
  end of program onee
   
 Time(onee)  user:       4.131  user+sys:       4.131  wallclock:       0.800
  
  start of program probe
  
  end of program probe
   
 Time(probe)  user:       0.850  user+sys:       0.850  wallclock:       0.250
  
  start of program grid
  
  end of program grid
   
 Time(grid)  user:     232.796  user+sys:     232.796  wallclock:      16.486
  
  start of program rwr
  
  end of program rwr
   
 Time(rwr)  user:      46.556  user+sys:      46.556  wallclock:      10.241
  
  start of program scf
  
 Energy computed using pseudospectral method.
 Convergence Criterion:
    Energy (econv):       1.00E-05
    RMS density (dconv):  5.00E-06
  
       i  u  d  i  g                   
       t  p  i  c  r                                 RMS    maximum
       e  d  i  u  i                       energy  density   DIIS  
       r  t  s  t  d       total energy    change  change    error 
  
etot    1  N  N  2  U   -1680.68120299125           8.4E-04  3.2E-02
etot    2  Y  Y  6  M   -1680.76557875351  8.4E-02  2.8E-04  2.8E-03
etot    3  N  Y  2  U   -1680.76350540054 -2.1E-03  1.6E-04  4.9E-03
etot    4  Y  Y  6  M   -1680.76869723930  5.2E-03  5.1E-05  1.4E-03
etot    5  N  Y  2  U   -1680.76913818405  4.4E-04  2.4E-05  6.7E-04
etot    6  N  Y  2  U   -1680.76918638179  4.8E-05  1.2E-05  2.2E-04
etot    7  N  Y  2  U   -1680.76919733256  1.1E-05  4.5E-06  8.7E-05
etot    8  N  N  2  U   -1680.76919851224  1.2E-06  0.0E+00  0.0E+00
 
  Computing the dispersion energy correction and its gradients...
  
  
 Energy components, in hartrees:
   (A)  Nuclear repulsion............    3729.61301606343
   (E)  Total one-electron terms.....   -9780.25584557985
   (F)    Electron-nuclear...........  -11372.11262867065
   (H)    Kinetic....................    1591.85678309080
   (I)  Total two-electron terms.....    4369.87363100417
   (J)    Coulomb....................    4578.65587261206
   (K)    Exchange+Correlation.......    -208.78224160789
   (L)  Electronic energy............   -5410.38221457568  (E+I)
   (N0) D3 correction................      -0.12384911262
   (N)  Total energy.................   -1680.89304762486  (A+L+N0)
   (O)  Gas phase energy.............   -1680.89304762486
  
 SCFE: SCF energy: DFT(b3pw91-d3)     -1680.89304762486 hartrees   iterations:   8
  
 
 HOMO energy:    -0.12579
 LUMO energy:    -0.04496
 
  Orbital energies (hartrees): 
   -77.04485   -38.47412   -19.03370   -10.18646   -10.18193   -10.17922
   -10.17802   -10.17270   -10.17234   -10.16972   -10.16864   -10.16814
   -10.16515   -10.16430   -10.15772   -10.15651   -10.15277   -10.15226
   -10.14957   -10.14955   -10.14817   -10.14776   -10.14702   -10.14671
   -10.14178   -10.12163   -10.11485   -10.11393    -6.54430    -4.70250
    -4.70205    -4.69867    -3.24617    -2.23589    -1.97843    -1.96589
    -1.96177    -1.16457    -1.16397    -1.16164    -0.90681    -0.86320
    -0.83787    -0.81861    -0.80165    -0.76979    -0.75445    -0.74519
    -0.73050    -0.71449    -0.69086    -0.68518    -0.67865    -0.67581
    -0.67378    -0.65666    -0.64933    -0.63784    -0.60923    -0.59187
    -0.57408    -0.56132    -0.54360    -0.52325    -0.50104    -0.49654
    -0.48043    -0.45974    -0.45646    -0.45313    -0.44638    -0.44379
    -0.43797    -0.43614    -0.42918    -0.42311    -0.42188    -0.41310
    -0.41106    -0.40908    -0.40776    -0.40170    -0.39389    -0.39028
    -0.38635    -0.37947    -0.37638    -0.37345    -0.36985    -0.36416
    -0.36280    -0.36110    -0.35930    -0.35540    -0.35129    -0.34457
    -0.33706    -0.33375    -0.33110    -0.32545    -0.32329    -0.31927
    -0.31826    -0.31511    -0.30775    -0.29546    -0.29018    -0.28575
    -0.27885    -0.25696    -0.24510    -0.24181    -0.23757    -0.21666
    -0.20206    -0.18965    -0.17702    -0.17326    -0.16273    -0.12579
    -0.04496    -0.01580    -0.00756     0.00639     0.01287     0.01684
     0.02576     0.03998     0.04474     0.06032
 
  end of program scf
   
 Time(scf)  user:     355.784  user+sys:     355.784  wallclock:      34.504
  
  start of program der1a
  
  end of program der1a
   
 Time(der1a)  user:      11.287  user+sys:      11.287  wallclock:       1.191
  
  start of program rwr
  
  end of program rwr
   
 Time(rwr)  user:      22.506  user+sys:      22.506  wallclock:      10.515
  
  start of program der1b
  
   
  forces (hartrees/bohr) : total     
   
 atom  label           x              y              z
 ---- --------   -------------  -------------  -------------
    1 P1          1.224581E-02   1.230526E-03   9.702831E-03
    2 Pd2        -1.487934E-02  -9.987685E-03  -1.083181E-02
    3 C3         -9.684845E-04  -1.380486E-03  -5.026616E-03
    4 C4         -2.396587E-03  -5.676725E-04   1.125115E-04
    5 C5         -2.235521E-03   6.084560E-04   1.911694E-03
    6 C6          9.866931E-03   2.410327E-04   4.180338E-03
    7 C7         -3.455827E-03   1.534487E-03  -2.578932E-03
    8 C8         -3.748198E-03  -3.881628E-03  -1.743234E-03
    9 C9         -1.098686E-03   3.094046E-03  -8.188904E-05
   10 C10         8.822860E-03  -1.623265E-04   1.712377E-04
   11 C11         7.184431E-03  -4.395473E-03  -2.918539E-03
   12 C12        -1.794646E-03   2.753997E-03   1.009082E-03
   13 C13         1.673768E-03   1.681183E-04  -8.411204E-04
   14 C14        -5.377723E-05  -4.051944E-05   9.493883E-04
   15 C15        -5.990652E-04  -2.146658E-04  -2.753075E-04
   16 C16         1.944155E-03  -4.920776E-04  -6.025579E-04
   17 C17        -2.557995E-04   7.383051E-04   8.224640E-05
   18 C18         4.795667E-04  -5.807629E-04   2.303459E-04
   19 C19        -1.096497E-03   2.215895E-03   3.398631E-04
   20 C20        -4.743161E-04  -1.211543E-04  -4.727259E-04
   21 C21        -5.827558E-05  -2.149539E-04  -2.868309E-04
   22 C22        -7.168181E-05  -1.659043E-03  -7.381833E-04
   23 C23         1.565845E-04  -6.786065E-04   3.666088E-04
   24 H24         5.757870E-04   5.186493E-04  -3.795165E-05
   25 H25        -7.851771E-04  -5.855106E-07   1.327233E-04
   26 H26         2.017182E-02  -1.196276E-02   2.122203E-03
   27 H27        -2.073699E-03   1.012165E-04  -8.956419E-05
   28 H28        -3.709686E-04   2.518333E-04  -2.119272E-04
   29 H29        -1.015930E-04   3.595419E-05   1.411278E-04
   30 H30        -8.589148E-05  -7.201261E-05   7.143904E-05
   31 H31         1.983069E-03  -1.218938E-03   1.231797E-03
[...]
    O93      X    -0.00000  -0.00004  -0.00000   0.00004  -0.00000   0.00002
    O93      Y    -0.00000   0.00002  -0.00000  -0.00003  -0.00000   0.00002
    O93      Z     0.00000  -0.00001  -0.00001   0.00003  -0.00000   0.00007
    Na94     X     0.00000   0.00001   0.00000  -0.00001   0.00000   0.00000
    Na94     Y     0.00000   0.00000  -0.00000  -0.00000   0.00000  -0.00000
    Na94     Z     0.00000   0.00001   0.00000  -0.00001   0.00000  -0.00001
    C95      X     0.00001   0.00006  -0.00001  -0.00007   0.00000  -0.00006
    C95      Y     0.00001  -0.00006   0.00002   0.00006   0.00000  -0.00001
    C95      Z    -0.00000  -0.00001   0.00001  -0.00002  -0.00000  -0.00006
    C96      X     0.00001  -0.00002   0.00000   0.00000   0.00001  -0.00001
    C96      Y     0.00002  -0.00008   0.00001   0.00010   0.00001  -0.00001
    C96      Z     0.00001  -0.00000   0.00003  -0.00003   0.00000  -0.00010
    H97      X     0.00002  -0.00024   0.00008   0.00025  -0.00000  -0.00013
    H97      Y    -0.00006   0.00051  -0.00019  -0.00056   0.00002   0.00037
    H97      Z    -0.00006   0.00046  -0.00017  -0.00054   0.00002   0.00028
    H98      X    -0.00017   0.00039  -0.00001  -0.00038  -0.00007   0.00004
    H98      Y    -0.00028   0.00062   0.00001  -0.00060  -0.00012   0.00003
    H98      Z     0.00009  -0.00020   0.00000   0.00018   0.00004  -0.00004
    H99      X    -0.00005  -0.00014  -0.00009   0.00035  -0.00003   0.00046
    H99      Y     0.00007   0.00006   0.00008  -0.00021   0.00003  -0.00034
    H99      Z    -0.00020  -0.00031  -0.00024   0.00085  -0.00010   0.00115
    C100     X    -0.00005   0.00136  -0.00015  -0.00078  -0.00004  -0.00191
    C100     Y     0.00001  -0.00048   0.00005   0.00030   0.00001   0.00046
    C100     Z    -0.00001  -0.00016   0.00006   0.00007   0.00002  -0.00023
    H101     X     0.00001  -0.00080   0.00012   0.00062   0.00002  -0.00042
    H101     Y    -0.00005   0.00319  -0.00054  -0.00225  -0.00008  -0.00040
    H101     Z    -0.00006   0.00307  -0.00055  -0.00229  -0.00007  -0.00053
    H102     X     0.00013  -0.00029  -0.00011   0.00076  -0.00009   0.00211
    H102     Y    -0.00006   0.00067   0.00009  -0.00075   0.00006  -0.00196
    H102     Z     0.00023  -0.00180  -0.00012   0.00209  -0.00014   0.00545
    H103     X     0.00051  -0.01564   0.00179   0.00828   0.00054   0.02175
    H103     Y    -0.00006   0.00190  -0.00024  -0.00072  -0.00008  -0.00331
    H103     Z    -0.00005   0.00062  -0.00008  -0.00067  -0.00001  -0.00230
    C104     X     0.00006   0.00076   0.00000  -0.00125   0.00008  -0.00088
    C104     Y     0.00001  -0.00025   0.00002   0.00021   0.00000  -0.00004
    C104     Z    -0.00002  -0.00026   0.00001   0.00034  -0.00002   0.00015
    H105     X    -0.00021  -0.00055  -0.00004   0.00163  -0.00017   0.00182
    H105     Y    -0.00041  -0.00112  -0.00006   0.00287  -0.00031   0.00306
    H105     Z     0.00013   0.00030   0.00002  -0.00079   0.00009  -0.00088
    H106     X    -0.00001  -0.00087   0.00005   0.00093  -0.00003   0.00008
    H106     Y     0.00009   0.00288  -0.00019  -0.00330   0.00015  -0.00076
    H106     Z     0.00007   0.00284  -0.00021  -0.00319   0.00013  -0.00058
    H107     X    -0.00055  -0.00801  -0.00003   0.01293  -0.00073   0.00902
    H107     Y     0.00011   0.00130   0.00002  -0.00236   0.00015  -0.00190
    H107     Z     0.00001  -0.00005   0.00001  -0.00006   0.00000  -0.00018
  
  vibration #          193       194       195
                 --------- --------- ---------
  frequencies      3207.37   3210.88   3263.76
  intensities        22.72     12.27      9.34
  reduc. mass         0.42      0.46      0.90
  force const         2.55      2.81      5.63
    P1       X     0.00005   0.00001  -0.00002
    P1       Y    -0.00000  -0.00002  -0.00002
    P1       Z    -0.00003   0.00002  -0.00010
    Pd2      X    -0.00000   0.00000   0.00000
    Pd2      Y    -0.00000   0.00000   0.00000
    Pd2      Z     0.00000  -0.00000  -0.00000
    C3       X     0.00009   0.00005  -0.00106
    C3       Y     0.00002  -0.00003   0.00061
    C3       Z     0.00021  -0.00015   0.00207
    C4       X    -0.00001  -0.00004   0.00009
    C4       Y    -0.00002  -0.00004   0.00001
    C4       Z     0.00001   0.00001  -0.00006
    C5       X     0.00002  -0.00000   0.00023
    C5       Y     0.00002   0.00001  -0.00006
    C5       Z     0.00003  -0.00001   0.00004
    C6       X    -0.00015   0.00043  -0.00004
    C6       Y    -0.00018   0.00244   0.00001
    C6       Z    -0.00015   0.00132   0.00004
    C7       X    -0.00000   0.00011  -0.00001
    C7       Y     0.00002   0.00064  -0.00002
    C7       Z     0.00011   0.00014  -0.00002
    C8       X    -0.00012   0.00200  -0.00000
    C8       Y    -0.00064   0.00953  -0.00002
    C8       Z     0.00057  -0.00941   0.00004
    C9       X     0.00002  -0.00025  -0.00000
    C9       Y     0.00056  -0.00679   0.00001
    C9       Z     0.00197  -0.02530   0.00004
    C10      X     0.00050  -0.00692   0.00001
    C10      Y     0.00274  -0.03908   0.00006
    C10      Z     0.00061  -0.00880   0.00001
    C11      X     0.00082  -0.01243   0.00002
    C11      Y     0.00264  -0.04247   0.00008
    C11      Z    -0.00319   0.05256  -0.00011
    C12      X     0.00170   0.00000   0.00047
    C12      Y    -0.00034  -0.00020   0.00009
    C12      Z    -0.00071   0.00003   0.00045
    C13      X    -0.02665  -0.00214   0.00077
    C13      Y    -0.00622  -0.00049   0.00019
    C13      Z    -0.03294  -0.00280   0.00100
    C14      X    -0.06520  -0.00396   0.00185
    C14      Y     0.01049   0.00066  -0.00006
    C14      Z     0.01259   0.00081   0.00054
    C15      X    -0.00598  -0.00025   0.00526
    C15      Y     0.00806   0.00040  -0.00296
    C15      Z     0.03074   0.00156  -0.00986
    C16      X    -0.00169  -0.00025  -0.05444
    C16      Y    -0.00075  -0.00004  -0.00759
    C16      Z    -0.00414  -0.00034  -0.05971
    C17      X     0.00003  -0.00001   0.00001
    C17      Y    -0.00001  -0.00009   0.00002
    C17      Z     0.00003  -0.00005  -0.00006
    C18      X     0.00034  -0.00472   0.00003
    C18      Y    -0.00009   0.00079   0.00006
    C18      Z    -0.00009   0.00125  -0.00007
    C19      X     0.00009  -0.00020   0.00074
    C19      Y    -0.00013  -0.00013  -0.00039
    C19      Z    -0.00002  -0.00014  -0.00012
    C20      X     0.00012   0.00005   0.00057
    C20      Y     0.00006   0.00002   0.00002
    C20      Z    -0.00003   0.00002  -0.00029
    C21      X     0.00094   0.00008   0.00307
    C21      Y    -0.00010  -0.00004  -0.00020
    C21      Z    -0.00032  -0.00001  -0.00174
    C22      X     0.00003   0.00001  -0.00005
    C22      Y    -0.00000   0.00000   0.00004
    C22      Z    -0.00000   0.00001  -0.00034
    C23      X    -0.00003  -0.00001   0.00001
    C23      Y    -0.00001   0.00022  -0.00001
    C23      Z    -0.00005  -0.00015   0.00002
    H24      X     0.00132  -0.02118   0.00009
    H24      Y     0.00595  -0.09580   0.00038
    H24      Z    -0.00659   0.10887  -0.00049
    H25      X    -0.00042   0.00491  -0.00002
    H25      Y    -0.00685   0.08714  -0.00014
    H25      Z    -0.02111   0.26929  -0.00045
    H26      X    -0.00527   0.07573  -0.00013
    H26      Y    -0.02946   0.42223  -0.00078
    H26      Z    -0.00572   0.08362  -0.00020
    H27      X    -0.00886   0.13874  -0.00025
    H27      Y    -0.03044   0.49203  -0.00079
    H27      Z     0.03619  -0.58629   0.00099
    H28      X     0.31365   0.02580  -0.00807
    H28      Y     0.06246   0.00474  -0.00163
    H28      Z     0.34604   0.02875  -0.00901
    H29      X     0.72183   0.04404  -0.01489
    H29      Y    -0.11474  -0.00703   0.00211
    H29      Z    -0.13595  -0.00847   0.00162
    H30      X     0.09120   0.00453  -0.03286
    H30      Y    -0.08786  -0.00445   0.02764
    H30      Z    -0.32434  -0.01633   0.10032
    H31      X     0.03820   0.00341   0.63633
    H31      Y     0.00629   0.00049   0.09116
    H31      Z     0.04506   0.00365   0.69469
    H32      X     0.00002   0.00010  -0.00066
    H32      Y    -0.00002  -0.00005  -0.00019
    H32      Z    -0.00001  -0.00002   0.00103
    H33      X    -0.00016  -0.00014   0.00027
    H33      Y     0.00055   0.00075  -0.00068
    H33      Z    -0.00012  -0.00016   0.00013
    H34      X    -0.00019   0.00083   0.00012
    H34      Y    -0.00024   0.00072   0.00015
    H34      Z    -0.00028   0.00098   0.00009
    H35      X    -0.00018   0.00184  -0.00030
    H35      Y    -0.00022   0.00234  -0.00006
    H35      Z     0.00107  -0.01251   0.00096
    H36      X    -0.00386   0.05650  -0.00042
    H36      Y     0.00016  -0.00395   0.00011
    H36      Z     0.00018  -0.00268  -0.00011
    H37      X    -0.00029   0.00153   0.00021
    H37      Y     0.00110  -0.00737  -0.00066
    H37      Z    -0.00031   0.00237   0.00017
    H38      X     0.00035   0.00117   0.00198
    H38      Y     0.00033   0.00155   0.00218
    H38      Z     0.00049   0.00197   0.00246
    H39      X    -0.00037  -0.00022  -0.00137
    H39      Y     0.00134   0.00061   0.00337
    H39      Z    -0.00029  -0.00028  -0.00038
    H40      X    -0.00114   0.00171  -0.00996
    H40      Y    -0.00015  -0.00040  -0.00001
    H40      Z     0.00006  -0.00024  -0.00036
    H41      X    -0.00082  -0.00033  -0.00553
    H41      Y     0.00034   0.00005   0.00147
    H41      Z     0.00037   0.00018   0.00192
    H42      X    -0.00000   0.00003  -0.00038
    H42      Y    -0.00002   0.00007  -0.00026
    H42      Z     0.00041  -0.00027   0.00190
    H43      X    -0.00071  -0.00021  -0.00110
    H43      Y    -0.00084  -0.00021  -0.00099
    H43      Z    -0.00042  -0.00013  -0.00044
    H44      X    -0.01052  -0.00066  -0.05581
    H44      Y    -0.00078  -0.00008  -0.00538
    H44      Z     0.00503   0.00033   0.02054
    H45      X    -0.00076  -0.00003   0.00014
    H45      Y    -0.00143  -0.00006  -0.00260
    H45      Z    -0.00077  -0.00006  -0.00186
    H46      X    -0.00160  -0.00036  -0.00189
    H46      Y     0.00302   0.00054   0.00656
    H46      Z    -0.00074  -0.00014  -0.00207
    H47      X     0.00006   0.00004   0.00037
    H47      Y     0.00000   0.00006  -0.00046
    H47      Z     0.00014  -0.00004   0.00279
    H48      X    -0.00019  -0.00004  -0.00024
    H48      Y     0.00032   0.00006   0.00008
    H48      Z    -0.00004   0.00000   0.00003
    H49      X    -0.00036  -0.00012   0.00031
    H49      Y    -0.00047  -0.00019   0.00052
    H49      Z    -0.00026  -0.00015   0.00048
    H50      X    -0.00028   0.00113  -0.00010
    H50      Y    -0.00018  -0.00109   0.00008
    H50      Z     0.00001  -0.00072   0.00007
    H51      X     0.00047  -0.00035  -0.00012
    H51      Y     0.00013  -0.00065  -0.00008
    H51      Z     0.00022  -0.00037  -0.00009
    H52      X     0.00002  -0.00090   0.00006
    H52      Y    -0.00009  -0.00267   0.00015
    H52      Z     0.00026   0.00291  -0.00028
    O93      X    -0.00000  -0.00000   0.00000
    O93      Y     0.00000   0.00001   0.00000
    O93      Z     0.00002   0.00003  -0.00002
    Na94     X     0.00000   0.00001  -0.00000
    Na94     Y     0.00001   0.00000  -0.00001
    Na94     Z    -0.00001  -0.00000   0.00000
    C95      X     0.00001  -0.00002  -0.00001
    C95      Y    -0.00002  -0.00000   0.00001
    C95      Z    -0.00002  -0.00003   0.00002
    C96      X     0.00001   0.00001  -0.00000
    C96      Y     0.00000  -0.00001   0.00000
    C96      Z    -0.00004  -0.00003   0.00002
    H97      X    -0.00009  -0.00010   0.00006
    H97      Y     0.00024   0.00031  -0.00014
    H97      Z     0.00020   0.00026  -0.00013
    H98      X    -0.00009  -0.00008   0.00005
    H98      Y    -0.00017  -0.00012   0.00009
    H98      Z     0.00004   0.00003  -0.00002
    H99      X     0.00010   0.00010  -0.00004
    H99      Y    -0.00008  -0.00006   0.00003
    H99      Z     0.00024   0.00017  -0.00007
    C100     X     0.00010  -0.00085  -0.00001
    C100     Y    -0.00004   0.00017   0.00001
    C100     Z    -0.00005  -0.00006   0.00002
    H101     X    -0.00008  -0.00032   0.00006
    H101     Y     0.00041   0.00008  -0.00021
    H101     Z     0.00042   0.00007  -0.00022
    H102     X     0.00009   0.00048  -0.00005
    H102     Y    -0.00009  -0.00061   0.00007
    H102     Z     0.00015   0.00159  -0.00009
    H103     X    -0.00116   0.01052   0.00007
    H103     Y     0.00017  -0.00158  -0.00000
    H103     Z     0.00007  -0.00109   0.00002
    C104     X     0.00003  -0.00017  -0.00001
    C104     Y    -0.00000  -0.00002   0.00000
    C104     Z    -0.00002   0.00001   0.00001
    H105     X    -0.00012   0.00036   0.00005
    H105     Y    -0.00021   0.00059   0.00010
    H105     Z     0.00005  -0.00018  -0.00002
    H106     X    -0.00005  -0.00006   0.00003
    H106     Y     0.00023   0.00009  -0.00014
    H106     Z     0.00024   0.00013  -0.00016
    H107     X    -0.00023   0.00184   0.00009
    H107     Y     0.00005  -0.00041  -0.00002
    H107     Z    -0.00001  -0.00006   0.00001
  
  Number of imaginary frequencies:   0
   
  Writing vibrational animation data to L1_NaOtBu_PL154.vib
  Writing IR vibrational spectrum data to L1_NaOtBu_PL154_vib.spm
  rotational symmetry number:  1

  rotational temperatures (K):      0.008777      0.006314      0.005044
   
  The Quasi-Harmonic approximation will be applied to compute
  vibrational constributions to thermodynamic properties.
  Frequencies will be adjusted to a minimum value of  100.00 cm^-1.

  vibrational temperatures:
       mode:      1        2        3        4        5        6
  temp. (K):   143.88   143.88   143.88   143.88   143.88   143.88
   
       mode:      7        8        9       10       11       12
  temp. (K):   143.88   143.88   143.88   143.88   143.88   151.19
   
       mode:     13       14       15       16       17       18
  temp. (K):   157.79   162.48   173.57   205.53   216.33   234.16
   
       mode:     19       20       21       22       23       24
  temp. (K):   240.28   246.56   280.14   301.53   318.77   325.23
   
       mode:     25       26       27       28       29       30
  temp. (K):   342.92   345.33   347.62   373.17   375.83   380.81
   
       mode:     31       32       33       34       35       36
  temp. (K):   388.82   409.55   423.86   434.19   439.27   450.58
   
       mode:     37       38       39       40       41       42
  temp. (K):   451.74   477.39   479.07   488.50   511.22   524.61
   
       mode:     43       44       45       46       47       48
  temp. (K):   555.06   563.45   582.67   586.93   595.71   604.35
   
       mode:     49       50       51       52       53       54
  temp. (K):   635.22   665.36   668.37   683.73   701.45   728.43
   
       mode:     55       56       57       58       59       60
  temp. (K):   761.69   774.55   779.00   820.35   838.69   843.53
   
       mode:     61       62       63       64       65       66
  temp. (K):   868.61   912.46   984.46  1063.14  1084.80  1106.69
   
       mode:     67       68       69       70       71       72
  temp. (K):  1107.46  1121.03  1135.75  1187.57  1194.42  1202.07
   
       mode:     73       74       75       76       77       78
  temp. (K):  1272.30  1291.70  1296.79  1304.05  1366.90  1375.27
   
       mode:     79       80       81       82       83       84
  temp. (K):  1377.77  1379.60  1383.99  1392.57  1401.47  1407.98
   
       mode:     85       86       87       88       89       90
  temp. (K):  1414.13  1439.14  1453.37  1456.08  1474.39  1477.61
   
       mode:     91       92       93       94       95       96
  temp. (K):  1503.21  1508.11  1510.60  1514.37  1516.61  1521.95
   
       mode:     97       98       99      100      101      102
  temp. (K):  1530.04  1532.72  1565.26  1594.64  1661.62  1674.66
   
       mode:    103      104      105      106      107      108
  temp. (K):  1734.94  1736.29  1742.92  1755.06  1764.83  1774.23
   
       mode:    109      110      111      112      113      114
  temp. (K):  1779.15  1794.62  1795.83  1798.20  1806.30  1812.75
   
       mode:    115      116      117      118      119      120
  temp. (K):  1849.07  1872.82  1896.27  1933.28  1961.08  2014.44
   
       mode:    121      122      123      124      125      126
  temp. (K):  2017.82  2026.89  2034.42  2036.85  2042.98  2048.29
   
       mode:    127      128      129      130      131      132
  temp. (K):  2053.73  2082.40  2096.10  2114.31  2132.71  2143.24
   
       mode:    133      134      135      136      137      138
  temp. (K):  2145.24  2159.73  2160.13  2162.52  2168.29  2169.68
   
       mode:    139      140      141      142      143      144
  temp. (K):  2173.81  2175.52  2177.10  2182.70  2185.93  2187.27
   
       mode:    145      146      147      148      149      150
  temp. (K):  2189.21  2193.08  2199.49  2209.83  2216.05  2216.51
   
       mode:    151      152      153      154      155      156
  temp. (K):  2219.58  2226.69  2233.41  2335.15  2358.89  2378.33
   
       mode:    157      158      159      160      161      162
  temp. (K):  2401.45  4342.15  4344.44  4344.85  4349.95  4358.38
   
       mode:    163      164      165      166      167      168
  temp. (K):  4361.32  4363.21  4363.95  4371.30  4374.08  4433.49
   
       mode:    169      170      171      172      173      174
  temp. (K):  4440.73  4451.18  4455.73  4456.54  4467.02  4469.33
   
       mode:    175      176      177      178      179      180
  temp. (K):  4479.51  4479.99  4482.70  4485.70  4487.04  4492.96
   
       mode:    181      182      183      184      185      186
  temp. (K):  4509.17  4518.60  4530.90  4538.65  4543.39  4553.52
   
       mode:    187      188      189      190      191      192
  temp. (K):  4558.57  4568.98  4576.33  4583.91  4591.62  4604.56
   
       mode:    193      194      195
  temp. (K):  4614.69  4619.73  4695.81
   
   
  Thermodynamic properties calculated assuming an ideal gas

  In the table below, the units for temperature
  are kelvins, the units for U, H, and G are
  kcal/mol and the units for Cv and S are cal/(mol K)

  The zero point energy (ZPE):    362.206 kcal/mol
  is not included in U, H, or G in the table below
  
 
  =============================================================================
  Thermodynamic properties for P = 1.00E+00 atm, calculated at   1 temperatures


  T =   298.15 K, P = 1.00E+00 atm
   
                  U         Cv          S          H          G        ln(Q)
              =========  =========  =========  =========  =========  =========
  trans.          0.889      2.981     44.599      1.481    -11.816   19.94292
  rot.            0.889      2.981     36.095      0.889     -9.873   16.66387
  vib.           19.478    125.385    118.416     19.478    -15.827   26.71355
  elec.           0.000      0.000      0.000      0.000      0.000    0.00000
  ----------------------------------------------------------------------------
  total          21.256    131.346    199.110     21.848    -37.516   63.32035
   
   Total internal energy, Utot(SCFE + ZPE + U):   -1680.329488 hartrees
   Total enthalpy, Htot (Utot + nRT), with n=1:   -1680.328543 hartrees
    Total Gibbs free energy, Gtot (Htot - T*S):   -1680.423147 hartrees
   
  end of program freq
   
 Time(freq)  user:       0.707  user+sys:       0.707  wallclock:       0.301
  
  start of program post
  
  Writing input files for PBF
  end of program post
   
 Time(post)  user:       0.228  user+sys:       0.228  wallclock:       0.084

 Total cpu seconds     user:   99422.991   user+sys:   99422.991
  
 Total elapsed time:    13124 seconds

Job L1_NaOtBu_PL154 completed on bp1-compute089 at Sun Nov 30 22:17:32 2025
