Job L1_PL154 started on bp1-compute145.data.bp.acrc.priv at Wed Mar 26 02:41:57 2025
jobid: bp1-compute145-0-67e3696e

  +--------------------------------------------------------------------+
  |  Jaguar version 12.5, release 138                                  |
  |                                                                    |
  |  Copyright Schrodinger, Inc.                                       |
  |  All Rights Reserved.                                              |
  |                                                                    |
  |  The following have contributed to Jaguar (listed alphabetically): |
  |  Ty Balduf, Mike Beachy, Chandler Bennett, Art Bochevarov,         |
  |  Dale Braden, Yixiang Cao, Alan Chien, Chris Cortis,               |
  |  Rich Friesner, Jim Furness, Bill Goddard, Hod Greeley,            |
  |  Tom Hughes, Leif Jacobson, Jean-Marc Langlois, Daniel Levine,     |
  |  Rob Murphy, Dean Philipp, Tom Pollard, Murco Ringnalda,           |
  |  Daniel Mainz, Pablo Videla, Mark Watson, Haoyu Yu.                |
  |                                                                    |
  |  Use of this program should be acknowledged in publications as:    |
  |                                                                    |
  |  Jaguar, version 12.5, Schrodinger, Inc., New York, NY, 2024.      |
  |                                                                    |
  |  A. D. Bochevarov, E. Harder, T. F. Hughes, J. R. Greenwood,       |
  |  D. A. Braden, D. M. Philipp, D. Rinaldo, M. D. Halls,             |
  |  J. Zhang, R. A. Friesner, "Jaguar: A High-Performance Quantum     |
  |  Chemistry Software Program with Strengths in Life and Materials   |
  |  Sciences", Int. J. Quantum Chem., 2013, 113(18), 2110-2142.       |
  +--------------------------------------------------------------------+
  
  start of program pre
  
  Job name: L1_PL154
  Executables used: /software/local/apps/schrodinger2024-3/jaguar-v12.5/bin/Linux-x86_64
  Temporary files : /tmp/ar21627/L1_PL154#bp1-compute145-0-67e3696e
  Basis file : using default basis file from /software/local/apps/schrodinger2024-3
  Maestro file (input):  L1_PL154.mae
  Maestro file (output): L1_PL154.01.mae
  
 Contents of input file: &gen and (if present) &atomic sections only
 ----------------Contents start----------------
&gen
dftname=b3pw91-d3
basis=6-31G*
numd=5
ip11=2
iaccg=3
isolv=2
igeopt=1
solvent=benzene
ifreq=1
&
&atomic
atom basis
Pd2 lacv3p*
&
 -----------------Contents end-----------------
 
  PS calculation requested. Using PS version of 6-31g*
  basis set:               non_standard                    
  net molecular charge:    0
  multiplicity:            1
  
  Using up to   4 threads per process
  
  This run will use ECP on 1 atom
  number of basis functions....          401
  
 Input geometry:
                                   angstroms
  atom               x                 y                 z
  P1            0.0000000000      0.0000000000      0.0000000000 
  Pd2           0.0000000000      0.0000000000      2.2122636776 
  C3            1.8168740000      0.0000000000     -0.5778410000 
  C4           -0.8434890000      1.4252840000     -0.9715180000 
  C5           -0.8972560000     -1.6587410000     -0.3454820000 
  C6            3.1495210000      1.3984640000      1.1560820000 
  C7            3.8588263281      1.1355513573      2.3736813746 
  C8            3.8867198551      2.0949863329      3.4109786919 
  C9            3.2436713859      3.3334635638      3.3380250593 
  C10           2.5408797757      3.6173351334      2.1694795371 
  C11           2.5256422589      2.6599211623      1.1483858364 
  C12           3.0135280000      0.5741960000     -0.0169290000 
  C13           4.1905000000      0.2861180000     -0.7490990000 
  C14           4.2768280000     -0.4722710000     -1.9225270000 
  C15           3.1083040000     -1.0053740000     -2.4560800000 
  C16           1.9211360000     -0.7480340000     -1.7680690000 
  C17          -2.3917700000      1.4641300000     -0.9448800000 
  C18          -0.3788420000      2.8361950000     -0.5323130000 
  C19          -0.4455240000      1.3408580000     -2.4674050000 
  C20          -0.0177960000     -2.8755410000      0.0296550000 
  C21          -1.4453590000     -1.9535040000     -1.7679970000 
  C22          -2.1262300000     -1.7392700000      0.5941800000 
  C23           4.5637188704     -0.1496340805      2.7549693092 
  H24           4.4281014864      1.8864358777      4.3488201825 
  H25           3.2854925696      4.0574705499      4.1691033164 
  H26           2.0157266420      4.5805592357      2.0515936415 
  H27           1.9883373856      2.9823097538      0.2660395240 
  H28           5.1648570000      0.6855070000     -0.4721570000 
  H29           5.2430580000     -0.6375380000     -2.4300450000 
  H30           3.1237660000     -1.6027090000     -3.3835720000 
  H31           1.0324530000     -1.1846760000     -2.2280190000 
  H32          -2.8081380000      1.6140360000      0.0705490000 
  H33          -2.7931410000      2.3029860000     -1.5580800000 
  H34          -2.8583580000      0.5482850000     -1.3582140000 
  H35          -0.6553110000      3.0576040000      0.5218020000 
  H36           0.7195950000      2.9676930000     -0.6585650000 
  H37          -0.8498760000      3.6399150000     -1.1432090000 
  H38          -0.7462210000      0.3798070000     -2.9348810000 
  H39          -0.9210170000      2.1442960000     -3.0752880000 
  H40           0.6524840000      1.4549820000     -2.6096750000 
  H41           0.9648250000     -2.8622550000     -0.4905250000 
  H42           0.1711760000     -2.9295420000      1.1223420000 
  H43          -0.5069560000     -3.8419160000     -0.2300880000 
  H44          -0.6634350000     -2.0908620000     -2.5422720000 
  H45          -2.0275400000     -2.9029450000     -1.7892070000 
  H46          -2.1492470000     -1.1796830000     -2.1325550000 
  H47          -1.8356470000     -1.6862910000      1.6668530000 
  H48          -2.8513880000     -0.9189660000      0.4051340000 
  H49          -2.6842430000     -2.6960970000      0.4765580000 
  H50           5.6022699500     -0.1875264494      2.3540258547 
  H51           3.9615378474     -1.0487278623      2.4922235730 
  H52           4.6795764486     -0.2577548218      3.8570505592 
   
  principal moments of inertia:
        amu*angstrom^2:              1942.30916              2838.45588              3293.25165
                g*cm^2:          3.22527984E-37          4.71336629E-37          5.46857234E-37
   
  rotational constants:
               cm^(-1):      0.00867917      0.00593901      0.00511884
                   GHz:      0.26019494      0.17804716      0.15345897
   
  Molecular weight:     418.10 amu
   
  Stoichiometry: PdC21PH29
  Molecular Point Group: C1      
  Point Group used: C1
  
 
Number of optimization coordinates:   163
Number of independent coordinates:    163
Number of non-redundant coordinates:  150
Number of frozen coordinates:           0
Number of harmonic constraints:         0
 
Number of geometric degrees of freedom:   150
Maximum geometric degrees of freedom:     150
 " " " " " excluding dummy atoms:         150
 
 
  bond lengths (angstroms):
 
 P1      -Pd2     :   2.212264      P1      -C3      :   1.906550
 P1      -C4      :   1.920093      P1      -C5      :   1.917250
 C3      -C12     :   1.440939      C3      -C16     :   1.409634
 C4      -C17     :   1.548997      C4      -C18     :   1.549022
 C4      -C19     :   1.550220      C5      -C20     :   1.547508
 C5      -C21     :   1.552692      C5      -C22     :   1.549137
 C6      -C7      :   1.433452      C6      -C11     :   1.407323
 C6      -C12     :   1.440093      C7      -C8      :   1.413251
 C7      -C23     :   1.514581      C8      -C9      :   1.397376
 C8      -H24     :   1.102785      C9      -C10     :   1.392838
 C9      -H25     :   1.103008      C10     -C11     :   1.399824
 C10     -H26     :   1.103396      C11     -H27     :   1.082204
 C12     -C13     :   1.415742      C13     -C14     :   1.399836
 C13     -H28     :   1.088843      C14     -C15     :   1.390800
 C14     -H29     :   1.103851      C15     -C16     :   1.396048
 C15     -H30     :   1.103308      C16     -H31     :   1.091773
 C17     -H32     :   1.107669      C17     -H33     :   1.113909
 C17     -H34     :   1.107845      C18     -H35     :   1.112032
 C18     -H36     :   1.113461      C18     -H37     :   1.114017
 C19     -H38     :   1.110212      C19     -H39     :   1.114059
 C19     -H40     :   1.113053      C20     -H41     :   1.111894
 C20     -H42     :   1.110221      C20     -H43     :   1.113833
 C21     -H44     :   1.108952      C21     -H45     :   1.113922
 C21     -H46     :   1.107772      C22     -H47     :   1.112597
 C22     -H48     :   1.111077      C22     -H49     :   1.113881
 C23     -H50     :   1.113903      C23     -H51     :   1.113565
 C23     -H52     :   1.113416
 
  bond angles:
 
 C3      -P1      -Pd2     : 107.642814  C4      -P1      -Pd2     : 120.396068
 C4      -P1      -C3      : 105.383690  C5      -P1      -Pd2     : 100.381213
 C5      -P1      -C3      : 113.039431  C5      -P1      -C4      : 110.209354
 C12     -C3      -P1      : 132.332083  C16     -C3      -P1      : 109.049994
 C16     -C3      -C12     : 118.601565  C17     -C4      -P1      : 116.680003
 C18     -C4      -P1      : 113.633317  C18     -C4      -C17     : 105.789550
 C19     -C4      -P1      : 109.575020  C19     -C4      -C17     : 105.935583
 C19     -C4      -C18     : 104.252746  C20     -C5      -P1      : 111.754645
 C21     -C5      -P1      : 119.639032  C21     -C5      -C20     : 105.868645
 C22     -C5      -P1      : 107.875063  C22     -C5      -C20     : 105.244514
 C22     -C5      -C21     : 105.414608  C11     -C6      -C7      : 112.855389
 C12     -C6      -C7      : 129.318543  C12     -C6      -C11     : 117.822169
 C8      -C7      -C6      : 120.577643  C23     -C7      -C6      : 126.852870
 C23     -C7      -C8      : 112.463886  C9      -C8      -C7      : 123.661511
 H24     -C8      -C7      : 120.364684  H24     -C8      -C9      : 115.971317
 C10     -C9      -C8      : 117.169856  H25     -C9      -C8      : 121.666137
 H25     -C9      -C10     : 121.163760  C11     -C10     -C9      : 118.559909
 H26     -C10     -C9      : 120.510758  H26     -C10     -C11     : 120.927422
 C10     -C11     -C6      : 127.174781  H27     -C11     -C6      : 119.444547
 H27     -C11     -C10     : 113.352565  C6      -C12     -C3      : 128.578123
 C13     -C12     -C3      : 114.079668  C13     -C12     -C6      : 117.336141
 C14     -C13     -C12     : 126.514616  H28     -C13     -C12     : 122.531223
 H28     -C13     -C14     : 110.900352  C15     -C14     -C13     : 118.517836
 H29     -C14     -C13     : 121.365931  H29     -C14     -C15     : 120.110049
 C16     -C15     -C14     : 117.048897  H30     -C15     -C14     : 121.214686
 H30     -C15     -C16     : 121.736280  C15     -C16     -C3      : 125.228312
 H31     -C16     -C3      : 120.513439  H31     -C16     -C15     : 114.258064
 H32     -C17     -C4      : 113.258537  H33     -C17     -C4      : 111.689655
 H33     -C17     -H32     : 105.503065  H34     -C17     -C4      : 113.192670
 H34     -C17     -H32     : 107.193094  H34     -C17     -H33     : 105.391539
 H35     -C18     -C4      : 112.058038  H36     -C18     -C4      : 111.797889
 H36     -C18     -H35     : 109.222001  H37     -C18     -C4      : 112.013244
 H37     -C18     -H35     : 105.726505  H37     -C18     -H36     : 105.648678
 H38     -C19     -C4      : 112.576983  H39     -C19     -C4      : 112.189921
 H39     -C19     -H38     : 106.196471  H40     -C19     -C4      : 111.777365
 H40     -C19     -H38     : 107.585060  H40     -C19     -H39     : 106.102308
 H41     -C20     -C5      : 112.298348  H42     -C20     -C5      : 111.935505
 H42     -C20     -H41     : 108.095584  H43     -C20     -C5      : 112.091550
 H43     -C20     -H41     : 106.820756  H43     -C20     -H42     : 105.192635
 H44     -C21     -C5      : 114.473937  H45     -C21     -C5      : 111.330423
 H45     -C21     -H44     : 104.456631  H46     -C21     -C5      : 113.153150
 H46     -C21     -H44     : 107.744798  H46     -C21     -H45     : 104.894240
 H47     -C22     -C5      : 112.032471  H48     -C22     -C5      : 112.097904
 H48     -C22     -H47     : 107.418253  H49     -C22     -C5      : 112.211684
 H49     -C22     -H47     : 105.875619  H49     -C22     -H48     : 106.814392
 H50     -C23     -C7      : 111.849660  H51     -C23     -C7      : 111.964901
 H51     -C23     -H50     : 113.066083  H52     -C23     -C7      : 112.334273
 H52     -C23     -H50     : 104.830478  H52     -C23     -H51     : 102.205211
 
  torsional angles:
 
 P1      -C3      -C12     -C6      :  -3.538704
 P1      -C3      -C12     -C13     : 177.391602
 P1      -C3      -C16     -C15     :-177.644279
 P1      -C3      -C16     -H31     :   2.190069
 P1      -C4      -C17     -H32     :  62.775020
 P1      -C4      -C17     -H33     :-178.274494
 P1      -C4      -C17     -H34     : -59.513232
 P1      -C4      -C18     -H35     : -63.928460
 P1      -C4      -C18     -H36     :  59.071534
 P1      -C4      -C18     -H37     : 177.433697
 P1      -C4      -C19     -H38     :  59.682494
 P1      -C4      -C19     -H39     : 179.407630
 P1      -C4      -C19     -H40     : -61.546178
 P1      -C5      -C20     -H41     : -56.022773
 P1      -C5      -C20     -H42     :  65.784275
 P1      -C5      -C20     -H43     :-176.287823
 P1      -C5      -C21     -H44     :  67.566361
 P1      -C5      -C21     -H45     :-174.255908
 P1      -C5      -C21     -H46     : -56.409800
 P1      -C5      -C22     -H47     : -59.157476
 P1      -C5      -C22     -H48     :  61.695607
 P1      -C5      -C22     -H49     :-178.104440
 Pd2     -P1      -C3      -C12     : -32.618306
 Pd2     -P1      -C3      -C16     : 145.847045
 Pd2     -P1      -C4      -C17     : -71.513102
 Pd2     -P1      -C4      -C18     :  52.011638
 Pd2     -P1      -C4      -C19     : 168.168159
 Pd2     -P1      -C5      -C20     : -70.217488
 Pd2     -P1      -C5      -C21     : 165.326564
 Pd2     -P1      -C5      -C22     :  45.006587
 C3      -P1      -C4      -C17     : 166.762405
 C3      -P1      -C4      -C18     : -69.712856
 C3      -P1      -C4      -C19     :  46.443665
 C3      -P1      -C5      -C20     :  44.159859
 C3      -P1      -C5      -C21     : -80.296088
 C3      -P1      -C5      -C22     : 159.383935
 C3      -C12     -C6      -C7      : 116.873206
 C3      -C12     -C6      -C11     : -63.902545
 C3      -C12     -C13     -C14     :   0.274863
 C3      -C12     -C13     -H28     : 177.359151
 C3      -C16     -C15     -C14     :  -0.346891
 C3      -C16     -C15     -H30     : 179.785728
 C4      -P1      -C3      -C12     :  97.038236
 C4      -P1      -C3      -C16     : -84.496413
 C4      -P1      -C5      -C20     : 161.788653
 C4      -P1      -C5      -C21     :  37.332705
 C4      -P1      -C5      -C22     : -82.987272
 C5      -P1      -C3      -C12     :-142.540243
 C5      -P1      -C3      -C16     :  35.925108
 C5      -P1      -C4      -C17     :  44.498558
 C5      -P1      -C4      -C18     : 168.023298
 C5      -P1      -C4      -C19     : -75.820182
 C6      -C7      -C8      -C9      :   0.204575
 C6      -C7      -C8      -H24     : 179.607156
 C6      -C7      -C23     -H50     :  85.260242
 C6      -C7      -C23     -H51     : -42.827948
 C6      -C7      -C23     -H52     :-157.167381
 C6      -C11     -C10     -C9      :   0.273642
 C6      -C11     -C10     -H26     : 179.773359
 C6      -C12     -C3      -C16     : 178.113550
 C6      -C12     -C13     -C14     :-178.906444
 C6      -C12     -C13     -H28     :  -1.822156
 C7      -C6      -C11     -C10     :  -0.019764
 C7      -C6      -C11     -H27     : 177.915884
 C7      -C6      -C12     -C13     : -64.082919
 C7      -C8      -C9      -C10     :   0.054983
 C7      -C8      -C9      -H25     : 179.876051
 C8      -C7      -C6      -C11     :  -0.212327
 C8      -C7      -C6      -C12     : 179.043146
 C8      -C7      -C23     -H50     : -98.492928
 C8      -C7      -C23     -H51     : 133.418882
 C8      -C7      -C23     -H52     :  19.079450
 C8      -C9      -C10     -C11     :  -0.276610
 C8      -C9      -C10     -H26     :-179.778484
 C9      -C8      -C7      -C23     :-176.307482
 C9      -C10     -C11     -H27     :-177.768294
 C10     -C9      -C8      -H24     :-179.371646
 C10     -C11     -C6      -C12     :-179.368488
 C11     -C6      -C7      -C23     : 175.758639
 C11     -C6      -C12     -C13     : 115.141330
 C11     -C10     -C9      -H25     : 179.901367
 C12     -C3      -C16     -C15     :   1.063585
 C12     -C3      -C16     -H31     :-179.102067
 C12     -C6      -C7      -C23     :  -4.985888
 C12     -C6      -C11     -H27     :  -1.432840
 C12     -C13     -C14     -C15     :   0.419544
 C12     -C13     -C14     -H29     : 179.515586
 C13     -C12     -C3      -C16     :  -0.956143
 C13     -C14     -C15     -C16     :  -0.387844
 C13     -C14     -C15     -H30     : 179.480274
 C14     -C15     -C16     -H31     : 179.809641
 C15     -C14     -C13     -H28     :-176.949296
 C16     -C15     -C14     -H29     :-179.495593
 C17     -C4      -C18     -H35     :  65.348403
 C17     -C4      -C18     -H36     :-171.651602
 C17     -C4      -C18     -H37     : -53.289439
 C17     -C4      -C19     -H38     : -66.981941
 C17     -C4      -C19     -H39     :  52.743195
 C17     -C4      -C19     -H40     : 171.789387
 C18     -C4      -C17     -H32     : -64.694553
 C18     -C4      -C17     -H33     :  54.255933
 C18     -C4      -C17     -H34     : 173.017195
 C18     -C4      -C19     -H38     :-178.358513
 C18     -C4      -C19     -H39     : -58.633377
 C18     -C4      -C19     -H40     :  60.412815
 C19     -C4      -C17     -H32     :-174.987439
 C19     -C4      -C17     -H33     : -56.036953
 C19     -C4      -C17     -H34     :  62.724309
 C19     -C4      -C18     -H35     : 176.830700
 C19     -C4      -C18     -H36     : -60.169305
 C19     -C4      -C18     -H37     :  58.192858
 C20     -C5      -C21     -H44     : -59.667052
 C20     -C5      -C21     -H45     :  58.510680
 C20     -C5      -C21     -H46     : 176.356787
 C20     -C5      -C22     -H47     :  60.283556
 C20     -C5      -C22     -H48     :-178.863361
 C20     -C5      -C22     -H49     : -58.663408
 C21     -C5      -C20     -H41     :  75.812279
 C21     -C5      -C20     -H42     :-162.380674
 C21     -C5      -C20     -H43     : -44.452771
 C21     -C5      -C22     -H47     : 171.945031
 C21     -C5      -C22     -H48     : -67.201886
 C21     -C5      -C22     -H49     :  52.998068
 C22     -C5      -C20     -H41     :-172.848971
 C22     -C5      -C20     -H42     : -51.041923
 C22     -C5      -C20     -H43     :  66.885980
 C22     -C5      -C21     -H44     :-170.886081
 C22     -C5      -C21     -H45     : -52.708349
 C22     -C5      -C21     -H46     :  65.137758
 C23     -C7      -C8      -H24     :   3.095099
 H24     -C8      -C9      -H25     :   0.449421
 H25     -C9      -C10     -H26     :   0.399493
 H26     -C10     -C11     -H27     :   1.731423
 H28     -C13     -C14     -H29     :   2.146746
 H29     -C14     -C15     -H30     :   0.372525
 H30     -C15     -C16     -H31     :  -0.057740
 
  nuclear repulsion energy.......          2416.357775421 hartrees
  
  Detected an organometallic with only one TM atom. 
  
  
 
  Will use High-Quality Initial guess for organometallics
       including d-d repulsion (iguess=30)
 
 Non-default options chosen:
   SCF calculation type: DFT(b3pw91-d3)              
   DFT=Becke_3_Parameter/HF+Slater+Becke88+PW91+PW-GGAIIC (B3PW91-D3)
   Geometry will be optimized in redundant internal coordinates
   Solvation energy will be computed using PBF
     -solute cavity energy will not be included
     -surface area terms will not be included
   Vibrational frequencies and related properties will be computed
      from analytic second derivatives
   IR intensities will be computed
   Thermochemical properties will be computed
   Maximum number of geometry steps: 100
   Scaling standard convergence criteria by a factor of   5.00
   Solvent: benzene                                                         
   Internal dielectric constant:    1.000
   Continuum dielectric constant:   2.283
   Solvent probe molecule radius:   2.600
  
 Non-default print settings:
     11=  2
  
 Temporary integer options set:
     21= -1  73=  2
  
  atom       vdw   vdw2    cov     mass  grid  daf  charge   basis
  P1        2.147  2.074  1.060   30.974    Y    Y      Y    ps_6-31g*
  Pd2       1.450  1.450  1.280  105.903    Y    Y      Y    lacv3p*
  C3        1.949  1.900  0.770   12.000    Y    Y      Y    ps_6-31g*
  C4        1.949  1.900  0.770   12.000    Y    Y      Y    ps_6-31g*
  C5        1.949  1.900  0.770   12.000    Y    Y      Y    ps_6-31g*
  C6        1.949  1.900  0.770   12.000    Y    Y      Y    ps_6-31g*
  C7        1.949  1.900  0.770   12.000    Y    Y      Y    ps_6-31g*
  C8        1.949  1.900  0.770   12.000    Y    Y      Y    ps_6-31g*
  C9        1.949  1.900  0.770   12.000    Y    Y      Y    ps_6-31g*
  C10       1.949  1.900  0.770   12.000    Y    Y      Y    ps_6-31g*
  C11       1.949  1.900  0.770   12.000    Y    Y      Y    ps_6-31g*
  C12       1.949  1.900  0.770   12.000    Y    Y      Y    ps_6-31g*
  C13       1.949  1.900  0.770   12.000    Y    Y      Y    ps_6-31g*
  C14       1.949  1.900  0.770   12.000    Y    Y      Y    ps_6-31g*
  C15       1.949  1.900  0.770   12.000    Y    Y      Y    ps_6-31g*
  C16       1.949  1.900  0.770   12.000    Y    Y      Y    ps_6-31g*
  C17       1.949  1.900  0.770   12.000    Y    Y      Y    ps_6-31g*
  C18       1.949  1.900  0.770   12.000    Y    Y      Y    ps_6-31g*
  C19       1.949  1.900  0.770   12.000    Y    Y      Y    ps_6-31g*
  C20       1.949  1.900  0.770   12.000    Y    Y      Y    ps_6-31g*
  C21       1.949  1.900  0.770   12.000    Y    Y      Y    ps_6-31g*
  C22       1.949  1.900  0.770   12.000    Y    Y      Y    ps_6-31g*
  C23       1.949  1.900  0.770   12.000    Y    Y      Y    ps_6-31g*
  H24       1.597  1.150  0.320    1.008    Y    Y      Y    ps_6-31g*
  H25       1.597  1.150  0.320    1.008    Y    Y      Y    ps_6-31g*
  H26       1.597  1.150  0.320    1.008    Y    Y      Y    ps_6-31g*
  H27       1.597  1.150  0.320    1.008    Y    Y      Y    ps_6-31g*
  H28       1.597  1.150  0.320    1.008    Y    Y      Y    ps_6-31g*
  H29       1.597  1.150  0.320    1.008    Y    Y      Y    ps_6-31g*
  H30       1.597  1.150  0.320    1.008    Y    Y      Y    ps_6-31g*
  H31       1.597  1.150  0.320    1.008    Y    Y      Y    ps_6-31g*
  H32       1.597  1.150  0.320    1.008    Y    Y      Y    ps_6-31g*
  H33       1.597  1.150  0.320    1.008    Y    Y      Y    ps_6-31g*
  H34       1.597  1.150  0.320    1.008    Y    Y      Y    ps_6-31g*
  H35       1.597  1.150  0.320    1.008    Y    Y      Y    ps_6-31g*
  H36       1.597  1.150  0.320    1.008    Y    Y      Y    ps_6-31g*
  H37       1.597  1.150  0.320    1.008    Y    Y      Y    ps_6-31g*
  H38       1.597  1.150  0.320    1.008    Y    Y      Y    ps_6-31g*
  H39       1.597  1.150  0.320    1.008    Y    Y      Y    ps_6-31g*
  H40       1.597  1.150  0.320    1.008    Y    Y      Y    ps_6-31g*
  H41       1.597  1.150  0.320    1.008    Y    Y      Y    ps_6-31g*
  H42       1.597  1.150  0.320    1.008    Y    Y      Y    ps_6-31g*
  H43       1.597  1.150  0.320    1.008    Y    Y      Y    ps_6-31g*
  H44       1.597  1.150  0.320    1.008    Y    Y      Y    ps_6-31g*
  H45       1.597  1.150  0.320    1.008    Y    Y      Y    ps_6-31g*
  H46       1.597  1.150  0.320    1.008    Y    Y      Y    ps_6-31g*
  H47       1.597  1.150  0.320    1.008    Y    Y      Y    ps_6-31g*
  H48       1.597  1.150  0.320    1.008    Y    Y      Y    ps_6-31g*
  H49       1.597  1.150  0.320    1.008    Y    Y      Y    ps_6-31g*
  H50       1.597  1.150  0.320    1.008    Y    Y      Y    ps_6-31g*
  H51       1.597  1.150  0.320    1.008    Y    Y      Y    ps_6-31g*
  H52       1.597  1.150  0.320    1.008    Y    Y      Y    ps_6-31g*
 
  atom      formal  2spin      esp    mulk    frag
  P1           0       0        Y    0.000       0
  Pd2          0       0        Y    0.000       0
  
  end of program pre
   
 Time(pre)  user:       0.937  user+sys:       0.937  wallclock:       1.044
  
  start of program onee
  
  smallest eigenvalue of S:    3.796E-04
  number of canonical orbitals.....          399
  end of program onee
   
 Time(onee)  user:       1.878  user+sys:       1.878  wallclock:       1.374
  
  start of program hfig
  
  initial wavefunction generated automatically from atomic wavefunctions
  Only one possible d-orb occupation 
  Skip d-d repulsion considerations 
 
  Irreducible     Total no   No of occupied orbitals 
  representation  orbitals   Shell_1  Shell_2    ...
  No Symm          399         94
  ------------------------
  Orbital occupation/shell    1.000
 
  end of program hfig
   
 Time(hfig)  user:       0.654  user+sys:       0.654  wallclock:       0.677
  
  start of program probe
  
  end of program probe
   
 Time(probe)  user:       0.312  user+sys:       0.312  wallclock:       0.362
  
  start of program grid
  
   grid     grid set  grid #  grid sym
  ------    --------  ------  --------
  coarse        0        0        1
  medium        2        1        1
  fine          0        0        1
  ultrafine     4        2        1
  charge       -1        3        1
  gradient      4        2        1
  density       0        0        1
  DFT-fine    -11        4        1
  DFT-med.    -10        5        1
  DFT-grad    -12        6        1
  DFT-der2     -8        7        1
  DFT-cphf     -9        8        1
  LMP2-enrg     4        2        1
  LMP2-grad     2        1        1
  DFT-cphf2   -15        9        1
  PBF-dens      0        0        1
  plotting      0        0        1
  Rel-grad    -17        0        1
  
  number of gridpoints: 
     atom           P1         Pd2          C3          C4          C5          C6          C7
  grid # 1         612         406          92          91          88          98         100
  grid # 2         430         388         389         369         377         356         366
  grid # 3          10         460          15           6           6          13          20
  grid # 4        8714        8714        8714        8714        8714        8714        8714
  grid # 5        1192        1192        1192        1192        1192        1192        1192
  grid # 6        9132        9132        5922        5922        5922        5922        5922
  grid # 7       23034       32968       13950       13950       13950       13950       13950
  grid # 8         722        1150         748         748         748         748         748
  grid # 9         366        2198         394         394         394         394         394
   
  number of gridpoints: 
     atom           C8          C9         C10         C11         C12         C13         C14
  grid # 1          94          96          96          94          98          94          97
  grid # 2         329         323         325         325         360         323         324
  grid # 3          34          38          33          24          16          31          46
  grid # 4        8714        8714        8714        8714        8714        8714        8714
  grid # 5        1192        1192        1192        1192        1192        1192        1192
  grid # 6        5922        5922        5922        5922        5922        5922        5922
  grid # 7       13950       13950       13950       13950       13950       13950       13950
  grid # 8         748         748         748         748         748         748         748
  grid # 9         394         394         394         394         394         394         394
   
  number of gridpoints: 
     atom          C15         C16         C17         C18         C19         C20         C21
  grid # 1          95          91          83          84          82          80          82
  grid # 2         322         322         239         240         242         246         241
  grid # 3          32          10           6           6           6           6           6
  grid # 4        8714        8714        8714        8714        8714        8714        8714
  grid # 5        1192        1192        1192        1192        1192        1192        1192
  grid # 6        5922        5922        5922        5922        5922        5922        5922
  grid # 7       13950       13950       13950       13950       13950       13950       13950
  grid # 8         748         748         748         748         748         748         748
  grid # 9         394         394         394         394         394         394         394
   
  number of gridpoints: 
     atom          C22         C23         H24         H25         H26         H27         H28
  grid # 1          79          81         115         118         118         104         115
  grid # 2         248         243         453         469         464         421         455
  grid # 3           6           6         324         424         387         132         317
  grid # 4        8714        8714        8714        8714        8714        8714        8714
  grid # 5        1192        1192        1192        1192        1192        1192        1192
  grid # 6        5922        5922        5922        5922        5922        5922        5922
  grid # 7       13950       13950       15206       15206       15206       15206       15206
  grid # 8         748         748         786         786         786         786         786
  grid # 9         394         394         420         420         420         420         420
   
  number of gridpoints: 
     atom          H29         H30         H31         H32         H33         H34         H35
  grid # 1         118         118         100         106         108         101         108
  grid # 2         467         467         418         445         444         424         447
  grid # 3         422         411          66         235         267         146         206
  grid # 4        8714        8714        8714        8714        8714        8714        8714
  grid # 5        1192        1192        1192        1192        1192        1192        1192
  grid # 6        5922        5922        5922        5922        5922        5922        5922
  grid # 7       15206       15206       15206       15206       15206       15206       15206
  grid # 8         786         786         786         786         786         786         786
  grid # 9         420         420         420         420         420         420         420
   
  number of gridpoints: 
     atom          H36         H37         H38         H39         H40         H41         H42
  grid # 1          97         108         102         109         104         104         107
  grid # 2         412         446         425         445         434         437         447
  grid # 3         102         263         145         269         197         206         231
  grid # 4        8714        8714        8714        8714        8714        8714        8714
  grid # 5        1192        1192        1192        1192        1192        1192        1192
  grid # 6        5922        5922        5922        5922        5922        5922        5922
  grid # 7       15206       15206       15206       15206       15206       15206       15206
  grid # 8         786         786         786         786         786         786         786
  grid # 9         420         420         420         420         420         420         420
   
  number of gridpoints: 
     atom          H43         H44         H45         H46         H47         H48         H49
  grid # 1         107         102         107         101         101         103         107
  grid # 2         446         431         443         427         440         434         447
  grid # 3         273         192         259         148         191         168         277
  grid # 4        8714        8714        8714        8714        8714        8714        8714
  grid # 5        1192        1192        1192        1192        1192        1192        1192
  grid # 6        5922        5922        5922        5922        5922        5922        5922
  grid # 7       15206       15206       15206       15206       15206       15206       15206
  grid # 8         786         786         786         786         786         786         786
  grid # 9         420         420         420         420         420         420         420
   
  number of gridpoints: 
     atom          H50         H51         H52       total
  grid # 1         112         110         107        6030
  grid # 2         459         455         448       20177
  grid # 3         337         273         288        7992
  grid # 4        8714        8714        8714      453128
  grid # 5        1192        1192        1192       61984
  grid # 6        5922        5922        5922      314364
  grid # 7       15206       15206       15206      789926
  grid # 8         786         786         786       40374
  grid # 9         420         420         420       23018
   
  end of program grid
   
 Time(grid)  user:      98.529  user+sys:      98.529  wallclock:      51.086
  
  start of program rwr
  
  end of program rwr
   
 Time(rwr)  user:       8.850  user+sys:       8.850  wallclock:      11.189
  
  start of program scf
  
 number of electrons..........        188
 number of alpha electrons....         94
 number of beta electrons.....         94
 number of orbitals, total....        399
 number of doubly-occ'd orbs..         94
 number of open shell orbs....          0
 number of occupied orbitals..         94
 number of virtual orbitals...        305
 number of hamiltonians.......          1
 number of shells.............          1
 SCF type: DFT=Becke_3_Parameter/HF+Slater+Becke88+PW91+PW-GGAIIC (B3PW91-D3)
 Energy computed using pseudospectral method.
 Convergence Criterion:
    Energy (econv):       1.00E-05
    RMS density (dconv):  5.00E-06
  
       i  u  d  i  g                   
       t  p  i  c  r                                 RMS    maximum
       e  d  i  u  i                       energy  density   DIIS  
       r  t  s  t  d       total energy    change  change    error 
  
etot    1  N  N  5  M   -1282.77858320017           2.3E-03  1.7E-01
etot    2  Y  Y  6  M   -1284.58751340249  1.8E+00  3.7E-03  1.2E-01
etot    3  Y  Y  6  M   -1285.22157740696  6.3E-01  1.2E-03  4.5E-02
etot    4  N  Y  2  U   -1285.39956427071  1.8E-01  9.0E-04  4.0E-02
etot    5  Y  Y  6  M   -1285.44195129045  4.2E-02  6.2E-04  2.0E-02
etot    6  N  Y  2  U   -1285.44728297193  5.3E-03  4.0E-04  7.1E-03
etot    7  Y  Y  6  M   -1285.44707161834 -2.1E-04  8.7E-05  2.0E-03
etot    8  Y  Y  6  M   -1285.44819097901  1.1E-03  1.8E-05  3.3E-04
etot    9  N  Y  2  U   -1285.44878192217  5.9E-04  1.2E-05  1.9E-04
etot   10  N  Y  2  U   -1285.44878688417  5.0E-06  8.0E-06  1.6E-04
etot   11  N  Y  2  U   -1285.44878845913  1.6E-06  3.8E-06  7.4E-05
etot   12  N  N  2  U   -1285.44878940834  9.5E-07  0.0E+00  0.0E+00
 
  Computing the dispersion energy correction and its gradients...
  
  
 Energy components, in hartrees:
   (A)  Nuclear repulsion............    2416.35777542073
   (E)  Total one-electron terms.....   -6611.35538821168
   (F)    Electron-nuclear...........   -7809.46709220553
   (H)    Kinetic....................    1198.11170399385
   (I)  Total two-electron terms.....    2909.54882338261
   (J)    Coulomb....................    3069.98682050923
   (K)    Exchange+Correlation.......    -160.43799712662
   (L)  Electronic energy............   -3701.80656482907  (E+I)
   (N0) D3 correction................      -0.08335324431
   (N)  Total energy.................   -1285.53214265265  (A+L+N0)
   (O)  Gas phase energy.............   -1285.53214265265
  
 SCFE: SCF energy: DFT(b3pw91-d3)     -1285.53214265265 hartrees   iterations:  12
  
 
 HOMO energy:    -0.14887
 LUMO energy:    -0.03244
 
  Orbital energies (hartrees): 
   -77.07014   -10.20149   -10.19968   -10.19908   -10.19740   -10.18453
   -10.18234   -10.17835   -10.17746   -10.17672   -10.17665   -10.16690
   -10.16493   -10.16441   -10.16432   -10.16243   -10.16215   -10.15962
   -10.15811   -10.15712   -10.15587   -10.15375    -6.56808    -4.72625
    -4.72588    -4.72292    -3.23374    -1.97260    -1.95191    -1.94989
    -0.87020    -0.84631    -0.81978    -0.80377    -0.78200    -0.76288
    -0.75210    -0.72291    -0.68604    -0.68399    -0.67714    -0.67605
    -0.67460    -0.64760    -0.61840    -0.60118    -0.58273    -0.56886
    -0.55273    -0.52837    -0.50388    -0.48905    -0.46695    -0.46418
    -0.45544    -0.45144    -0.44853    -0.44241    -0.43547    -0.43191
    -0.42430    -0.41974    -0.41477    -0.40941    -0.39682    -0.39452
    -0.38705    -0.38203    -0.37755    -0.37318    -0.37136    -0.36559
    -0.35781    -0.35614    -0.35175    -0.34699    -0.33857    -0.33284
    -0.33018    -0.32632    -0.32052    -0.31670    -0.31166    -0.30570
    -0.28030    -0.26352    -0.25360    -0.23586    -0.23168    -0.19395
    -0.19186    -0.17220    -0.17121    -0.14887    -0.03244    -0.02317
    -0.01682     0.00590     0.01005     0.02372     0.03642     0.04656
     0.06598     0.07249
 
  end of program scf
   
 Time(scf)  user:     171.138  user+sys:     171.138  wallclock:      92.763
  
  start of program der1a
  
  end of program der1a
   
 Time(der1a)  user:       5.710  user+sys:       5.710  wallclock:       3.253
  
  start of program rwr
  
  end of program rwr
   
 Time(rwr)  user:       9.449  user+sys:       9.449  wallclock:      12.519
  
  start of program der1b
  
   
  forces (hartrees/bohr) : total     
   
 atom  label           x              y              z
 ---- --------   -------------  -------------  -------------
    1 P1          7.528864E-03   1.557124E-02   3.803194E-02
    2 Pd2         4.386923E-03   1.093358E-02   3.664636E-03
    3 C3         -1.454652E-02  -6.253336E-03  -1.635119E-02
    4 C4         -5.329082E-03   1.884934E-02  -3.255115E-02
    5 C5         -1.211780E-02  -2.891599E-02  -1.557366E-02
    6 C6         -4.910030E-03   3.643357E-02   5.195734E-02
    7 C7          1.152938E-03  -4.831414E-03   1.245765E-02
    8 C8         -1.423662E-03   8.907124E-03   2.991159E-03
    9 C9         -7.848539E-04   4.021252E-05  -2.292843E-03
   10 C10         2.658672E-03  -1.800573E-03   1.774528E-03
   11 C11        -6.319465E-03   1.515910E-02  -6.135303E-03
   12 C12         1.649240E-03  -3.794156E-02  -3.538741E-02
   13 C13         1.443647E-02  -1.349681E-03  -6.623496E-03
   14 C14        -5.156834E-03  -2.181877E-03  -2.573506E-03
   15 C15         3.351368E-03  -3.660276E-04   1.566710E-03
   16 C16         3.173895E-03  -7.700906E-03  -1.223932E-02
   17 C17        -1.192319E-02  -9.461622E-03   8.533442E-03
   18 C18         6.427625E-03   4.690216E-03   1.266670E-02
   19 C19         7.058585E-03  -5.512302E-03  -1.393059E-02
   20 C20         1.696067E-02  -3.938243E-03   5.187193E-03
   21 C21        -4.676731E-03   2.063004E-03  -1.401169E-02
   22 C22        -1.269576E-02   8.408155E-03   9.484929E-03
   23 C23         1.122078E-04  -1.580783E-02   1.153286E-03
   24 H24        -3.369407E-03  -4.005577E-03  -1.057700E-02
   25 H25         4.730463E-04  -8.083269E-03  -7.009418E-03
   26 H26         4.204243E-03  -1.057277E-02  -1.616480E-03
   27 H27         5.023451E-03  -6.873704E-03  -9.394094E-04
   28 H28        -5.449145E-03   5.699778E-03   1.346020E-02
   29 H29        -8.102192E-03   3.840624E-03   7.776049E-03
   30 H30        -2.426537E-03   5.590882E-03   9.276568E-03
   31 H31         8.678438E-04   5.495242E-03   6.019919E-03
   32 H32         6.085232E-03  -3.104386E-03  -3.990238E-03
   33 H33         1.008089E-02  -6.037625E-03   3.956419E-03
   34 H34         4.926878E-03   5.916083E-03   3.802114E-03
   35 H35         6.637969E-03  -4.897565E-03  -7.316935E-03
   36 H36        -1.785708E-02  -3.079427E-03   1.369786E-05
   37 H37         9.704206E-04  -1.234109E-02   1.173526E-03
   38 H38         3.271671E-03   8.055081E-03   4.085538E-03
   39 H39         1.847195E-03  -5.517315E-03   8.860819E-03
   40 H40        -1.072263E-02  -2.406029E-03   2.041387E-03
   41 H41        -8.619064E-03  -4.695883E-04   5.586013E-03
   42 H42         1.218229E-03   5.419898E-03  -8.454227E-03
   43 H43        -2.302793E-04   1.212987E-02  -1.061887E-03
   44 H44        -3.623445E-03   3.760330E-03   6.849099E-03
   45 H45         6.244609E-03   7.542058E-03   5.538061E-03
   46 H46         7.272150E-03  -4.151152E-03   3.107789E-03
   47 H47         3.230083E-04   2.998917E-03  -1.004630E-02
   48 H48         6.652587E-03  -7.234297E-03   2.827533E-03
   49 H49         8.059838E-03   6.509063E-03  -5.494586E-03
   50 H50        -1.241831E-02  -5.741040E-03  -2.519262E-03
   51 H51         1.096873E-02   8.062947E-03  -8.469540E-03
   52 H52        -1.758097E-03   8.384835E-03  -9.724281E-03
 -------------   -------------  -------------  -------------
     total       -4.346712E-04  -1.150512E-04  -1.045463E-03
   
  end of program der1b
   
 Time(der1b)  user:      57.625  user+sys:      57.625  wallclock:      30.938
  
  start of program geopt
  
 ----------------------------------------------------------------------------
  Geometry optimization step  1
  Total energy:     -1285.53214265265 hartrees
 ----------------------------------------------------------------------------
  
  
  Level shifts adjusted to satisfy step-size constraints
   Step size:    0.3000417
   Cos(theta):   0.9398851
   Final level shift:  -3.0762150E-01
  
  gradient maximum:        6.1732E-02 .  (  2.2500E-03 )
  gradient rms:            1.4898E-02 .  (  1.5000E-03 )
  displacement maximum:    1.0155E-01 .  (  9.0000E-03 )
  displacement rms:        2.3501E-02 .  (  6.0000E-03 )
  
  predicted energy change:  -4.0666E-02
  step size:     0.30004
  trust radius:  0.30000
  
  molecular structure not yet converged...
  
  center of mass moved by:
     x:     5.7360E-02     y:     1.9322E-01     z:    -5.1912E-03
  
  new geometry: 
                                   angstroms
  atom               x                 y                 z
  P1           -0.0020533966      0.0432183393     -0.0097649004 
  Pd2           0.0952311176      0.2736466152      2.1921072266 
  C3            1.7833741212     -0.0560210342     -0.6215757361 
  C4           -0.9322492881      1.3386278963     -1.0664689215 
  C5           -0.8342150344     -1.6603167076     -0.2689927682 
  C6            3.0516704307      1.3125476928      1.1784200089 
  C7            3.7175822010      0.9075882949      2.3617402210 
  C8            3.7815270242      1.7774884879      3.4622097818 
  C9            3.2144423725      3.0509074077      3.4589506972 
  C10           2.5565854478      3.4652958837      2.3045463587 
  C11           2.4988761890      2.5991625099      1.2179191670 
  C12           2.9607922171      0.5020414567     -0.0367032825 
  C13           4.1745656930      0.2345269168     -0.6909350010 
  C14           4.2935639455     -0.5113034876     -1.8623811538 
  C15           3.1423289711     -1.0360116415     -2.4424216253 
  C16           1.9232468632     -0.7925581010     -1.8118368959 
  C17          -2.4587273401      1.2920150642     -0.8695156662 
  C18          -0.4769814513      2.7776773694     -0.7818626494 
  C19          -0.6486323260      1.0864928600     -2.5690952822 
  C20           0.1223973214     -2.7702561733      0.2142606332 
  C21          -1.3097916248     -2.0314245766     -1.6943336244 
  C22          -2.0857748866     -1.6947085885      0.6356978440 
  C23           4.3168495173     -0.4693221101      2.5435461033 
  H24           4.2910505798      1.4508031929      4.3741841948 
  H25           3.2807355158      3.7027733731      4.3352982841 
  H26           2.0956931640      4.4557315247      2.2426677198 
  H27           2.0146390531      2.9796125999      0.3313598249 
  H28           5.1044052328      0.6580546349     -0.3130593853 
  H29           5.2733139953     -0.6713667556     -2.3231545878 
  H30           3.1849077212     -1.6204574556     -3.3665028990 
  H31           1.0410720922     -1.2020454759     -2.2979064556 
  H32          -2.7579149397      1.5229246594      0.1659967301 
  H33          -2.9521886941      2.0405762840     -1.5155693259 
  H34          -2.8978257054      0.3176784239     -1.1333640426 
  H35          -0.6673112366      3.0732934980      0.2646094206 
  H36           0.5860700731      2.9198981263     -1.0191820522 
  H37          -1.0330167962      3.4902608323     -1.4184779875 
  H38          -0.9686102518      0.0850448332     -2.8997373411 
  H39          -1.1833268664      1.8159106487     -3.2055214139 
  H40           0.4250697577      1.1854456435     -2.8045378946 
  H41           1.0996434126     -2.7375972728     -0.2966806770 
  H42           0.3108691446     -2.6964100411      1.2986849254 
  H43          -0.3123230696     -3.7698927499      0.0321416361 
  H44          -0.4893853092     -2.1757808879     -2.4163877165 
  H45          -1.8561970488     -2.9924054069     -1.6774106109 
  H46          -2.0081759241     -1.2950271848     -2.1200446154 
  H47          -1.8202963981     -1.5502335753      1.6981847514 
  H48          -2.8184236213     -0.9154226792      0.3686037078 
  H49          -2.5996178520     -2.6710355273      0.5555288416 
  H50           5.3410145489     -0.5355226208      2.1340083870 
  H51           3.6702663909     -1.2610115709      2.1246335112 
  H52           4.4154782604     -0.7214147997      3.6142740231 
   
 
  bond lengths (angstroms):
 
 P1      -Pd2     :   2.216033      P1      -C3      :   1.889950
 P1      -C4      :   1.913106      P1      -C5      :   1.913563
 C3      -C12     :   1.428224      C3      -C16     :   1.406689
 C4      -C17     :   1.539837      C4      -C18     :   1.535947
 C4      -C19     :   1.549805      C5      -C20     :   1.542921
 C5      -C21     :   1.547737      C5      -C22     :   1.544684
 C6      -C7      :   1.416925      C6      -C11     :   1.400899
 C6      -C12     :   1.463456      C7      -C8      :   1.404225
 C7      -C23     :   1.512632      C8      -C9      :   1.393984
 C8      -H24     :   1.094548      C9      -C10     :   1.391813
 C9      -H25     :   1.094216      C10     -C11     :   1.390783
 C10     -H26     :   1.094172      C11     -H27     :   1.079451
 C12     -C13     :   1.404574      C13     -C14     :   1.393811
 C13     -H28     :   1.089388      C14     -C15     :   1.391800
 C14     -H29     :   1.094460      C15     -C16     :   1.393940
 C15     -H30     :   1.094219      C16     -H31     :   1.087279
 C17     -H32     :   1.102324      C17     -H33     :   1.105094
 C17     -H34     :   1.100798      C18     -H35     :   1.103956
 C18     -H36     :   1.098465      C18     -H37     :   1.105545
 C19     -H38     :   1.102093      C19     -H39     :   1.105887
 C19     -H40     :   1.103658      C20     -H41     :   1.103240
 C20     -H42     :   1.103155      C20     -H43     :   1.105180
 C21     -H44     :   1.102392      C21     -H45     :   1.105590
 C21     -H46     :   1.100569      C22     -H47     :   1.104640
 C22     -H48     :   1.102452      C22     -H49     :   1.106199
 C23     -H50     :   1.104997      C23     -H51     :   1.104685
 C23     -H52     :   1.104417
 
  bond angles:
 
 C3      -P1      -Pd2     : 106.596923  C4      -P1      -Pd2     : 119.983912
 C4      -P1      -C3      : 108.426149  C5      -P1      -Pd2     : 104.256524
 C5      -P1      -C3      : 108.676563  C5      -P1      -C4      : 108.453314
 C12     -C3      -P1      : 128.734868  C16     -C3      -P1      : 113.287206
 C16     -C3      -C12     : 117.977284  C17     -C4      -P1      : 113.007944
 C18     -C4      -P1      : 112.826200  C18     -C4      -C17     : 107.367420
 C19     -C4      -P1      : 109.657437  C19     -C4      -C17     : 107.487684
 C19     -C4      -C18     : 106.131192  C20     -C5      -P1      : 109.169601
 C21     -C5      -P1      : 118.153686  C21     -C5      -C20     : 107.845976
 C22     -C5      -P1      : 107.027561  C22     -C5      -C20     : 107.631368
 C22     -C5      -C21     : 106.562564  C11     -C6      -C7      : 115.111976
 C12     -C6      -C7      : 124.354958  C12     -C6      -C11     : 120.501182
 C8      -C7      -C6      : 119.922690  C23     -C7      -C6      : 123.142554
 C23     -C7      -C8      : 116.850911  C9      -C8      -C7      : 123.062337
 H24     -C8      -C7      : 119.292355  H24     -C8      -C9      : 117.643807
 C10     -C9      -C8      : 117.788184  H25     -C9      -C8      : 121.177678
 H25     -C9      -C10     : 121.033841  C11     -C10     -C9      : 118.831113
 H26     -C10     -C9      : 121.031449  H26     -C10     -C11     : 120.136374
 C10     -C11     -C6      : 125.283162  H27     -C11     -C6      : 118.525742
 H27     -C11     -C10     : 116.155733  C6      -C12     -C3      : 127.417419
 C13     -C12     -C3      : 116.566829  C13     -C12     -C6      : 116.012483
 C14     -C13     -C12     : 124.553094  H28     -C13     -C12     : 120.131225
 H28     -C13     -C14     : 115.257874  C15     -C14     -C13     : 118.775648
 H29     -C14     -C13     : 120.565629  H29     -C14     -C15     : 120.655144
 C16     -C15     -C14     : 117.970847  H30     -C15     -C14     : 121.408210
 H30     -C15     -C16     : 120.620748  C15     -C16     -C3      : 124.137644
 H31     -C16     -C3      : 119.655778  H31     -C16     -C15     : 116.204101
 H32     -C17     -C4      : 112.511720  H33     -C17     -C4      : 110.327095
 H33     -C17     -H32     : 106.624125  H34     -C17     -C4      : 113.052022
 H34     -C17     -H32     : 107.596174  H34     -C17     -H33     : 106.338549
 H35     -C18     -C4      : 112.050969  H36     -C18     -C4      : 111.599976
 H36     -C18     -H35     : 109.692716  H37     -C18     -C4      : 110.371832
 H37     -C18     -H35     : 106.651154  H37     -C18     -H36     : 106.193189
 H38     -C19     -C4      : 112.679701  H39     -C19     -C4      : 111.234371
 H39     -C19     -H38     : 106.637290  H40     -C19     -C4      : 111.733089
 H40     -C19     -H38     : 107.453149  H40     -C19     -H39     : 106.766334
 H41     -C20     -C5      : 112.509976  H42     -C20     -C5      : 111.448146
 H42     -C20     -H41     : 107.574544  H43     -C20     -C5      : 110.804930
 H43     -C20     -H41     : 107.390635  H43     -C20     -H42     : 106.842369
 H44     -C21     -C5      : 113.948537  H45     -C21     -C5      : 110.253619
 H45     -C21     -H44     : 105.307966  H46     -C21     -C5      : 113.002471
 H46     -C21     -H44     : 107.849056  H46     -C21     -H45     : 105.896063
 H47     -C22     -C5      : 111.450288  H48     -C22     -C5      : 112.384536
 H48     -C22     -H47     : 107.475129  H49     -C22     -C5      : 110.705821
 H49     -C22     -H47     : 107.264144  H49     -C22     -H48     : 107.314807
 H50     -C23     -C7      : 112.159317  H51     -C23     -C7      : 112.018024
 H51     -C23     -H50     : 111.039562  H52     -C23     -C7      : 111.080751
 H52     -C23     -H50     : 105.240533  H52     -C23     -H51     : 104.852548
 
  torsional angles:
 
 P1      -C3      -C12     -C6      :  -1.211913
 P1      -C3      -C12     -C13     : 178.099666
 P1      -C3      -C16     -C15     :-178.344539
 P1      -C3      -C16     -H31     :   2.250469
 P1      -C4      -C17     -H32     :  62.341792
 P1      -C4      -C17     -H33     :-178.724955
 P1      -C4      -C17     -H34     : -59.799490
 P1      -C4      -C18     -H35     : -61.769458
 P1      -C4      -C18     -H36     :  61.694003
 P1      -C4      -C18     -H37     : 179.532070
 P1      -C4      -C19     -H38     :  59.720645
 P1      -C4      -C19     -H39     : 179.409339
 P1      -C4      -C19     -H40     : -61.378090
 P1      -C5      -C20     -H41     : -57.055347
 P1      -C5      -C20     -H42     :  63.873752
 P1      -C5      -C20     -H43     :-177.291468
 P1      -C5      -C21     -H44     :  67.384644
 P1      -C5      -C21     -H45     :-174.463929
 P1      -C5      -C21     -H46     : -56.182116
 P1      -C5      -C22     -H47     : -59.001275
 P1      -C5      -C22     -H48     :  61.712719
 P1      -C5      -C22     -H49     :-178.302092
 Pd2     -P1      -C3      -C12     : -27.606617
 Pd2     -P1      -C3      -C16     : 152.092127
 Pd2     -P1      -C4      -C17     : -69.764642
 Pd2     -P1      -C4      -C18     :  52.280051
 Pd2     -P1      -C4      -C19     : 170.343658
 Pd2     -P1      -C5      -C20     : -67.895478
 Pd2     -P1      -C5      -C21     : 168.460553
 Pd2     -P1      -C5      -C22     :  48.325987
 C3      -P1      -C4      -C17     : 167.564046
 C3      -P1      -C4      -C18     : -70.391261
 C3      -P1      -C4      -C19     :  47.672346
 C3      -P1      -C5      -C20     :  45.494265
 C3      -P1      -C5      -C21     : -78.149704
 C3      -P1      -C5      -C22     : 161.715730
 C3      -C12     -C6      -C7      : 114.785039
 C3      -C12     -C6      -C11     : -67.371530
 C3      -C12     -C13     -C14     :   0.936368
 C3      -C12     -C13     -H28     : 178.036336
 C3      -C16     -C15     -C14     :  -0.371244
 C3      -C16     -C15     -H30     : 179.787424
 C4      -P1      -C3      -C12     : 102.856900
 C4      -P1      -C3      -C16     : -77.444357
 C4      -P1      -C5      -C20     : 163.174264
 C4      -P1      -C5      -C21     :  39.530295
 C4      -P1      -C5      -C22     : -80.604271
 C5      -P1      -C3      -C12     :-139.445841
 C5      -P1      -C3      -C16     :  40.252902
 C5      -P1      -C4      -C17     :  49.724385
 C5      -P1      -C4      -C18     : 171.769078
 C5      -P1      -C4      -C19     : -70.167315
 C6      -C7      -C8      -C9      :  -0.066511
 C6      -C7      -C8      -H24     : 179.476980
 C6      -C7      -C23     -H50     :  85.338480
 C6      -C7      -C23     -H51     : -40.311757
 C6      -C7      -C23     -H52     :-157.197738
 C6      -C11     -C10     -C9      :   0.263809
 C6      -C11     -C10     -H26     : 179.892520
 C6      -C12     -C3      -C16     : 179.101419
 C6      -C12     -C13     -C14     :-179.672024
 C6      -C12     -C13     -H28     :  -2.572056
 C7      -C6      -C11     -C10     :  -0.269784
 C7      -C6      -C11     -H27     : 177.478261
 C7      -C6      -C12     -C13     : -64.529823
 C7      -C8      -C9      -C10     :   0.050056
 C7      -C8      -C9      -H25     : 179.854037
 C8      -C7      -C6      -C11     :   0.162732
 C8      -C7      -C6      -C12     : 178.110672
 C8      -C7      -C23     -H50     : -97.999978
 C8      -C7      -C23     -H51     : 136.349784
 C8      -C7      -C23     -H52     :  19.463803
 C8      -C9      -C10     -C11     :  -0.138013
 C8      -C9      -C10     -H26     :-179.763280
 C9      -C8      -C7      -C23     :-176.841368
 C9      -C10     -C11     -H27     :-177.531920
 C10     -C9      -C8      -H24     :-179.500503
 C10     -C11     -C6      -C12     :-178.303644
 C11     -C6      -C7      -C23     : 176.725989
 C11     -C6      -C12     -C13     : 113.313608
 C11     -C10     -C9      -H25     :-179.942292
 C12     -C3      -C16     -C15     :   1.389369
 C12     -C3      -C16     -H31     :-178.015623
 C12     -C6      -C7      -C23     :  -5.326071
 C12     -C6      -C11     -H27     :  -0.555598
 C12     -C13     -C14     -C15     :   0.069281
 C12     -C13     -C14     -H29     : 179.385508
 C13     -C12     -C3      -C16     :  -1.587001
 C13     -C14     -C15     -C16     :  -0.376111
 C13     -C14     -C15     -H30     : 179.463904
 C14     -C15     -C16     -H31     : 179.052459
 C15     -C14     -C13     -H28     :-177.157509
 C16     -C15     -C14     -H29     :-179.691706
 C17     -C4      -C18     -H35     :  63.397798
 C17     -C4      -C18     -H36     :-173.138742
 C17     -C4      -C18     -H37     : -55.300675
 C17     -C4      -C19     -H38     : -63.489032
 C17     -C4      -C19     -H39     :  56.199662
 C17     -C4      -C19     -H40     : 175.412233
 C18     -C4      -C17     -H32     : -62.716189
 C18     -C4      -C17     -H33     :  56.217064
 C18     -C4      -C17     -H34     : 175.142529
 C18     -C4      -C19     -H38     :-178.128923
 C18     -C4      -C19     -H39     : -58.440230
 C18     -C4      -C19     -H40     :  60.772341
 C19     -C4      -C17     -H32     :-176.529244
 C19     -C4      -C17     -H33     : -57.595991
 C19     -C4      -C17     -H34     :  61.329474
 C19     -C4      -C18     -H35     : 178.119839
 C19     -C4      -C18     -H36     : -58.416700
 C19     -C4      -C18     -H37     :  59.421367
 C20     -C5      -C21     -H44     : -56.916913
 C20     -C5      -C21     -H45     :  61.234514
 C20     -C5      -C21     -H46     : 179.516327
 C20     -C5      -C22     -H47     :  58.236353
 C20     -C5      -C22     -H48     : 178.950347
 C20     -C5      -C22     -H49     : -61.064464
 C21     -C5      -C20     -H41     :  72.491689
 C21     -C5      -C20     -H42     :-166.579212
 C21     -C5      -C20     -H43     : -47.744432
 C21     -C5      -C22     -H47     : 173.704224
 C21     -C5      -C22     -H48     : -65.581782
 C21     -C5      -C22     -H49     :  54.403407
 C22     -C5      -C20     -H41     :-172.891008
 C22     -C5      -C20     -H42     : -51.961909
 C22     -C5      -C20     -H43     :  66.872871
 C22     -C5      -C21     -H44     :-172.240179
 C22     -C5      -C21     -H45     : -54.088752
 C22     -C5      -C21     -H46     :  64.193061
 C23     -C7      -C8      -H24     :   2.702123
 H24     -C8      -C9      -H25     :   0.303479
 H25     -C9      -C10     -H26     :   0.432441
 H26     -C10     -C11     -H27     :   2.096791
 H28     -C13     -C14     -H29     :   2.158718
 H29     -C14     -C15     -H30     :   0.148309
 H30     -C15     -C16     -H31     :  -0.788873
 
  nuclear repulsion energy.......          2443.747586133 hartrees
 -------------------------------------------------
   end of geometry optimization iteration  1
 -------------------------------------------------
   
  end of program geopt
   
 Time(geopt)  user:       0.530  user+sys:       0.530  wallclock:       0.615
  
  start of program onee
  
  smallest eigenvalue of S:    3.690E-04
  number of canonical orbitals.....          399
  end of program onee
   
 Time(onee)  user:       1.842  user+sys:       1.842  wallclock:       1.265
  
  start of program probe
  
  end of program probe
   
 Time(probe)  user:       0.358  user+sys:       0.358  wallclock:       0.630
  
  start of program grid
  
  end of program grid
   
 Time(grid)  user:      98.557  user+sys:      98.557  wallclock:      51.168
  
  start of program rwr
  
  end of program rwr
   
 Time(rwr)  user:       9.380  user+sys:       9.380  wallclock:      12.187
  
  start of program scf
  
 Energy computed using pseudospectral method.
 Convergence Criterion:
    Energy (econv):       1.00E-05
    RMS density (dconv):  5.00E-06
  
       i  u  d  i  g                   
       t  p  i  c  r                                 RMS    maximum
       e  d  i  u  i                       energy  density   DIIS  
       r  t  s  t  d       total energy    change  change    error 
  
etot    1  N  N  2  U   -1285.41863771310           6.7E-04  1.5E-02
etot    2  Y  Y  6  M   -1285.48059016756  6.2E-02  2.0E-04  2.7E-03
etot    3  N  Y  2  U   -1285.48092536063  3.4E-04  1.1E-04  6.5E-03
etot    4  Y  Y  6  M   -1285.48267557339  1.8E-03  2.6E-05  1.2E-03
etot    5  N  Y  2  U   -1285.48271368317  3.8E-05  1.2E-05  2.2E-04
etot    6  N  Y  2  U   -1285.48272326230  9.6E-06  4.7E-06  8.8E-05
etot    7  N  N  2  U   -1285.48272482552  1.6E-06  0.0E+00  0.0E+00
 
  Computing the dispersion energy correction and its gradients...
  
  
 Energy components, in hartrees:
   (A)  Nuclear repulsion............    2443.74758613279
   (E)  Total one-electron terms.....   -6666.16944909405
   (F)    Electron-nuclear...........   -7864.79589003163
   (H)    Kinetic....................    1198.62644093758
   (I)  Total two-electron terms.....    2936.93913813574
   (J)    Coulomb....................    3097.52139123594
   (K)    Exchange+Correlation.......    -160.58225310020
   (L)  Electronic energy............   -3729.23031095831  (E+I)
   (N0) D3 correction................      -0.08631935020
   (N)  Total energy.................   -1285.56904417572  (A+L+N0)
   (O)  Gas phase energy.............   -1285.56904417572
  
 SCFE: SCF energy: DFT(b3pw91-d3)     -1285.56904417572 hartrees   iterations:   7
  
 
 HOMO energy:    -0.14837
 LUMO energy:    -0.02971
 
  Orbital energies (hartrees): 
   -77.06405   -10.19676   -10.19571   -10.19405   -10.19258   -10.17940
   -10.17838   -10.17770   -10.17645   -10.17598   -10.17491   -10.16565
   -10.16285   -10.16281   -10.16200   -10.16184   -10.15932   -10.15619
   -10.15581   -10.15504   -10.15114   -10.14868    -6.56259    -4.72078
    -4.72024    -4.71743    -3.23294    -1.97145    -1.95131    -1.94925
    -0.87216    -0.84860    -0.82246    -0.80371    -0.78138    -0.76306
    -0.75323    -0.72383    -0.69092    -0.68853    -0.67942    -0.67850
    -0.67587    -0.64711    -0.61814    -0.60190    -0.58333    -0.56993
    -0.54988    -0.52960    -0.50589    -0.48975    -0.46632    -0.46427
    -0.45817    -0.45254    -0.45102    -0.44346    -0.43872    -0.43103
    -0.42332    -0.41884    -0.41485    -0.40895    -0.40002    -0.39849
    -0.38787    -0.38460    -0.37976    -0.37340    -0.37143    -0.36870
    -0.36197    -0.35694    -0.35405    -0.34934    -0.34259    -0.33604
    -0.33171    -0.32681    -0.32289    -0.31947    -0.31119    -0.30004
    -0.28129    -0.26252    -0.25430    -0.23905    -0.23397    -0.19296
    -0.19082    -0.17119    -0.17063    -0.14837    -0.02971    -0.02150
    -0.01655     0.00761     0.01079     0.02588     0.03845     0.06299
     0.06741     0.07477
 
  end of program scf
   
 Time(scf)  user:     132.374  user+sys:     132.374  wallclock:      71.480
  
  start of program der1a
  
  end of program der1a
   
 Time(der1a)  user:       5.731  user+sys:       5.731  wallclock:       3.517
  
  start of program rwr
  
  end of program rwr
   
 Time(rwr)  user:       9.732  user+sys:       9.732  wallclock:      12.745
  
  start of program der1b
  
   
  forces (hartrees/bohr) : total     
   
 atom  label           x              y              z
 ---- --------   -------------  -------------  -------------
    1 P1          7.170616E-03   7.438294E-03   3.183990E-02
    2 Pd2         1.722657E-03   9.144138E-03   1.496284E-03
    3 C3         -1.156569E-02   1.262225E-03  -1.521199E-02
    4 C4         -1.001145E-03   2.821230E-03  -2.640938E-02
    5 C5         -5.211328E-03  -1.383219E-02  -1.103504E-02
    6 C6         -4.270899E-03   1.812847E-02   2.980128E-02
    7 C7          5.074071E-04  -8.800364E-03   5.090790E-03
    8 C8          1.157571E-03   2.855325E-03   4.402038E-03
    9 C9         -7.298083E-04  -6.472989E-04  -2.268256E-03
   10 C10         1.778084E-03  -9.674368E-06   2.442810E-03
   11 C11        -5.056989E-03   8.155763E-03  -1.092501E-02
   12 C12        -2.147389E-03  -1.743698E-02  -1.466156E-02
   13 C13         1.082544E-02   7.393117E-04  -5.106820E-03
   14 C14        -3.109899E-03  -1.732166E-03  -1.872738E-03
   15 C15         1.226010E-03   1.826913E-04   2.906309E-03
   16 C16         2.549374E-03  -3.151587E-03  -8.221779E-03
   17 C17        -5.926088E-03  -4.142696E-03   6.492083E-03
   18 C18         2.248739E-03   3.117654E-03   8.546346E-03
   19 C19         3.101861E-03  -2.287885E-03  -7.337210E-03
   20 C20         7.479265E-03  -8.710782E-04   3.353760E-03
   21 C21        -2.861124E-03  -2.651486E-03  -6.015964E-03
   22 C22        -6.031976E-03   1.898912E-03   6.054549E-03
   23 C23        -1.588691E-05  -6.794779E-03   4.260349E-03
   24 H24        -1.435442E-03  -1.819068E-03  -4.657217E-03
   25 H25         3.385594E-04  -3.727825E-03  -3.317120E-03
   26 H26         1.759705E-03  -4.795642E-03  -6.132990E-04
   27 H27        -2.391763E-03  -2.087652E-03  -4.235232E-03
   28 H28        -3.941848E-03   1.504397E-03   6.407443E-03
   29 H29        -3.869544E-03   1.670222E-03   3.135842E-03
   30 H30        -7.067990E-04   2.512519E-03   4.079016E-03
   31 H31         1.906318E-03   2.768740E-03   3.553308E-03
   32 H32         3.524164E-03  -2.073538E-03  -2.085175E-03
   33 H33         5.544107E-03  -1.911379E-03   1.336161E-03
   34 H34         2.578625E-03   5.270044E-03   5.506687E-05
   35 H35         4.337496E-03  -3.501659E-03  -3.400140E-03
   36 H36        -2.194140E-03  -1.086003E-03   2.328575E-03
   37 H37         5.038887E-04  -5.866356E-03   8.027779E-04
   38 H38         2.767749E-03   8.126471E-03   1.213766E-03
   39 H39         1.074640E-03  -1.506233E-03   4.801627E-03
   40 H40        -4.946089E-03  -2.150349E-04   1.924309E-03
   41 H41        -5.256198E-03  -5.865087E-04   2.012050E-03
   42 H42        -4.869529E-05   2.752784E-03  -4.392215E-03
   43 H43        -1.012636E-03   5.647709E-03  -7.333077E-04
   44 H44        -3.351255E-03   1.602344E-03   3.979901E-03
   45 H45         2.858795E-03   3.445551E-03   3.236937E-03
   46 H46         2.867633E-03  -4.046013E-03   3.212227E-03
   47 H47         3.898726E-04   1.186794E-03  -5.797220E-03
   48 H48         4.314531E-03  -6.211727E-03   3.257494E-03
   49 H49         4.174246E-03   2.880578E-03  -2.774226E-03
   50 H50        -7.064292E-03  -2.367249E-03  -3.482843E-03
   51 H51         6.550582E-03   5.476925E-03  -4.435426E-03
   52 H52        -8.845808E-04   4.547784E-03  -3.746849E-03
 -------------   -------------  -------------  -------------
     total        2.264313E-04   9.768067E-04  -7.130008E-04
   
  end of program der1b
   
 Time(der1b)  user:      60.101  user+sys:      60.101  wallclock:      32.463
  
  start of program geopt
  
 ----------------------------------------------------------------------------
  Geometry optimization step  2
  Total energy:     -1285.56904417572 hartrees
 ----------------------------------------------------------------------------
  
  
  Level shifts adjusted to satisfy step-size constraints
   Step size:    0.3000250
   Cos(theta):   0.9500641
   Final level shift:  -2.6635160E-01
  
  energy change:          -3.6902E-02 .  (  2.5000E-04 )
  gradient maximum:        6.3756E-02 .  (  2.2500E-03 )
  gradient rms:            1.0209E-02 .  (  1.5000E-03 )
  displacement maximum:    1.1843E-01 .  (  9.0000E-03 )
  displacement rms:        2.3500E-02 .  (  6.0000E-03 )
  
  predicted energy change:  -3.0565E-02
  step size:     0.30002
  trust radius:  0.30000
  
  molecular structure not yet converged...
  
  center of mass moved by:
     x:     8.8194E-02     y:     1.2127E-01     z:    -4.8678E-02
  
  new geometry: 
                                   angstroms
  atom               x                 y                 z
  P1            0.0044774652      0.0169378220      0.0177611588 
  Pd2           0.3125011561      0.4925262627      2.1644575221 
  C3            1.7159568760     -0.1814175876     -0.7058451011 
  C4           -0.8541223696      1.3330448306     -1.0658694234 
  C5           -0.8346815707     -1.7093097487     -0.1439436830 
  C6            2.8113585948      1.2353218616      1.1178251436 
  C7            3.4301327275      0.7757197696      2.2925790427 
  C8            3.4234222372      1.5915690376      3.4248214374 
  C9            2.8272577607      2.8491277333      3.4296305167 
  C10           2.2157724064      3.3062829748      2.2645093903 
  C11           2.2186138675      2.5011360165      1.1378459839 
  C12           2.8488458452      0.4078445764     -0.1122755821 
  C13           4.1128209337      0.2031909034     -0.6685503189 
  C14           4.2958544726     -0.5505536060     -1.8200218739 
  C15           3.1844992748     -1.1207993947     -2.4369971259 
  C16           1.9236498895     -0.9256481138     -1.8787352060 
  C17          -2.3653541879      1.3318765315     -0.8177017063 
  C18          -0.2859247408      2.7088192469     -0.7229538929 
  C19          -0.5736618607      1.0880308618     -2.5688495371 
  C20           0.2241004852     -2.7492434664      0.2547591680 
  C21          -1.4649705795     -2.1149297337     -1.4918125891 
  C22          -1.9586881720     -1.7587739710      0.9091118720 
  C23           4.0278982713     -0.6099478239      2.3296452498 
  H24           3.8968378406      1.2193062008      4.3304158166 
  H25           2.8353656898      3.4609760354      4.3270384658 
  H26           1.7404130300      4.2814528097      2.2207763823 
  H27           1.7742387794      2.8646074739      0.2206343546 
  H28           4.9627714089      0.6930125966     -0.1955867507 
  H29           5.2931202856     -0.6799012404     -2.2300504484 
  H30           3.2802179555     -1.7106039114     -3.3439188942 
  H31           1.0683087862     -1.3530152344     -2.3842647243 
  H32          -2.6050518165      1.5690027745      0.2261995138 
  H33          -2.8288932363      2.1004824402     -1.4489163585 
  H34          -2.8382347845      0.3805439592     -1.0726156698 
  H35          -0.4646642017      2.9718498909      0.3259919226 
  H36           0.7816246960      2.7648127407     -0.9369390385 
  H37          -0.7813078887      3.4653251745     -1.3456188599 
  H38          -0.9247245120      0.1156182733     -2.9166685378 
  H39          -1.0789235697      1.8501993763     -3.1777209560 
  H40           0.4966340903      1.1485532005     -2.7919640264 
  H41           1.1227517291     -2.6943154795     -0.3675022748 
  H42           0.5399794365     -2.6044646360      1.2946455636 
  H43          -0.1965507667     -3.7580620960      0.1562241826 
  H44          -0.7345404367     -2.2437314847     -2.2969544278 
  H45          -1.9620389350     -3.0872224835     -1.3753385912 
  H46          -2.2296251153     -1.4125923624     -1.8306817942 
  H47          -1.5548494800     -1.6035958709      1.9164977895 
  H48          -2.7298167046     -1.0043874884      0.7440564072 
  H49          -2.4434650698     -2.7446377097      0.8751193531 
  H50           5.0536799612     -0.6340094295      1.9427847922 
  H51           3.4194595301     -1.3316554961      1.7740111566 
  H52           4.0948810689     -0.9597416438      3.3665903465 
   
 
  bond lengths (angstroms):
 
 P1      -Pd2     :   2.220218      P1      -C3      :   1.868720
 P1      -C4      :   1.908818      P1      -C5      :   1.926205
 C3      -C12     :   1.408188      C3      -C16     :   1.404524
 C4      -C17     :   1.531473      C4      -C18     :   1.527480
 C4      -C19     :   1.548431      C5      -C20     :   1.536700
 C5      -C21     :   1.542252      C5      -C22     :   1.541027
 C6      -C7      :   1.405049      C6      -C11     :   1.397867
 C6      -C12     :   1.482994      C7      -C8      :   1.395574
 C7      -C23     :   1.509560      C8      -C9      :   1.391722
 C8      -H24     :   1.087568      C9      -C10     :   1.392987
 C9      -H25     :   1.086170      C10     -C11     :   1.384789
 C10     -H26     :   1.085742      C11     -H27     :   1.082062
 C12     -C13     :   1.396051      C13     -C14     :   1.388351
 C13     -H28     :   1.089053      C14     -C15     :   1.393179
 C14     -H29     :   1.085999      C15     -C16     :   1.392653
 C15     -H30     :   1.086066      C16     -H31     :   1.081578
 C17     -H32     :   1.097002      C17     -H33     :   1.097295
 C17     -H34     :   1.092534      C18     -H35     :   1.096093
 C18     -H36     :   1.090223      C18     -H37     :   1.097915
 C19     -H38     :   1.090784      C19     -H39     :   1.098597
 C19     -H40     :   1.094978      C20     -H41     :   1.094441
 C20     -H42     :   1.096405      C20     -H43     :   1.097439
 C21     -H44     :   1.094702      C21     -H45     :   1.098179
 C21     -H46     :   1.092157      C22     -H47     :   1.096354
 C22     -H48     :   1.091321      C22     -H49     :   1.099132
 C23     -H50     :   1.096571      C23     -H51     :   1.095349
 C23     -H52     :   1.096402
 
  bond angles:
 
 C3      -P1      -Pd2     : 105.668595  C4      -P1      -Pd2     : 117.620209
 C4      -P1      -C3      : 105.386009  C5      -P1      -Pd2     : 109.486334
 C5      -P1      -C3      : 105.745405  C5      -P1      -C4      : 111.980707
 C12     -C3      -P1      : 121.949581  C16     -C3      -P1      : 120.999869
 C16     -C3      -C12     : 117.049701  C17     -C4      -P1      : 110.569509
 C18     -C4      -P1      : 109.040849  C18     -C4      -C17     : 109.352289
 C19     -C4      -P1      : 111.128557  C19     -C4      -C17     : 109.627247
 C19     -C4      -C18     : 107.040670  C20     -C5      -P1      : 106.531077
 C21     -C5      -P1      : 119.151139  C21     -C5      -C20     : 109.289958
 C22     -C5      -P1      : 106.807676  C22     -C5      -C20     : 107.669603
 C22     -C5      -C21     : 106.899248  C11     -C6      -C7      : 118.097530
 C12     -C6      -C7      : 119.991096  C12     -C6      -C11     : 121.861350
 C8      -C7      -C6      : 119.011654  C23     -C7      -C6      : 119.681668
 C23     -C7      -C8      : 121.238476  C9      -C8      -C7      : 122.215495
 H24     -C8      -C7      : 118.252972  H24     -C8      -C9      : 119.530139
 C10     -C9      -C8      : 118.796306  H25     -C9      -C8      : 120.574757
 H25     -C9      -C10     : 120.628473  C11     -C10     -C9      : 119.261502
 H26     -C10     -C9      : 121.375415  H26     -C10     -C11     : 119.362748
 C10     -C11     -C6      : 122.616916  H27     -C11     -C6      : 117.786231
 H27     -C11     -C10     : 119.571078  C6      -C12     -C3      : 124.248601
 C13     -C12     -C3      : 119.939792  C13     -C12     -C6      : 115.797815
 C14     -C13     -C12     : 121.966782  H28     -C13     -C12     : 117.880685
 H28     -C13     -C14     : 120.098122  C15     -C14     -C13     : 118.969666
 H29     -C14     -C13     : 119.925020  H29     -C14     -C15     : 121.103039
 C16     -C15     -C14     : 119.165527  H30     -C15     -C14     : 121.452047
 H30     -C15     -C16     : 119.382170  C15     -C16     -C3      : 122.880130
 H31     -C16     -C3      : 118.864964  H31     -C16     -C15     : 118.245399
 H32     -C17     -C4      : 111.694085  H33     -C17     -C4      : 108.850781
 H33     -C17     -H32     : 107.679258  H34     -C17     -C4      : 112.952245
 H34     -C17     -H32     : 108.401679  H34     -C17     -H33     : 107.029553
 H35     -C18     -C4      : 111.735326  H36     -C18     -C4      : 111.496388
 H36     -C18     -H35     : 109.583919  H37     -C18     -C4      : 108.992508
 H37     -C18     -H35     : 107.686730  H37     -C18     -H36     : 107.164484
 H38     -C19     -C4      : 113.096374  H39     -C19     -C4      : 110.174396
 H39     -C19     -H38     : 107.081438  H40     -C19     -C4      : 111.473908
 H40     -C19     -H38     : 107.390982  H40     -C19     -H39     : 107.353859
 H41     -C20     -C5      : 112.597744  H42     -C20     -C5      : 110.806984
 H42     -C20     -H41     : 107.221435  H43     -C20     -C5      : 109.553973
 H43     -C20     -H41     : 108.048260  H43     -C20     -H42     : 108.480058
 H44     -C21     -C5      : 113.643575  H45     -C21     -C5      : 108.974307
 H45     -C21     -H44     : 106.012577  H46     -C21     -C5      : 112.840537
 H46     -C21     -H44     : 108.337674  H46     -C21     -H45     : 106.580636
 H47     -C22     -C5      : 110.773995  H48     -C22     -C5      : 112.944934
 H48     -C22     -H47     : 107.541935  H49     -C22     -C5      : 109.229722
 H49     -C22     -H47     : 108.531868  H49     -C22     -H48     : 107.679788
 H50     -C23     -C7      : 112.451592  H51     -C23     -C7      : 111.863202
 H51     -C23     -H50     : 109.038250  H52     -C23     -C7      : 109.893244
 H52     -C23     -H50     : 105.635086  H52     -C23     -H51     : 107.667041
 
  torsional angles:
 
 P1      -C3      -C12     -C6      :  -0.283359
 P1      -C3      -C12     -C13     : 178.307236
 P1      -C3      -C16     -C15     :-178.693297
 P1      -C3      -C16     -H31     :   2.449009
 P1      -C4      -C17     -H32     :  60.923351
 P1      -C4      -C17     -H33     : 179.686337
 P1      -C4      -C17     -H34     : -61.585318
 P1      -C4      -C18     -H35     : -61.031093
 P1      -C4      -C18     -H36     :  61.981687
 P1      -C4      -C18     -H37     :-179.919663
 P1      -C4      -C19     -H38     :  59.901839
 P1      -C4      -C19     -H39     : 179.696214
 P1      -C4      -C19     -H40     : -61.225158
 P1      -C5      -C20     -H41     : -58.359022
 P1      -C5      -C20     -H42     :  61.721875
 P1      -C5      -C20     -H43     :-178.620778
 P1      -C5      -C21     -H44     :  66.512345
 P1      -C5      -C21     -H45     :-175.521313
 P1      -C5      -C21     -H46     : -57.340674
 P1      -C5      -C22     -H47     : -58.548287
 P1      -C5      -C22     -H48     :  62.158880
 P1      -C5      -C22     -H49     :-178.042906
 Pd2     -P1      -C3      -C12     : -23.056941
 Pd2     -P1      -C3      -C16     : 157.288057
 Pd2     -P1      -C4      -C17     : -77.291117
 Pd2     -P1      -C4      -C18     :  42.969979
 Pd2     -P1      -C4      -C19     : 160.727180
 Pd2     -P1      -C5      -C20     : -70.854318
 Pd2     -P1      -C5      -C21     : 165.081900
 Pd2     -P1      -C5      -C22     :  44.005367
 C3      -P1      -C4      -C17     : 165.313712
 C3      -P1      -C4      -C18     : -74.425191
 C3      -P1      -C4      -C19     :  43.332009
 C3      -P1      -C5      -C20     :  42.562440
 C3      -P1      -C5      -C21     : -81.501343
 C3      -P1      -C5      -C22     : 157.422125
 C3      -C12     -C6      -C7      : 113.766598
 C3      -C12     -C6      -C11     : -68.855205
 C3      -C12     -C13     -C14     :   1.322994
 C3      -C12     -C13     -H28     : 178.641016
 C3      -C16     -C15     -C14     :  -0.455340
 C3      -C16     -C15     -H30     : 179.725928
 C4      -P1      -C3      -C12     : 102.153930
 C4      -P1      -C3      -C16     : -77.501072
 C4      -P1      -C5      -C20     : 156.834825
 C4      -P1      -C5      -C21     :  32.771042
 C4      -P1      -C5      -C22     : -88.305490
 C5      -P1      -C3      -C12     :-139.100034
 C5      -P1      -C3      -C16     :  41.244964
 C5      -P1      -C4      -C17     :  50.820452
 C5      -P1      -C4      -C18     : 171.081549
 C5      -P1      -C4      -C19     : -71.161250
 C6      -C7      -C8      -C9      :  -0.196914
 C6      -C7      -C8      -H24     : 179.371174
 C6      -C7      -C23     -H50     :  85.361226
 C6      -C7      -C23     -H51     : -37.739475
 C6      -C7      -C23     -H52     :-157.274356
 C6      -C11     -C10     -C9      :   0.146843
 C6      -C11     -C10     -H26     : 179.939437
 C6      -C12     -C3      -C16     : 179.384598
[...]
    H46      X     0.00185  -0.23568  -0.39695   0.06979   0.00011  -0.00280
    H46      Y    -0.00134   0.16191   0.27022  -0.04844  -0.00011   0.00199
    H46      Z     0.00100  -0.12715  -0.21726   0.03931   0.00006  -0.00161
    H47      X    -0.00313   0.11636  -0.06997   0.00322   0.00002   0.00004
    H47      Y    -0.00426   0.17231  -0.10296   0.00444  -0.00006   0.00004
    H47      Z    -0.00907   0.36392  -0.21879   0.00988   0.00005   0.00003
    H48      X    -0.01582   0.50888  -0.32239   0.01365  -0.00069  -0.00013
    H48      Y     0.01150  -0.36990   0.23430  -0.00985   0.00044   0.00012
    H48      Z    -0.00711   0.23159  -0.14431   0.00574  -0.00032  -0.00005
    H49      X     0.00134  -0.03255   0.01998  -0.00040   0.00031  -0.00022
    H49      Y     0.00314  -0.06146   0.03858  -0.00057   0.00080  -0.00040
    H49      Z    -0.00032   0.00202  -0.00003  -0.00018  -0.00012   0.00013
    H50      X    -0.01145  -0.00192   0.00024  -0.00012   0.00365   0.00267
    H50      Y     0.00548   0.00023  -0.00004   0.00001   0.00071  -0.00116
    H50      Z     0.03199   0.00154  -0.00049   0.00013  -0.00116  -0.00078
    H51      X    -0.52199  -0.00994   0.00748  -0.00063  -0.01761   0.00064
    H51      Y    -0.40191  -0.00768   0.00580  -0.00050  -0.01227   0.00053
    H51      Z    -0.35880  -0.00707   0.00515  -0.00041  -0.01225   0.00041
    H52      X    -0.07408  -0.00088   0.00096  -0.00008  -0.00662  -0.00004
    H52      Y     0.23610   0.00322  -0.00306   0.00026   0.02063   0.00120
    H52      Z    -0.51422  -0.00686   0.00673  -0.00060  -0.03884  -0.00272
  
  vibration #          145       146       147       148       149       150
                 --------- --------- --------- --------- --------- ---------
  frequencies      3187.85   3192.90   3199.22   3208.63   3211.20   3239.78
  intensities         4.82      8.89     15.78     19.57     17.11      9.28
  reduc. mass         0.32      0.44      0.41      0.43      0.32      0.85
  force const         1.92      2.62      2.48      2.60      1.96      5.23
    P1       X     0.00000   0.00001  -0.00001   0.00003   0.00000   0.00002
    P1       Y    -0.00001  -0.00000   0.00000  -0.00001   0.00001   0.00005
    P1       Z    -0.00000  -0.00001  -0.00002  -0.00003   0.00000   0.00009
    Pd2      X    -0.00001  -0.00000  -0.00000  -0.00000   0.00001  -0.00000
    Pd2      Y     0.00002   0.00000  -0.00002   0.00000  -0.00000   0.00000
    Pd2      Z    -0.00000   0.00000   0.00000   0.00000   0.00001   0.00000
    C3       X     0.00001   0.00040  -0.00002   0.00004   0.00001   0.00084
    C3       Y     0.00002   0.00023  -0.00002   0.00015  -0.00001  -0.00115
    C3       Z     0.00007   0.00032  -0.00007   0.00022  -0.00005  -0.00230
    C4       X     0.00002  -0.00003  -0.00003   0.00001  -0.00002  -0.00008
    C4       Y    -0.00000   0.00001   0.00000  -0.00002  -0.00000   0.00002
    C4       Z    -0.00000   0.00002   0.00001   0.00001   0.00002   0.00010
    C5       X     0.00000  -0.00005  -0.00001   0.00003  -0.00000  -0.00018
    C5       Y     0.00000   0.00001  -0.00001   0.00002   0.00000   0.00004
    C5       Z    -0.00001   0.00003   0.00001  -0.00000   0.00000   0.00007
    C6       X     0.00019  -0.00009  -0.00046  -0.00011  -0.00027   0.00004
    C6       Y    -0.00064  -0.00004   0.00188  -0.00008   0.00159  -0.00001
    C6       Z    -0.00055  -0.00001   0.00041  -0.00003   0.00043  -0.00006
    C7       X     0.00002  -0.00001  -0.00031  -0.00001  -0.00013  -0.00001
    C7       Y    -0.00106   0.00013  -0.00051   0.00005   0.00067   0.00004
    C7       Z    -0.00094   0.00009  -0.00134   0.00002   0.00039   0.00003
    C8       X     0.01262  -0.00028   0.00966   0.00028  -0.00621  -0.00004
    C8       Y    -0.01451   0.00034  -0.01233  -0.00039   0.00849   0.00003
    C8       Z     0.02241  -0.00046   0.01598   0.00041  -0.00975  -0.00007
    C9       X     0.00360  -0.00015   0.00775   0.00040  -0.00767  -0.00002
    C9       Y     0.01580  -0.00059   0.02655   0.00103  -0.01955  -0.00004
    C9       Z     0.02479  -0.00095   0.04707   0.00210  -0.03994  -0.00009
    C10      X     0.01517  -0.00026  -0.00024  -0.00075   0.01555   0.00003
    C10      Y    -0.05539   0.00099  -0.00356   0.00271  -0.05644  -0.00013
    C10      Z    -0.00488   0.00013  -0.00388   0.00019  -0.00483  -0.00001
    C11      X    -0.01153  -0.00019   0.01689  -0.00043   0.01189   0.00003
    C11      Y     0.02207   0.00041  -0.03105   0.00074  -0.01987  -0.00006
    C11      Z    -0.03164  -0.00053   0.04756  -0.00123   0.03443   0.00011
    C12      X     0.00002   0.00141   0.00006   0.00139   0.00006  -0.00050
    C12      Y     0.00006  -0.00029  -0.00018  -0.00015  -0.00012  -0.00026
    C12      Z    -0.00002  -0.00107   0.00003  -0.00075   0.00006  -0.00030
    C13      X    -0.00017  -0.03843  -0.00078  -0.02240  -0.00121  -0.00148
    C13      Y    -0.00007  -0.02018  -0.00043  -0.01331  -0.00075  -0.00094
    C13      Z    -0.00004  -0.02543  -0.00063  -0.01776  -0.00106  -0.00127
    C14      X    -0.00066  -0.01390   0.00035  -0.06286  -0.00291  -0.00451
    C14      Y     0.00004   0.00251   0.00004   0.00212   0.00013  -0.00042
    C14      Z     0.00029   0.00949  -0.00005   0.02596   0.00125   0.00082
    C15      X     0.00016   0.00938   0.00013  -0.00268  -0.00009  -0.00478
    C15      Y    -0.00042  -0.02922  -0.00053   0.01940   0.00076   0.00816
    C15      Z    -0.00081  -0.05532  -0.00100   0.03554   0.00138   0.01614
    C16      X     0.00011   0.00606   0.00012  -0.00711  -0.00048   0.06214
    C16      Y     0.00008   0.00463   0.00009  -0.00502  -0.00030   0.03326
    C16      Z     0.00009   0.00635   0.00013  -0.00671  -0.00039   0.03980
    C17      X    -0.00001  -0.00000  -0.00000   0.00003   0.00003   0.00004
    C17      Y    -0.00002  -0.00003  -0.00003  -0.00000  -0.00001   0.00005
    C17      Z    -0.00000   0.00000  -0.00002   0.00001   0.00000   0.00015
    C18      X     0.00016  -0.00001  -0.00017   0.00005   0.00007  -0.00002
    C18      Y     0.00005   0.00001  -0.00008  -0.00003  -0.00010  -0.00000
    C18      Z     0.00038   0.00000  -0.00053   0.00001  -0.00025   0.00015
    C19      X     0.00001  -0.00089  -0.00010   0.00070   0.00006  -0.00277
    C19      Y    -0.00002  -0.00048  -0.00006   0.00017   0.00000  -0.00102
    C19      Z     0.00000   0.00013   0.00000  -0.00010   0.00000   0.00056
    C20      X    -0.00003  -0.00006  -0.00002   0.00007   0.00006  -0.00014
    C20      Y    -0.00002  -0.00001  -0.00003   0.00004   0.00005   0.00007
    C20      Z     0.00002   0.00006   0.00001  -0.00009  -0.00002   0.00025
    C21      X    -0.00002  -0.00108  -0.00004   0.00091   0.00009  -0.00291
    C21      Y    -0.00000   0.00021   0.00000  -0.00013  -0.00000   0.00057
    C21      Z     0.00001   0.00056   0.00001  -0.00053  -0.00003   0.00199
    C22      X     0.00004   0.00000  -0.00006   0.00001  -0.00000   0.00013
    C22      Y    -0.00000   0.00000  -0.00003   0.00002  -0.00001   0.00009
    C22      Z     0.00005   0.00000  -0.00007  -0.00003  -0.00003   0.00022
    C23      X     0.00030  -0.00027   0.00019  -0.00013  -0.00014  -0.00006
    C23      Y    -0.00020  -0.00012  -0.00009  -0.00005   0.00014   0.00000
    C23      Z     0.00107   0.00009   0.00078  -0.00005  -0.00021  -0.00005
    H24      X    -0.14097   0.00317  -0.10306  -0.00264   0.06418   0.00047
    H24      Y     0.16085  -0.00351   0.11925   0.00320  -0.07501  -0.00050
    H24      Z    -0.25216   0.00566  -0.18305  -0.00463   0.11294   0.00087
    H25      X    -0.05089   0.00194  -0.09371  -0.00403   0.07626   0.00018
    H25      Y    -0.16359   0.00610  -0.28996  -0.01205   0.22800   0.00053
    H25      Z    -0.29888   0.01129  -0.53892  -0.02272   0.43116   0.00099
    H26      X    -0.17800   0.00304  -0.00933   0.00816  -0.17040  -0.00040
    H26      Y     0.65001  -0.01123   0.04219  -0.02981   0.62435   0.00148
    H26      Z     0.06022  -0.00105   0.00920  -0.00265   0.05747   0.00019
    H27      X     0.13388   0.00223  -0.19146   0.00471  -0.12988  -0.00029
    H27      Y    -0.25080  -0.00442   0.35682  -0.00887   0.23886   0.00057
    H27      Z     0.38139   0.00668  -0.54817   0.01378  -0.37344  -0.00096
    H28      X     0.00152   0.43866   0.00937   0.25979   0.01424   0.01642
    H28      Y     0.00084   0.22789   0.00472   0.13705   0.00744   0.00879
    H28      Z     0.00091   0.28659   0.00616   0.17376   0.00969   0.01112
    H29      X     0.00768   0.17568  -0.00344   0.69624   0.03249   0.04164
    H29      Y    -0.00028  -0.00910   0.00003  -0.02498  -0.00123  -0.00072
    H29      Z    -0.00323  -0.07819   0.00131  -0.28974  -0.01361  -0.01585
    H30      X    -0.00153  -0.10198  -0.00178   0.05779   0.00220   0.02947
    H30      Y     0.00501   0.33730   0.00599  -0.20693  -0.00807  -0.08727
    H30      Z     0.00951   0.63642   0.01124  -0.38884  -0.01516  -0.16593
    H31      X    -0.00160  -0.09569  -0.00196   0.10289   0.00622  -0.71412
    H31      Y    -0.00085  -0.05308  -0.00111   0.05672   0.00333  -0.38167
    H31      Z    -0.00103  -0.06503  -0.00139   0.06943   0.00402  -0.46024
    H32      X     0.00001   0.00000  -0.00003   0.00001   0.00004   0.00038
    H32      Y    -0.00002  -0.00001   0.00004   0.00001   0.00000  -0.00054
    H32      Z     0.00001  -0.00007   0.00019   0.00014   0.00012  -0.00222
    H33      X    -0.00005  -0.00008   0.00000  -0.00026  -0.00024  -0.00057
    H33      Y     0.00004   0.00010   0.00001   0.00034   0.00033   0.00062
    H33      Z    -0.00005  -0.00008  -0.00001  -0.00026  -0.00027  -0.00041
    H34      X     0.00017   0.00019   0.00008  -0.00010  -0.00013  -0.00027
    H34      Y     0.00028   0.00031   0.00020  -0.00023  -0.00020  -0.00050
    H34      Z     0.00005   0.00005   0.00004  -0.00004  -0.00003  -0.00005
    H35      X     0.00040   0.00001  -0.00063  -0.00002  -0.00015   0.00026
    H35      Y    -0.00192  -0.00001   0.00255   0.00005   0.00124  -0.00062
    H35      Z    -0.00448  -0.00002   0.00618   0.00017   0.00327  -0.00133
    H36      X    -0.00286   0.00020   0.00358  -0.00037   0.00073   0.00075
    H36      Y    -0.00029  -0.00001   0.00039  -0.00012   0.00026  -0.00003
    H36      Z     0.00016  -0.00003  -0.00010   0.00008   0.00053   0.00004
    H37      X    -0.00092   0.00001   0.00111  -0.00030  -0.00003  -0.00055
    H37      Y     0.00113  -0.00004  -0.00135   0.00039   0.00000   0.00066
    H37      Z    -0.00131   0.00005   0.00160  -0.00041   0.00002  -0.00061
    H38      X     0.00006   0.00189   0.00029  -0.00068  -0.00002   0.00386
    H38      Y     0.00017   0.00542   0.00087  -0.00209  -0.00012   0.00891
    H38      Z     0.00004   0.00089   0.00014  -0.00037  -0.00002   0.00196
    H39      X    -0.00011   0.00090   0.00016  -0.00150  -0.00026   0.00427
    H39      Y     0.00011  -0.00111  -0.00021   0.00160   0.00027  -0.00415
    H39      Z    -0.00012   0.00074   0.00016  -0.00116  -0.00024   0.00252
    H40      X    -0.00006   0.00873   0.00077  -0.00700  -0.00050   0.02976
    H40      Y    -0.00000   0.00056   0.00003  -0.00063  -0.00008   0.00196
    H40      Z     0.00004  -0.00320  -0.00032   0.00266   0.00021  -0.01054
    H41      X     0.00025   0.00071   0.00014  -0.00062  -0.00045   0.00221
    H41      Y    -0.00007  -0.00019  -0.00001   0.00026   0.00015  -0.00033
    H41      Z    -0.00026  -0.00041  -0.00007   0.00028   0.00043  -0.00073
    H42      X    -0.00001  -0.00005   0.00009   0.00009   0.00002  -0.00035
    H42      Y     0.00005  -0.00004  -0.00003   0.00021  -0.00008  -0.00073
    H42      Z     0.00011  -0.00011   0.00013   0.00036  -0.00023  -0.00187
    H43      X     0.00009   0.00016   0.00016  -0.00037  -0.00024  -0.00004
    H43      Y     0.00021   0.00036   0.00042  -0.00082  -0.00055  -0.00012
    H43      Z    -0.00004  -0.00011  -0.00009   0.00023   0.00012   0.00005
    H44      X     0.00022   0.00985   0.00026  -0.00866  -0.00062   0.03376
    H44      Y    -0.00001  -0.00053  -0.00003   0.00050   0.00006  -0.00034
    H44      Z    -0.00020  -0.00929  -0.00026   0.00822   0.00062  -0.03177
    H45      X     0.00000   0.00034   0.00010  -0.00049  -0.00010   0.00058
    H45      Y     0.00003   0.00153   0.00029  -0.00176  -0.00032   0.00350
    H45      Z    -0.00002  -0.00024  -0.00002   0.00034   0.00006  -0.00050
    H46      X     0.00004   0.00398   0.00021  -0.00290  -0.00041   0.00793
    H46      Y    -0.00004  -0.00281  -0.00016   0.00208   0.00029  -0.00578
    H46      Z     0.00003   0.00229   0.00012  -0.00166  -0.00023   0.00470
    H47      X    -0.00015  -0.00005   0.00016   0.00011   0.00014  -0.00095
    H47      Y    -0.00024  -0.00006   0.00029   0.00014   0.00021  -0.00117
    H47      Z    -0.00050  -0.00007   0.00071   0.00020   0.00037  -0.00265
    H48      X    -0.00034   0.00012   0.00041  -0.00008  -0.00003  -0.00016
    H48      Y     0.00024  -0.00008  -0.00030   0.00008   0.00003   0.00024
    H48      Z    -0.00016   0.00002   0.00019  -0.00003  -0.00002  -0.00017
    H49      X     0.00001  -0.00000   0.00016  -0.00024  -0.00009  -0.00032
    H49      Y     0.00000   0.00001   0.00045  -0.00058  -0.00021  -0.00070
    H49      Z     0.00001  -0.00000  -0.00007   0.00012   0.00004   0.00015
    H50      X     0.00048   0.00228   0.00072   0.00072   0.00118   0.00028
    H50      Y     0.00066  -0.00105   0.00033  -0.00041  -0.00054  -0.00009
    H50      Z    -0.00011  -0.00069  -0.00018  -0.00016  -0.00077  -0.00022
    H51      X    -0.00305   0.00140  -0.00211   0.00088   0.00005   0.00035
    H51      Y    -0.00143   0.00106  -0.00090   0.00073  -0.00060   0.00032
    H51      Z    -0.00222   0.00089  -0.00143   0.00051  -0.00016   0.00016
    H52      X    -0.00180   0.00018  -0.00104   0.00022   0.00067   0.00013
    H52      Y     0.00583   0.00049   0.00335  -0.00010  -0.00194  -0.00023
    H52      Z    -0.00997  -0.00125  -0.00636   0.00028   0.00304   0.00055
  
  Number of imaginary frequencies:   1
   
  Writing vibrational animation data to L1_PL154.vib
  Writing IR vibrational spectrum data to L1_PL154_vib.spm
  rotational symmetry number:  1

  rotational temperatures (K):      0.013898      0.009700      0.008157
   
  The Quasi-Harmonic approximation will be applied to compute
  vibrational constributions to thermodynamic properties.
  Frequencies will be adjusted to a minimum value of  100.00 cm^-1.

    1 vibrational frequencies below    0.0 cm-1 not included in zero-point
  energy or thermochemical analysis.  Set freqcut to change the frequency
  cutoff value.

  vibrational temperatures:
       mode:      2        3        4        5        6        7
  temp. (K):   143.88   143.88   143.88   143.88   143.88   143.88
   
       mode:      8        9       10       11       12       13
  temp. (K):   160.16   166.87   201.04   203.87   227.18   263.65
   
       mode:     14       15       16       17       18       19
  temp. (K):   297.80   303.22   345.21   361.99   364.18   370.52
   
       mode:     20       21       22       23       24       25
  temp. (K):   385.75   397.88   415.15   439.10   454.35   469.32
   
       mode:     26       27       28       29       30       31
  temp. (K):   478.79   483.26   504.42   524.79   554.89   577.72
   
       mode:     32       33       34       35       36       37
  temp. (K):   588.94   592.64   597.88   618.37   671.66   697.21
   
       mode:     38       39       40       41       42       43
  temp. (K):   729.67   741.12   772.59   802.58   831.43   851.26
   
       mode:     44       45       46       47       48       49
  temp. (K):   883.51   903.22   983.22  1030.33  1069.88  1095.21
   
       mode:     50       51       52       53       54       55
  temp. (K):  1109.92  1139.95  1178.17  1198.25  1199.66  1257.68
   
       mode:     56       57       58       59       60       61
  temp. (K):  1309.03  1352.38  1375.47  1377.38  1388.11  1390.45
   
       mode:     62       63       64       65       66       67
  temp. (K):  1407.08  1411.29  1414.03  1423.59  1458.10  1462.59
   
       mode:     68       69       70       71       72       73
  temp. (K):  1464.55  1500.12  1513.35  1515.54  1521.88  1531.09
   
       mode:     74       75       76       77       78       79
  temp. (K):  1532.93  1539.35  1586.40  1644.62  1671.60  1725.45
   
       mode:     80       81       82       83       84       85
  temp. (K):  1737.39  1747.87  1751.73  1753.12  1774.15  1783.18
   
       mode:     86       87       88       89       90       91
  temp. (K):  1794.25  1804.01  1834.52  1868.66  1885.89  1927.74
   
       mode:     92       93       94       95       96       97
  temp. (K):  1947.39  2036.61  2043.83  2046.81  2049.95  2071.19
   
       mode:     98       99      100      101      102      103
  temp. (K):  2086.09  2096.90  2108.49  2125.03  2151.24  2156.07
   
       mode:    104      105      106      107      108      109
  temp. (K):  2158.49  2169.60  2170.79  2176.31  2177.94  2183.28
   
       mode:    110      111      112      113      114      115
  temp. (K):  2184.65  2192.67  2193.67  2201.06  2210.02  2216.20
   
       mode:    116      117      118      119      120      121
  temp. (K):  2227.55  2233.61  2303.88  2333.50  2348.46  2377.46
   
       mode:    122      123      124      125      126      127
  temp. (K):  4365.19  4369.71  4370.98  4372.82  4378.67  4381.08
   
       mode:    128      129      130      131      132      133
  temp. (K):  4386.86  4472.72  4473.29  4477.63  4478.53  4481.94
   
       mode:    134      135      136      137      138      139
  temp. (K):  4488.00  4493.96  4502.44  4511.30  4515.76  4526.41
   
       mode:    140      141      142      143      144      145
  temp. (K):  4530.93  4533.96  4560.15  4566.08  4579.09  4586.59
   
       mode:    146      147      148      149      150
  temp. (K):  4593.87  4602.96  4616.50  4620.20  4661.31
   
   
  Thermodynamic properties calculated assuming an ideal gas

  In the table below, the units for temperature
  are kelvins, the units for U, H, and G are
  kcal/mol and the units for Cv and S are cal/(mol K)

  The zero point energy (ZPE):    282.199 kcal/mol
  is not included in U, H, or G in the table below
  
 
  =============================================================================
  Thermodynamic properties for P = 1.00E+00 atm, calculated at   1 temperatures


  T =   298.15 K, P = 1.00E+00 atm
   
                  U         Cv          S          H          G        ln(Q)
              =========  =========  =========  =========  =========  =========
  trans.          0.889      2.981     43.982      1.481    -11.632   19.63272
  rot.            0.889      2.981     34.734      0.889     -9.467   15.97902
  vib.           13.264     90.072     78.289     13.264    -10.078   17.00994
  elec.           0.000      0.000      0.000      0.000      0.000    0.00000
  ----------------------------------------------------------------------------
  total          15.041     96.034    157.006     15.634    -31.178   52.62168
   
   Total internal energy, Utot(SCFE + ZPE + U):   -1285.133170 hartrees
   Total enthalpy, Htot (Utot + nRT), with n=1:   -1285.132225 hartrees
    Total Gibbs free energy, Gtot (Htot - T*S):   -1285.206824 hartrees
   
  end of program freq
   
 Time(freq)  user:       0.231  user+sys:       0.231  wallclock:       0.255
  
  start of program post
  
  Writing input files for PBF
  end of program post
   
 Time(post)  user:       0.161  user+sys:       0.161  wallclock:       0.106

 Total cpu seconds     user:   21631.791   user+sys:   21631.791
  
 Total elapsed time:    12468 seconds

Job L1_PL154 completed on bp1-compute145.data.bp.acrc.priv at Wed Mar 26 06:09:45 2025
