Job L2_PL154 started on bp1-compute217 at Mon Dec  1 21:30:35 2025
jobid: bp1-compute217-0-692e08f6

  +--------------------------------------------------------------------+
  |  Jaguar version 12.5, release 138                                  |
  |                                                                    |
  |  Copyright Schrodinger, Inc.                                       |
  |  All Rights Reserved.                                              |
  |                                                                    |
  |  The following have contributed to Jaguar (listed alphabetically): |
  |  Ty Balduf, Mike Beachy, Chandler Bennett, Art Bochevarov,         |
  |  Dale Braden, Yixiang Cao, Alan Chien, Chris Cortis,               |
  |  Rich Friesner, Jim Furness, Bill Goddard, Hod Greeley,            |
  |  Tom Hughes, Leif Jacobson, Jean-Marc Langlois, Daniel Levine,     |
  |  Rob Murphy, Dean Philipp, Tom Pollard, Murco Ringnalda,           |
  |  Daniel Mainz, Pablo Videla, Mark Watson, Haoyu Yu.                |
  |                                                                    |
  |  Use of this program should be acknowledged in publications as:    |
  |                                                                    |
  |  Jaguar, version 12.5, Schrodinger, Inc., New York, NY, 2024.      |
  |                                                                    |
  |  A. D. Bochevarov, E. Harder, T. F. Hughes, J. R. Greenwood,       |
  |  D. A. Braden, D. M. Philipp, D. Rinaldo, M. D. Halls,             |
  |  J. Zhang, R. A. Friesner, "Jaguar: A High-Performance Quantum     |
  |  Chemistry Software Program with Strengths in Life and Materials   |
  |  Sciences", Int. J. Quantum Chem., 2013, 113(18), 2110-2142.       |
  +--------------------------------------------------------------------+
  
  start of program pre
  
  Job name: L2_PL154
  Executables used: /software/local/apps/schrodinger2024-3/jaguar-v12.5/bin/Linux-x86_64
  Temporary files : /tmp/ar21627/L2_PL154#bp1-compute217-0-692e08f6
  Basis file : using default basis file from /software/local/apps/schrodinger2024-3
  Maestro file (input):  L2_PL154.mae
  Maestro file (output): L2_PL154.01.mae
  
 Contents of input file: &gen and (if present) &atomic sections only
 ----------------Contents start----------------
&gen
dftname=b3pw91-d3
basis=6-31G*
numd=5
ip11=2
iaccg=3
isolv=2
igeopt=1
solvent=benzene
ifreq=1
&
&atomic
atom basis
Pd2 lacv3p*
&
 -----------------Contents end-----------------
 
  PS calculation requested. Using PS version of 6-31g*
  basis set:               non_standard                    
  net molecular charge:    0
  multiplicity:            1
  
  Using up to  18 threads per process
  
  This run will use ECP on 1 atom
  number of basis functions....          771
  
 Input geometry:
                                   angstroms
  atom               x                 y                 z
  P1            0.2892019779      0.0572190836     -0.6143579710 
  Pd2           0.4486855134      0.3504081935      1.6495146867 
  C3            1.9423393250     -0.0062550185     -1.5077177639 
  C4           -0.5309813990     -1.6283079192     -0.7862187972 
  C5           -0.7710034506      1.1738111951     -1.6413395794 
  C6            2.8065766428      1.1435162515     -0.9642066939 
  C10           2.0041086885     -0.0182995249     -3.0403707865 
  C11          -2.0135486468     -1.4833475915     -0.4052480868 
  C15          -0.3647680437     -2.4774745611     -2.0511536835 
  C16          -1.0533152066      0.8666241956     -2.9847902717 
  C17          -1.8476300867      1.6812962706     -3.7839902014 
  C18          -2.3892074251      2.8491456358     -3.2504836790 
  C19          -2.1407030948      3.1587544164     -1.9194918578 
  C20          -1.3492854332      2.3375317511     -1.0999749816 
  C21          -1.2683134954      2.7752481860      0.3248518109 
  C22          -2.3923347260      2.5927656606      1.1481078398 
  C23          -2.4690984291      3.1838468113      2.4136151237 
  C24          -1.4049578423      3.9653340928      2.8513300828 
  C25          -0.2694505791      4.1487624021      2.0704132936 
  C26          -0.2045457599      3.5494310326      0.8078722296 
  C27           2.5308614789     -1.3283058091     -0.9810078044 
  H32           2.3485851184      2.0938825678     -1.2695344252 
  H33           2.7777997548      1.1263188956      0.1327850218 
  H40           1.4181113972     -0.8452170160     -3.4554620287 
  H41           1.5623727439      0.9101987145     -3.4273309593 
  C28           0.1638316894     -2.3900653313      0.3577044595 
  H43          -2.1044009476     -0.8766271186      0.5054951654 
  H44          -2.5406966437     -0.9350457809     -1.1991172843 
  H51          -0.8357596455     -1.9864672674     -2.9126619281 
  H52           0.6991225197     -2.6059314557     -2.2877142501 
  H53          -0.6459898829     -0.0369542008     -3.4205556417 
  H54          -2.0406640366      1.4024928288     -4.8182075712 
  H55          -3.0085237092      3.5045222629     -3.8593529543 
  H56          -2.5766483835      4.0537203191     -1.4806889137 
  H57          -3.3360347671      3.0420272000      3.0497495094 
  H58          -1.4616611246      4.4454018543      3.8262762628 
  H59           0.5456620425      4.7584119151      2.4406708723 
  P66           0.1154002187      0.2450401176      3.9117876933 
  C67          -1.7426067555     -0.0064852217      4.0921054044 
  C71          -2.4816515899      0.3928603161      5.3730734730 
  C72          -2.0775599300     -1.4515366794      3.6896091090 
  H76          -2.1509892562     -0.2280703251      6.2162858595 
  H77          -1.7107158261     -2.1378424358      4.4663083533 
  C44          -2.2554801574      0.9150510697      2.9699058957 
  H82          -2.2634799621      1.4370896074      5.6308482483 
  H83          -1.5426760881     -1.7126466180      2.7671234425 
  C84           0.5748510849      1.8290612799      4.8189165477 
  C88           1.9145207239      2.3215101715      4.2441802889 
  C89           0.6263733936      1.8582137475      6.3516163137 
  H93           2.6909369941      1.5883116855      4.5023815690 
  H94           1.3802704088      1.1400300959      6.7019204167 
  C52          -0.5292739278      2.7909803644      4.3422409440 
  H99           1.8529242623      2.3318697543      3.1481036810 
  H100         -0.3315060416      1.5482349025      6.7850140627 
  C101          0.8417972332     -1.1167336574      4.9323585601 
  C102          1.9059461793     -3.1862880817      6.5441210198 
  C103          1.7390271253     -2.0538361660      4.3846082767 
  C104          0.4707537457     -1.2736293924      6.2809535910 
  C105          0.9876248312     -2.2861719580      7.0818412379 
  C106          2.2632062396     -3.0648371595      5.2072474005 
  H107         -0.2383926040     -0.5839786714      6.7209662661 
  H108          0.6734372075     -2.3683262613      8.1206371641 
  H109          2.9573973604     -3.7764617662      4.7653156945 
  H110          2.3289907940     -3.9817369449      7.1541628858 
  C111          2.1604214439     -2.1386713857      2.9554760323 
  C112          3.2191342183     -2.6803361355      0.4244311066 
  C113          1.6326910546     -3.1688704213      2.1584984327 
  C114          3.2174990504     -1.3723382062      2.4446929960 
  C115          3.7517039898     -1.6410046591      1.1796013398 
  C116          2.1568561441     -3.4473223216      0.8917137463 
  H117          4.5758515227     -1.0578202333      0.7865279188 
  H118          1.7487174300     -4.2412094618      0.2757882906 
  H119          3.6437334312     -2.8979528921     -0.5535905242 
  H74          -3.2185865035      1.9864994323      0.8073010609 
  C75           1.0559832416      3.7490752458     -0.0539913468 
  C76           0.4551530535     -4.0160351046      2.6755247911 
  H79           3.6295346297     -0.5631131722      3.0293138354 
  H80          -2.4654513559     -2.4639155989     -0.2556809632 
  H81          -0.8224360504     -3.4543713986     -1.8952288152 
  H84           3.0406179723     -0.0989515878     -3.3678517011 
  H85           3.8308800232      1.0684922930     -1.3292737980 
  H86          -3.5549432961      0.2696051101      5.2283217287 
  H87          -3.1525254129     -1.5697800664      3.5533457174 
  H88           0.8815789705      2.8607375111      6.6950056219 
  H89           2.1659313002      3.3091976278      4.6306595390 
  H90          -0.3825748169      3.7689981947      4.8005645137 
  H91          -0.4838309678      2.8881275828      3.2575302197 
  H92          -1.5040172480      2.3976213327      4.6307615358 
  H95          -3.3445778546      0.8815643838      2.9408396298 
  H96          -1.9288886141      1.9373033769      3.1607937804 
  H97          -1.8564974816      0.5794682355      2.0126718670 
  H98          -0.2111211834     -3.4128954055      0.3941596735 
  H101          1.2399088460     -2.4040638550      0.1846091259 
  H102         -0.0448106881     -1.8931686212      1.3051547314 
  H103          3.5112467863     -1.4937000944     -1.4277620762 
  H104          2.6303740444     -1.2758973749      0.1031741939 
  H105          1.8681067442     -2.1523864934     -1.2451047326 
  H106          0.1850084728     -4.7595842226      1.9256870655 
  H111          0.7463232050     -4.5195773702      3.5973518517 
  H112         -0.4005087226     -3.3694120846      2.8700025403 
  H113          1.7687517174      4.3747087288      0.4832645000 
  H114          1.5098745251      2.7807116747     -0.2645968949 
  H115          0.7827835163      4.2333126895     -0.9915285505 
   
  principal moments of inertia:
        amu*angstrom^2:              4915.61700              7047.39490              9349.13226
                g*cm^2:          8.16257304E-37          1.17024731E-36          1.55245974E-36
   
  rotational constants:
               cm^(-1):      0.00342940      0.00239204      0.00180312
                   GHz:      0.10281090      0.07171146      0.05405625
   
  Molecular weight:     730.30 amu
   
  Stoichiometry: PdC42P2H58
  Molecular Point Group: C1      
  Point Group used: C1
  
 
Number of optimization coordinates:   334
Number of independent coordinates:    334
Number of non-redundant coordinates:  303
Number of frozen coordinates:           0
Number of harmonic constraints:         0
 
Number of geometric degrees of freedom:   303
Maximum geometric degrees of freedom:     303
 " " " " " excluding dummy atoms:         303
 
 
  bond lengths (angstroms):
 
 P1      -Pd2     :   2.288343      P1      -C3      :   1.880155
 P1      -C4      :   1.882349      P1      -C5      :   1.850812
 Pd2     -P66     :   2.289118      C3      -C6      :   1.537623
 C3      -C10     :   1.533945      C3      -C27     :   1.540000
 C4      -C11     :   1.537582      C4      -C15     :   1.532570
 C4      -C28     :   1.540000      C5      -C16     :   1.406742
 C5      -C20     :   1.407740      C6      -H32     :   1.098261
 C6      -H33     :   1.097504      C6      -H85     :   1.090000
 C10     -H40     :   1.095211      C10     -H41     :   1.098625
 C10     -H84     :   1.090000      C11     -H43     :   1.098097
 C11     -H44     :   1.099431      C11     -H80     :   1.090000
 C15     -H51     :   1.097779      C15     -H52     :   1.097418
 C15     -H81     :   1.090000      C16     -C17     :   1.390449
 C16     -H53     :   1.082709      C17     -C18     :   1.393487
 C17     -H54     :   1.088393      C18     -C19     :   1.388939
 C18     -H55     :   1.088023      C19     -C20     :   1.404406
 C19     -H56     :   1.087916      C20     -C21     :   1.492744
 C21     -C22     :   1.405160      C21     -C26     :   1.401524
 C22     -C23     :   1.398849      C22     -H74     :   1.080000
 C23     -C24     :   1.390939      C23     -H57     :   1.084601
 C24     -C25     :   1.390271      C24     -H58     :   1.088210
 C25     -C26     :   1.399079      C25     -H59     :   1.083131
 C26     -C75     :   1.540000      C27     -H103    :   1.090000
 C27     -H104    :   1.090000      C27     -H105    :   1.090000
 C28     -H98     :   1.090000      C28     -H101    :   1.090000
 C28     -H102    :   1.090000      P66     -C67     :   1.883605
 P66     -C84     :   1.882313      P66     -C101    :   1.850310
 C67     -C71     :   1.531843      C67     -C72     :   1.537001
 C67     -C44     :   1.540000      C71     -H76     :   1.098135
 C71     -H82     :   1.097480      C71     -H86     :   1.090000
 C72     -H77     :   1.099478      C72     -H83     :   1.097843
 C72     -H87     :   1.090000      C44     -H95     :   1.090000
 C44     -H96     :   1.090000      C44     -H97     :   1.090000
 C84     -C88     :   1.538682      C84     -C89     :   1.533843
 C84     -C52     :   1.540000      C88     -H93     :   1.098667
 C88     -H99     :   1.097855      C88     -H89     :   1.090000
 C89     -H94     :   1.098572      C89     -H100    :   1.096108
 C89     -H88     :   1.090000      C52     -H90     :   1.090000
 C52     -H91     :   1.090000      C52     -H92     :   1.090000
 C101    -C103    :   1.408266      C101    -C104    :   1.407479
 C102    -C105    :   1.393796      C102    -C106    :   1.389106
 C102    -H110    :   1.088052      C103    -C106    :   1.404857
 C103    -C111    :   1.492377      C104    -C105    :   1.390618
 C104    -H107    :   1.082644      C105    -H108    :   1.088375
 C106    -H109    :   1.087940      C111    -C113    :   1.405341
 C111    -C114    :   1.401991      C112    -C115    :   1.390727
 C112    -C116    :   1.391063      C112    -H119    :   1.088195
 C113    -C116    :   1.398938      C113    -C76     :   1.540000
 C114    -C115    :   1.399290      C114    -H79     :   1.080000
 C115    -H117    :   1.083434      C116    -H118    :   1.084527
 C75     -H113    :   1.090000      C75     -H114    :   1.090000
 C75     -H115    :   1.090000      C76     -H106    :   1.090000
 C76     -H111    :   1.090000      C76     -H112    :   1.090000
 
  bond angles:
 
 C3      -P1      -Pd2     : 114.400839  C4      -P1      -Pd2     : 103.616280
 C4      -P1      -C3      : 108.029114  C5      -P1      -Pd2     : 120.768771
 C5      -P1      -C3      : 105.092644  C5      -P1      -C4      : 103.884094
 P66     -Pd2     -P1      : 164.083023  C6      -C3      -P1      : 107.517455
 C10     -C3      -P1      : 120.692031  C10     -C3      -C6      : 109.658631
 C27     -C3      -P1      : 101.682302  C27     -C3      -C6      : 107.832851
 C27     -C3      -C10     : 108.638853  C11     -C4      -P1      : 108.245607
 C15     -C4      -P1      : 121.617475  C15     -C4      -C11     : 111.180968
 C28     -C4      -P1      : 100.283486  C28     -C4      -C11     : 107.314792
 C28     -C4      -C15     : 106.862939  C16     -C5      -P1      : 120.872850
 C20     -C5      -P1      : 121.375705  C20     -C5      -C16     : 117.732077
 H32     -C6      -C3      : 108.324976  H33     -C6      -C3      : 109.078028
 H33     -C6      -H32     : 106.290382  H85     -C6      -C3      : 110.997615
 H85     -C6      -H32     : 110.997615  H85     -C6      -H33     : 110.997615
 H40     -C10     -C3      : 111.288827  H41     -C10     -C3      : 109.214061
 H41     -C10     -H40     : 106.826911  H84     -C10     -C3      : 109.819701
 H84     -C10     -H40     : 109.819701  H84     -C10     -H41     : 109.819701
 H43     -C11     -C4      : 109.716407  H44     -C11     -C4      : 109.294631
 H44     -C11     -H43     : 106.478516  H80     -C11     -C4      : 110.422584
 H80     -C11     -H43     : 110.422584  H80     -C11     -H44     : 110.422584
 H51     -C15     -C4      : 110.693654  H52     -C15     -C4      : 110.359851
 H52     -C15     -H51     : 107.404838  H81     -C15     -C4      : 109.449724
 H81     -C15     -H51     : 109.449724  H81     -C15     -H52     : 109.449724
 C17     -C16     -C5      : 122.385944  H53     -C16     -C5      : 119.413479
 H53     -C16     -C17     : 118.199945  C18     -C17     -C16     : 119.537801
 H54     -C17     -C16     : 119.828150  H54     -C17     -C18     : 120.634048
 C19     -C18     -C17     : 118.957733  H55     -C18     -C17     : 120.783349
 H55     -C18     -C19     : 120.253987  C20     -C19     -C18     : 121.982842
 H56     -C19     -C18     : 119.880718  H56     -C19     -C20     : 118.130921
 C19     -C20     -C5      : 119.371507  C21     -C20     -C5      : 125.957448
 C21     -C20     -C19     : 114.587704  C22     -C21     -C20     : 118.538745
 C26     -C21     -C20     : 122.147886  C26     -C21     -C22     : 118.487521
 C23     -C22     -C21     : 121.268911  H74     -C22     -C21     : 120.000000
 H74     -C22     -C23     : 118.731089  C24     -C23     -C22     : 118.692917
 H57     -C23     -C22     : 121.279877  H57     -C23     -C24     : 120.027198
 C25     -C24     -C23     : 121.481538  H58     -C24     -C23     : 119.336007
 H58     -C24     -C25     : 119.182420  C26     -C25     -C24     : 119.225987
 H59     -C25     -C24     : 119.795051  H59     -C25     -C26     : 120.976269
 C25     -C26     -C21     : 120.825391  C75     -C26     -C21     : 120.000000
 C75     -C26     -C25     : 119.174609  H103    -C27     -C3      : 109.500000
 H104    -C27     -C3      : 109.500000  H104    -C27     -H103    : 109.442426
 H105    -C27     -C3      : 109.500000  H105    -C27     -H103    : 109.442426
 H105    -C27     -H104    : 109.442426  H98     -C28     -C4      : 109.500000
 H101    -C28     -C4      : 109.500000  H101    -C28     -H98     : 109.442426
 H102    -C28     -C4      : 109.500000  H102    -C28     -H98     : 109.442426
 H102    -C28     -H101    : 109.442426  C67     -P66     -Pd2     : 104.144657
 C84     -P66     -Pd2     : 113.703090  C84     -P66     -C67     : 107.879106
 C101    -P66     -Pd2     : 121.454276  C101    -P66     -C67     : 103.660446
 C101    -P66     -C84     : 104.933839  C71     -C67     -P66     : 121.408637
 C72     -C67     -P66     : 108.387463  C72     -C67     -C71     : 111.035381
 C44     -C67     -P66     : 100.302394  C44     -C67     -C71     : 107.018740
 C44     -C67     -C72     : 107.409483  H76     -C71     -C67     : 110.451995
 H82     -C71     -C67     : 110.398664  H82     -C71     -H76     : 107.325078
 H86     -C71     -C67     : 109.543930  H86     -C71     -H76     : 109.543930
 H86     -C71     -H82     : 109.543930  H77     -C72     -C67     : 109.218016
 H83     -C72     -C67     : 109.723222  H83     -C72     -H77     : 106.413473
 H87     -C72     -C67     : 110.465802  H87     -C72     -H77     : 110.465802
 H87     -C72     -H83     : 110.465802  H95     -C44     -C67     : 109.500000
 H96     -C44     -C67     : 109.500000  H96     -C44     -H95     : 109.442426
 H97     -C44     -C67     : 109.500000  H97     -C44     -H95     : 109.442426
 H97     -C44     -H96     : 109.442426  C88     -C84     -P66     : 107.567916
 C89     -C84     -P66     : 120.381598  C89     -C84     -C88     : 109.750084
 C52     -C84     -P66     : 101.622718  C52     -C84     -C88     : 107.981353
 C52     -C84     -C89     : 108.754292  H93     -C88     -C84     : 108.295598
 H99     -C88     -C84     : 109.092280  H99     -C88     -H93     : 106.294787
 H89     -C88     -C84     : 111.001005  H89     -C88     -H93     : 111.001005
 H89     -C88     -H99     : 111.001005  H94     -C89     -C84     : 109.223916
 H100    -C89     -C84     : 111.123104  H100    -C89     -H94     : 106.783140
 H88     -C89     -C84     : 109.885820  H88     -C89     -H94     : 109.885820
 H88     -C89     -H100    : 109.885820  H90     -C52     -C84     : 109.500000
 H91     -C52     -C84     : 109.500000  H91     -C52     -H90     : 109.442426
 H92     -C52     -C84     : 109.500000  H92     -C52     -H90     : 109.442426
 H92     -C52     -H91     : 109.442426  C103    -C101    -P66     : 121.689989
 C104    -C101    -P66     : 120.466818  C104    -C101    -C103    : 117.804897
 C106    -C102    -C105    : 118.965124  H110    -C102    -C105    : 120.796975
 H110    -C102    -C106    : 120.232715  C106    -C103    -C101    : 119.264141
 C111    -C103    -C101    : 126.170950  C111    -C103    -C106    : 114.487080
 C105    -C104    -C101    : 122.344517  H107    -C104    -C101    : 119.412136
 H107    -C104    -C105    : 118.242806  C104    -C105    -C102    : 119.533028
 H108    -C105    -C102    : 120.641987  H108    -C105    -C104    : 119.824953
 C103    -C106    -C102    : 122.039770  H109    -C106    -C102    : 119.857985
 H109    -C106    -C103    : 118.095268  C113    -C111    -C103    : 118.601287
 C114    -C111    -C103    : 122.053660  C114    -C111    -C113    : 118.503672
 C116    -C112    -C115    : 121.471944  H119    -C112    -C115    : 119.213096
 H119    -C112    -C116    : 119.314958  C116    -C113    -C111    : 121.248012
 C76     -C113    -C111    : 120.000000  C76     -C113    -C116    : 118.751988
 C115    -C114    -C111    : 120.816102  H79     -C114    -C111    : 120.000000
 H79     -C114    -C115    : 119.183898  C114    -C115    -C112    : 119.223662
 H117    -C115    -C112    : 119.772804  H117    -C115    -C114    : 121.001657
 C113    -C116    -C112    : 118.722382  H118    -C116    -C112    : 120.014194
 H118    -C116    -C113    : 121.263114  H113    -C75     -C26     : 109.500000
 H114    -C75     -C26     : 109.500000  H114    -C75     -H113    : 109.442426
 H115    -C75     -C26     : 109.500000  H115    -C75     -H113    : 109.442426
 H115    -C75     -H114    : 109.442426  H106    -C76     -C113    : 109.500000
 H111    -C76     -C113    : 109.500000  H111    -C76     -H106    : 109.442426
 H112    -C76     -C113    : 109.500000  H112    -C76     -H106    : 109.442426
 H112    -C76     -H111    : 109.442426
 
  torsional angles:
 
 P1      -Pd2     -P66     -C67     : -31.743045
 P1      -Pd2     -P66     -C84     :-148.899354
 P1      -Pd2     -P66     -C101    :  84.339182
 P1      -C3      -C6      -H32     : -66.676491
 P1      -C3      -C6      -H33     :  48.614161
 P1      -C3      -C6      -H85     : 171.220661
 P1      -C3      -C10     -H40     : -55.814895
 P1      -C3      -C10     -H41     :  61.883018
 P1      -C3      -C10     -H84     :-177.634239
 P1      -C3      -C27     -H103    : 180.000000
 P1      -C3      -C27     -H104    : -60.000000
 P1      -C3      -C27     -H105    :  60.000000
 P1      -C4      -C11     -H43     : -44.282964
 P1      -C4      -C11     -H44     :  72.122225
 P1      -C4      -C11     -H80     :-166.219072
 P1      -C4      -C15     -H51     : -65.751924
 P1      -C4      -C15     -H52     :  53.014342
 P1      -C4      -C15     -H81     : 173.525742
 P1      -C4      -C28     -H98     :-179.999999
 P1      -C4      -C28     -H101    : -60.000000
 P1      -C4      -C28     -H102    :  60.000000
 P1      -C5      -C16     -C17     : 179.874532
 P1      -C5      -C16     -H53     :   0.168915
 P1      -C5      -C20     -C19     : 179.647259
 P1      -C5      -C20     -C21     :  -3.861402
 Pd2     -P1      -C3      -C6      : -45.470594
 Pd2     -P1      -C3      -C10     :-172.168127
 Pd2     -P1      -C3      -C27     :  67.682508
 Pd2     -P1      -C4      -C11     :  73.399332
 Pd2     -P1      -C4      -C15     :-156.081248
 Pd2     -P1      -C4      -C28     : -38.829417
 Pd2     -P1      -C5      -C16     :-169.127728
 Pd2     -P1      -C5      -C20     :   9.234968
 Pd2     -P66     -C67     -C71     :-156.216306
 Pd2     -P66     -C67     -C72     :  73.530145
 Pd2     -P66     -C67     -C44     : -38.858477
 Pd2     -P66     -C84     -C88     : -43.616873
 Pd2     -P66     -C84     -C89     :-170.235451
 Pd2     -P66     -C84     -C52     :  69.693300
 Pd2     -P66     -C101    -C103    :   6.876552
 Pd2     -P66     -C101    -C104    :-170.822904
 C3      -P1      -Pd2     -P66     :-142.735930
 C3      -P1      -C4      -C11     :-164.874958
 C3      -P1      -C4      -C15     : -34.355538
 C3      -P1      -C4      -C28     :  82.896293
 C3      -P1      -C5      -C16     :  59.683942
 C3      -P1      -C5      -C20     :-121.953361
 C4      -P1      -Pd2     -P66     : -25.376679
 C4      -P1      -C3      -C6      :-160.274123
 C4      -P1      -C3      -C10     :  73.028343
 C4      -P1      -C3      -C27     : -47.121021
 C4      -P1      -C5      -C16     : -53.698424
 C4      -P1      -C5      -C20     : 124.664273
 C5      -P1      -Pd2     -P66     :  90.190034
 C5      -P1      -C3      -C6      :  89.291070
 C5      -P1      -C3      -C10     : -37.406463
 C5      -P1      -C3      -C27     :-157.555828
 C5      -P1      -C4      -C11     : -53.619962
 C5      -P1      -C4      -C15     :  76.899459
 C5      -P1      -C4      -C28     :-165.848711
 C5      -C16     -C17     -C18     :   0.119160
 C5      -C16     -C17     -H54     :-179.887579
 C5      -C20     -C19     -C18     :   0.934681
 C5      -C20     -C19     -H56     :-179.921520
 C5      -C20     -C21     -C22     :-103.501657
 C5      -C20     -C21     -C26     :  87.067260
 C6      -C3      -C10     -H40     : 178.471334
 C6      -C3      -C10     -H41     : -63.830753
 C6      -C3      -C10     -H84     :  56.651990
 C6      -C3      -C27     -H103    : -67.083272
 C6      -C3      -C27     -H104    :  52.916728
 C6      -C3      -C27     -H105    : 172.916728
 C10     -C3      -C6      -H32     :  66.255498
 C10     -C3      -C6      -H33     :-178.453849
 C10     -C3      -C6      -H85     : -55.847350
 C10     -C3      -C27     -H103    :  51.697626
 C10     -C3      -C27     -H104    : 171.697626
 C10     -C3      -C27     -H105    : -68.302374
 C11     -C4      -C15     -H51     :  63.508917
 C11     -C4      -C15     -H52     :-177.724817
 C11     -C4      -C15     -H81     : -57.213417
 C11     -C4      -C28     -H98     :  67.053711
 C11     -C4      -C28     -H101    :-172.946289
 C11     -C4      -C28     -H102    : -52.946289
 C15     -C4      -C11     -H43     : 179.684522
 C15     -C4      -C11     -H44     : -63.910290
 C15     -C4      -C11     -H80     :  57.748413
 C15     -C4      -C28     -H98     : -52.284654
 C15     -C4      -C28     -H101    :  67.715346
 C15     -C4      -C28     -H102    :-172.284654
 C16     -C5      -C20     -C19     :  -1.940411
 C16     -C5      -C20     -C21     : 174.550928
 C16     -C17     -C18     -C19     :  -1.182476
 C16     -C17     -C18     -H55     : 179.623338
 C17     -C16     -C5      -C20     :   1.453808
 C17     -C18     -C19     -C20     :   0.663465
 C17     -C18     -C19     -H56     :-178.465710
 C18     -C17     -C16     -H53     : 179.828186
 C18     -C19     -C20     -C21     :-175.942423
 C19     -C18     -C17     -H54     : 178.824317
 C19     -C20     -C21     -C22     :  73.135967
 C19     -C20     -C21     -C26     : -96.295116
 C20     -C5      -C16     -H53     :-178.251809
 C20     -C19     -C18     -H55     : 179.862028
 C20     -C21     -C22     -C23     :-168.752584
 C20     -C21     -C22     -H74     :  11.247416
 C20     -C21     -C26     -C25     : 168.230278
 C20     -C21     -C26     -C75     : -11.769722
 C21     -C20     -C19     -H56     :   3.201376
 C21     -C22     -C23     -C24     :   0.048446
 C21     -C22     -C23     -H57     :-179.917011
 C21     -C26     -C25     -C24     :   0.225661
 C21     -C26     -C25     -H59     :-179.176093
 C21     -C26     -C75     -H113    :-179.999999
 C21     -C26     -C75     -H114    : -60.000000
 C21     -C26     -C75     -H115    :  60.000000
 C22     -C21     -C26     -C25     :  -1.205996
 C22     -C21     -C26     -C75     : 178.794004
 C22     -C23     -C24     -C25     :  -1.075591
 C22     -C23     -C24     -H58     : 178.856488
 C23     -C22     -C21     -C26     :   1.070435
 C23     -C24     -C25     -C26     :   0.943781
 C23     -C24     -C25     -H59     :-179.647276
 C24     -C23     -C22     -H74     :-179.951554
 C24     -C25     -C26     -C75     :-179.774339
 C25     -C24     -C23     -H57     : 178.890311
 C25     -C26     -C75     -H113    :   0.000000
 C25     -C26     -C75     -H114    : 120.000000
 C25     -C26     -C75     -H115    :-120.000000
 C26     -C21     -C22     -H74     :-178.929565
 C26     -C25     -C24     -H58     :-178.988400
 C27     -C3      -C6      -H32     :-175.617034
 C27     -C3      -C6      -H33     : -60.326381
 C27     -C3      -C6      -H85     :  62.280118
 C27     -C3      -C10     -H40     :  60.845924
 C27     -C3      -C10     -H41     : 178.543837
 C27     -C3      -C10     -H84     : -60.973420
 C28     -C4      -C11     -H43     :  63.154473
 C28     -C4      -C11     -H44     : 179.559661
 C28     -C4      -C11     -H80     : -58.781636
 C28     -C4      -C15     -H51     :-179.684456
 C28     -C4      -C15     -H52     : -60.918190
 C28     -C4      -C15     -H81     :  59.593209
 H53     -C16     -C17     -H54     :  -0.178553
 H54     -C17     -C18     -H55     :  -0.369868
 H55     -C18     -C19     -H56     :   0.732852
 H57     -C23     -C22     -H74     :   0.082989
 H57     -C23     -C24     -H58     :  -1.177610
 H58     -C24     -C25     -H59     :   0.420543
 H59     -C25     -C26     -C75     :   0.823907
 P66     -C67     -C71     -H76     : -65.619165
 P66     -C67     -C71     -H82     :  52.920873
 P66     -C67     -C71     -H86     : 173.633939
 P66     -C67     -C72     -H77     :  71.658654
 P66     -C67     -C72     -H83     : -44.628170
 P66     -C67     -C72     -H87     :-166.651244
 P66     -C67     -C44     -H95     : 180.000000
 P66     -C67     -C44     -H96     : -60.000000
 P66     -C67     -C44     -H97     :  60.000000
 P66     -C84     -C88     -H93     : -65.831415
 P66     -C84     -C88     -H99     :  49.456160
 P66     -C84     -C88     -H89     : 172.078792
 P66     -C84     -C89     -H94     :  60.953417
 P66     -C84     -C89     -H100    : -56.598032
 P66     -C84     -C89     -H88     :-178.435523
 P66     -C84     -C52     -H90     : 180.000000
 P66     -C84     -C52     -H91     : -60.000000
 P66     -C84     -C52     -H92     :  60.000000
 P66     -C101    -C103    -C106    : 179.801227
 P66     -C101    -C103    -C111    :  -3.593618
 P66     -C101    -C104    -C105    : 179.719284
 P66     -C101    -C104    -H107    :  -0.553207
 C67     -P66     -C84     -C88     :-158.581277
 C67     -P66     -C84     -C89     :  74.800145
 C67     -P66     -C84     -C52     : -45.271104
 C67     -P66     -C101    -C103    : 123.202310
 C67     -P66     -C101    -C104    : -54.497145
 C71     -C67     -P66     -C84     : -35.091846
 C71     -C67     -P66     -C101    :  75.828265
 C71     -C67     -C72     -H77     : -64.084952
 C71     -C67     -C72     -H83     : 179.628225
 C71     -C67     -C72     -H87     :  57.605150
 C71     -C67     -C44     -H95     : -52.441277
 C71     -C67     -C44     -H96     :  67.558723
 C71     -C67     -C44     -H97     :-172.441277
 C72     -C67     -P66     -C84     :-165.345394
 C72     -C67     -P66     -C101    : -54.425284
 C72     -C67     -C71     -H76     :  63.490776
 C72     -C67     -C71     -H82     :-177.969185
 C72     -C67     -C71     -H86     : -57.256119
 C72     -C67     -C44     -H95     :  66.858705
 C72     -C67     -C44     -H96     :-173.141295
 C72     -C67     -C44     -H97     : -53.141295
 H76     -C71     -C67     -C44     :-179.575788
 H77     -C72     -C67     -C44     : 179.221131
 C44     -C67     -P66     -C84     :  82.265984
 C44     -C67     -P66     -C101    :-166.813905
 C44     -C67     -C71     -H82     : -61.035750
 C44     -C67     -C71     -H86     :  59.677316
 C44     -C67     -C72     -H83     :  62.934307
 C44     -C67     -C72     -H87     : -59.088767
 C84     -P66     -C101    -C103    :-123.730287
 C84     -P66     -C101    -C104    :  58.570258
 C88     -C84     -P66     -C101    :  91.367246
 C88     -C84     -C89     -H94     : -64.655047
 C88     -C84     -C89     -H100    : 177.793504
 C88     -C84     -C89     -H88     :  55.956013
 C88     -C84     -C52     -H90     : -66.999731
 C88     -C84     -C52     -H91     :  53.000269
 C88     -C84     -C52     -H92     : 173.000269
 C89     -C84     -P66     -C101    : -35.251332
 C89     -C84     -C88     -H93     :  66.803819
 C89     -C84     -C88     -H99     :-177.908606
 C89     -C84     -C88     -H89     : -55.285974
 C89     -C84     -C52     -H90     :  52.038381
 C89     -C84     -C52     -H91     : 172.038381
 C89     -C84     -C52     -H92     : -67.961619
 H93     -C88     -C84     -C52     :-174.792782
 H94     -C89     -C84     -C52     : 177.420919
 C52     -C84     -P66     -C101    :-155.322581
 C52     -C84     -C88     -H99     : -59.505207
 C52     -C84     -C88     -H89     :  63.117425
 C52     -C84     -C89     -H100    :  59.869470
 C52     -C84     -C89     -H88     : -61.968021
 C101    -C103    -C106    -C102    :   1.177769
 C101    -C103    -C106    -H109    :-179.785114
 C101    -C103    -C111    -C113    :-105.264406
 C101    -C103    -C111    -C114    :  85.400149
 C101    -C104    -C105    -C102    :  -0.055715
 C101    -C104    -C105    -H108    : 179.879338
 C102    -C105    -C104    -H107    :-179.786267
 C102    -C106    -C103    -C111    :-175.811227
 C103    -C101    -C104    -C105    :   1.932297
 C103    -C101    -C104    -H107    :-178.340194
 C103    -C106    -C102    -C105    :   0.729307
 C103    -C106    -C102    -H110    : 179.907559
 C103    -C111    -C113    -C116    :-168.656739
 C103    -C111    -C113    -C76     :  11.343261
 C103    -C111    -C114    -C115    : 168.241946
 C103    -C111    -C114    -H79     : -11.758054
 C104    -C101    -C103    -C106    :  -2.440461
 C104    -C101    -C103    -C111    : 174.164694
 C104    -C105    -C102    -C106    :  -1.285064
 C104    -C105    -C102    -H110    : 179.541467
 C105    -C102    -C106    -H109    :-178.291262
 C106    -C102    -C105    -H108    : 178.780425
 C106    -C103    -C111    -C113    :  71.481462
 C106    -C103    -C111    -C114    : -97.853983
 H107    -C104    -C105    -H108    :   0.148785
 H108    -C105    -C102    -H110    :  -0.393043
 H109    -C106    -C102    -H110    :   0.886990
 H109    -C106    -C103    -C111    :   3.225891
 C111    -C113    -C116    -C112    :  -0.099870
 C111    -C113    -C116    -H118    :-179.897271
 C111    -C113    -C76     -H106    : 180.000000
 C111    -C113    -C76     -H111    : -60.000000
 C111    -C113    -C76     -H112    :  60.000000
 C111    -C114    -C115    -C112    :   0.188242
 C111    -C114    -C115    -H117    :-179.312225
 C112    -C115    -C114    -H79     :-179.811758
 C112    -C116    -C113    -C76     : 179.900130
 C113    -C111    -C114    -C115    :  -1.103496
 C113    -C111    -C114    -H79     : 178.896504
 C113    -C116    -C112    -C115    :  -0.858260
 C113    -C116    -C112    -H119    : 179.120785
 C114    -C111    -C113    -C116    :   1.061961
 C114    -C111    -C113    -C76     :-178.938039
 C114    -C115    -C112    -C116    :   0.817175
 C114    -C115    -C112    -H119    :-179.161891
 C115    -C112    -C116    -H118    : 178.941740
 C116    -C112    -C115    -H117    :-179.676115
 C116    -C113    -C76     -H106    :   0.000000
 C116    -C113    -C76     -H111    : 120.000000
 C116    -C113    -C76     -H112    :-120.000000
 H117    -C115    -C112    -H119    :   0.344819
 H117    -C115    -C114    -H79     :   0.687775
 H118    -C116    -C112    -H119    :  -1.079214
 H118    -C116    -C113    -C76     :   0.102729
 
  nuclear repulsion energy.......          7506.729165361 hartrees
  
  Detected an organometallic with only one TM atom. 
  
  
 
  Will use High-Quality Initial guess for organometallics
       including d-d repulsion (iguess=30)
 
 Non-default options chosen:
   SCF calculation type: DFT(b3pw91-d3)              
   DFT=Becke_3_Parameter/HF+Slater+Becke88+PW91+PW-GGAIIC (B3PW91-D3)
   Geometry will be optimized in redundant internal coordinates
   Solvation energy will be computed using PBF
     -solute cavity energy will not be included
     -surface area terms will not be included
   Vibrational frequencies and related properties will be computed
      from analytic second derivatives
   IR intensities will be computed
   Thermochemical properties will be computed
   Maximum number of geometry steps: 100
   Scaling standard convergence criteria by a factor of   5.00
   Solvent: benzene                                                         
   Internal dielectric constant:    1.000
   Continuum dielectric constant:   2.283
   Solvent probe molecule radius:   2.600
  
 Non-default print settings:
     11=  2
  
 Temporary integer options set:
     21= -1  73=  2
  
  atom       vdw   vdw2    cov     mass  grid  daf  charge   basis
  P1        2.147  2.074  1.060   30.974    Y    Y      Y    ps_6-31g*
  Pd2       1.450  1.450  1.280  105.903    Y    Y      Y    lacv3p*
  C3        1.949  1.900  0.770   12.000    Y    Y      Y    ps_6-31g*
  C4        1.949  1.900  0.770   12.000    Y    Y      Y    ps_6-31g*
  C5        1.949  1.900  0.770   12.000    Y    Y      Y    ps_6-31g*
  C6        1.949  1.900  0.770   12.000    Y    Y      Y    ps_6-31g*
  C10       1.949  1.900  0.770   12.000    Y    Y      Y    ps_6-31g*
  C11       1.949  1.900  0.770   12.000    Y    Y      Y    ps_6-31g*
  C15       1.949  1.900  0.770   12.000    Y    Y      Y    ps_6-31g*
  C16       1.949  1.900  0.770   12.000    Y    Y      Y    ps_6-31g*
  C17       1.949  1.900  0.770   12.000    Y    Y      Y    ps_6-31g*
  C18       1.949  1.900  0.770   12.000    Y    Y      Y    ps_6-31g*
  C19       1.949  1.900  0.770   12.000    Y    Y      Y    ps_6-31g*
  C20       1.949  1.900  0.770   12.000    Y    Y      Y    ps_6-31g*
  C21       1.949  1.900  0.770   12.000    Y    Y      Y    ps_6-31g*
  C22       1.949  1.900  0.770   12.000    Y    Y      Y    ps_6-31g*
  C23       1.949  1.900  0.770   12.000    Y    Y      Y    ps_6-31g*
  C24       1.949  1.900  0.770   12.000    Y    Y      Y    ps_6-31g*
  C25       1.949  1.900  0.770   12.000    Y    Y      Y    ps_6-31g*
  C26       1.949  1.900  0.770   12.000    Y    Y      Y    ps_6-31g*
  C27       1.949  1.900  0.770   12.000    Y    Y      Y    ps_6-31g*
  H32       1.597  1.150  0.320    1.008    Y    Y      Y    ps_6-31g*
  H33       1.597  1.150  0.320    1.008    Y    Y      Y    ps_6-31g*
  H40       1.597  1.150  0.320    1.008    Y    Y      Y    ps_6-31g*
  H41       1.597  1.150  0.320    1.008    Y    Y      Y    ps_6-31g*
  C28       1.949  1.900  0.770   12.000    Y    Y      Y    ps_6-31g*
  H43       1.597  1.150  0.320    1.008    Y    Y      Y    ps_6-31g*
  H44       1.597  1.150  0.320    1.008    Y    Y      Y    ps_6-31g*
  H51       1.597  1.150  0.320    1.008    Y    Y      Y    ps_6-31g*
  H52       1.597  1.150  0.320    1.008    Y    Y      Y    ps_6-31g*
  H53       1.597  1.150  0.320    1.008    Y    Y      Y    ps_6-31g*
  H54       1.597  1.150  0.320    1.008    Y    Y      Y    ps_6-31g*
  H55       1.597  1.150  0.320    1.008    Y    Y      Y    ps_6-31g*
  H56       1.597  1.150  0.320    1.008    Y    Y      Y    ps_6-31g*
  H57       1.597  1.150  0.320    1.008    Y    Y      Y    ps_6-31g*
  H58       1.597  1.150  0.320    1.008    Y    Y      Y    ps_6-31g*
  H59       1.597  1.150  0.320    1.008    Y    Y      Y    ps_6-31g*
  P66       2.147  2.074  1.060   30.974    Y    Y      Y    ps_6-31g*
  C67       1.949  1.900  0.770   12.000    Y    Y      Y    ps_6-31g*
  C71       1.949  1.900  0.770   12.000    Y    Y      Y    ps_6-31g*
  C72       1.949  1.900  0.770   12.000    Y    Y      Y    ps_6-31g*
  H76       1.597  1.150  0.320    1.008    Y    Y      Y    ps_6-31g*
  H77       1.597  1.150  0.320    1.008    Y    Y      Y    ps_6-31g*
  C44       1.949  1.900  0.770   12.000    Y    Y      Y    ps_6-31g*
  H82       1.597  1.150  0.320    1.008    Y    Y      Y    ps_6-31g*
  H83       1.597  1.150  0.320    1.008    Y    Y      Y    ps_6-31g*
  C84       1.949  1.900  0.770   12.000    Y    Y      Y    ps_6-31g*
  C88       1.949  1.900  0.770   12.000    Y    Y      Y    ps_6-31g*
  C89       1.949  1.900  0.770   12.000    Y    Y      Y    ps_6-31g*
  H93       1.597  1.150  0.320    1.008    Y    Y      Y    ps_6-31g*
  H94       1.597  1.150  0.320    1.008    Y    Y      Y    ps_6-31g*
  C52       1.949  1.900  0.770   12.000    Y    Y      Y    ps_6-31g*
  H99       1.597  1.150  0.320    1.008    Y    Y      Y    ps_6-31g*
  H100      1.597  1.150  0.320    1.008    Y    Y      Y    ps_6-31g*
  C101      1.949  1.900  0.770   12.000    Y    Y      Y    ps_6-31g*
  C102      1.949  1.900  0.770   12.000    Y    Y      Y    ps_6-31g*
  C103      1.949  1.900  0.770   12.000    Y    Y      Y    ps_6-31g*
  C104      1.949  1.900  0.770   12.000    Y    Y      Y    ps_6-31g*
  C105      1.949  1.900  0.770   12.000    Y    Y      Y    ps_6-31g*
  C106      1.949  1.900  0.770   12.000    Y    Y      Y    ps_6-31g*
  H107      1.597  1.150  0.320    1.008    Y    Y      Y    ps_6-31g*
  H108      1.597  1.150  0.320    1.008    Y    Y      Y    ps_6-31g*
  H109      1.597  1.150  0.320    1.008    Y    Y      Y    ps_6-31g*
  H110      1.597  1.150  0.320    1.008    Y    Y      Y    ps_6-31g*
  C111      1.949  1.900  0.770   12.000    Y    Y      Y    ps_6-31g*
  C112      1.949  1.900  0.770   12.000    Y    Y      Y    ps_6-31g*
  C113      1.949  1.900  0.770   12.000    Y    Y      Y    ps_6-31g*
  C114      1.949  1.900  0.770   12.000    Y    Y      Y    ps_6-31g*
  C115      1.949  1.900  0.770   12.000    Y    Y      Y    ps_6-31g*
  C116      1.949  1.900  0.770   12.000    Y    Y      Y    ps_6-31g*
  H117      1.597  1.150  0.320    1.008    Y    Y      Y    ps_6-31g*
  H118      1.597  1.150  0.320    1.008    Y    Y      Y    ps_6-31g*
  H119      1.597  1.150  0.320    1.008    Y    Y      Y    ps_6-31g*
  H74       1.597  1.150  0.320    1.008    Y    Y      Y    ps_6-31g*
  C75       1.949  1.900  0.770   12.000    Y    Y      Y    ps_6-31g*
  C76       1.949  1.900  0.770   12.000    Y    Y      Y    ps_6-31g*
  H79       1.597  1.150  0.320    1.008    Y    Y      Y    ps_6-31g*
  H80       1.597  1.150  0.320    1.008    Y    Y      Y    ps_6-31g*
  H81       1.597  1.150  0.320    1.008    Y    Y      Y    ps_6-31g*
  H84       1.597  1.150  0.320    1.008    Y    Y      Y    ps_6-31g*
  H85       1.597  1.150  0.320    1.008    Y    Y      Y    ps_6-31g*
  H86       1.597  1.150  0.320    1.008    Y    Y      Y    ps_6-31g*
  H87       1.597  1.150  0.320    1.008    Y    Y      Y    ps_6-31g*
  H88       1.597  1.150  0.320    1.008    Y    Y      Y    ps_6-31g*
  H89       1.597  1.150  0.320    1.008    Y    Y      Y    ps_6-31g*
  H90       1.597  1.150  0.320    1.008    Y    Y      Y    ps_6-31g*
  H91       1.597  1.150  0.320    1.008    Y    Y      Y    ps_6-31g*
  H92       1.597  1.150  0.320    1.008    Y    Y      Y    ps_6-31g*
  H95       1.597  1.150  0.320    1.008    Y    Y      Y    ps_6-31g*
  H96       1.597  1.150  0.320    1.008    Y    Y      Y    ps_6-31g*
  H97       1.597  1.150  0.320    1.008    Y    Y      Y    ps_6-31g*
  H98       1.597  1.150  0.320    1.008    Y    Y      Y    ps_6-31g*
  H101      1.597  1.150  0.320    1.008    Y    Y      Y    ps_6-31g*
  H102      1.597  1.150  0.320    1.008    Y    Y      Y    ps_6-31g*
  H103      1.597  1.150  0.320    1.008    Y    Y      Y    ps_6-31g*
  H104      1.597  1.150  0.320    1.008    Y    Y      Y    ps_6-31g*
  H105      1.597  1.150  0.320    1.008    Y    Y      Y    ps_6-31g*
  H106      1.597  1.150  0.320    1.008    Y    Y      Y    ps_6-31g*
  H111      1.597  1.150  0.320    1.008    Y    Y      Y    ps_6-31g*
  H112      1.597  1.150  0.320    1.008    Y    Y      Y    ps_6-31g*
  H113      1.597  1.150  0.320    1.008    Y    Y      Y    ps_6-31g*
  H114      1.597  1.150  0.320    1.008    Y    Y      Y    ps_6-31g*
  H115      1.597  1.150  0.320    1.008    Y    Y      Y    ps_6-31g*
 
  atom      formal  2spin      esp    mulk    frag
  P1           0       0        Y    0.000       0
  Pd2          0       0        Y    0.000       0
  P66          0       0        Y    0.000       0
  
  end of program pre
   
 Time(pre)  user:       4.640  user+sys:       4.640  wallclock:       0.929
  
  start of program onee
  
  smallest eigenvalue of S:    3.438E-04
  number of canonical orbitals.....          767
  end of program onee
   
 Time(onee)  user:       9.001  user+sys:       9.001  wallclock:       1.518
  
  start of program hfig
  
  initial wavefunction generated automatically from atomic wavefunctions
  Only one possible d-orb occupation 
  Skip d-d repulsion considerations 
 
  Irreducible     Total no   No of occupied orbitals 
  representation  orbitals   Shell_1  Shell_2    ...
  No Symm          767        179
  ------------------------
  Orbital occupation/shell    1.000
 
  end of program hfig
   
 Time(hfig)  user:       2.882  user+sys:       2.882  wallclock:       1.192
  
  start of program probe
  
  end of program probe
   
 Time(probe)  user:       1.731  user+sys:       1.731  wallclock:       0.519
  
  start of program grid
  
   grid     grid set  grid #  grid sym
  ------    --------  ------  --------
  coarse        0        0        1
  medium        2        1        1
  fine          0        0        1
  ultrafine     4        2        1
  charge       -1        3        1
  gradient      4        2        1
  density       0        0        1
  DFT-fine    -11        4        1
  DFT-med.    -10        5        1
  DFT-grad    -12        6        1
  DFT-der2     -8        7        1
  DFT-cphf     -9        8        1
  LMP2-enrg     4        2        1
  LMP2-grad     2        1        1
  DFT-cphf2   -15        9        1
  PBF-dens      0        0        1
  plotting      0        0        1
  Rel-grad    -17        0        1
  
  number of gridpoints: 
     atom           P1         Pd2          C3          C4          C5          C6         C10
  grid # 1         601         348          88          88          95          80          81
  grid # 2         424         324         363         361         381         242         236
  grid # 3           6         216           6           6          12           6           6
  grid # 4        8714        8714        8714        8714        8714        8714        8714
  grid # 5        1192        1192        1192        1192        1192        1192        1192
  grid # 6        9132        9132        5922        5922        5922        5922        5922
  grid # 7       23034       32968       13950       13950       13950       13950       13950
  grid # 8         722        1150         748         748         748         748         748
  grid # 9         366        2198         394         394         394         394         394
   
  number of gridpoints: 
     atom          C11         C15         C16         C17         C18         C19         C20
  grid # 1          80          80          93          95          97          95          98
  grid # 2         242         239         324         324         324         326         358
  grid # 3           6           6          14          33          43          24          12
  grid # 4        8714        8714        8714        8714        8714        8714        8714
  grid # 5        1192        1192        1192        1192        1192        1192        1192
  grid # 6        5922        5922        5922        5922        5922        5922        5922
  grid # 7       13950       13950       13950       13950       13950       13950       13950
  grid # 8         748         748         748         748         748         748         748
  grid # 9         394         394         394         394         394         394         394
   
  number of gridpoints: 
     atom          C21         C22         C23         C24         C25         C26         C27
  grid # 1          98          94          91          91          94          99          79
  grid # 2         354         319         291         291         303         367         234
  grid # 3           8          15          26          26          27          18           6
  grid # 4        8714        8714        8714        8714        8714        8714        8714
  grid # 5        1192        1192        1192        1192        1192        1192        1192
  grid # 6        5922        5922        5922        5922        5922        5922        5922
  grid # 7       13950       13950       13950       13950       13950       13950       13950
  grid # 8         748         748         748         748         748         748         748
  grid # 9         394         394         394         394         394         394         394
   
  number of gridpoints: 
     atom          H32         H33         H40         H41         C28         H43         H44
  grid # 1         101         100         101         108          78          98         105
  grid # 2         411         429         427         436         242         415         438
  grid # 3         129         108         157         211           6          75         223
  grid # 4        8714        8714        8714        8714        8714        8714        8714
  grid # 5        1192        1192        1192        1192        1192        1192        1192
  grid # 6        5922        5922        5922        5922        5922        5922        5922
  grid # 7       15206       15206       15206       15206       13950       15206       15206
  grid # 8         786         786         786         786         748         786         786
  grid # 9         420         420         420         420         394         420         420
   
  number of gridpoints: 
     atom          H51         H52         H53         H54         H55         H56         H57
  grid # 1         101          99         104         118         118         115         110
  grid # 2         429         411         421         465         468         457         440
  grid # 3         184         136          93         417         426         331         259
  grid # 4        8714        8714        8714        8714        8714        8714        8714
  grid # 5        1192        1192        1192        1192        1192        1192        1192
  grid # 6        5922        5922        5922        5922        5922        5922        5922
  grid # 7       15206       15206       15206       15206       15206       15206       15206
  grid # 8         786         786         786         786         786         786         786
  grid # 9         420         420         420         420         420         420         420
   
  number of gridpoints: 
     atom          H58         H59         P66         C67         C71         C72         H76
  grid # 1         106         110         604          88          80          81         101
  grid # 2         430         447         426         360         238         241         428
  grid # 3         228         244           6           6           6           6         183
  grid # 4        8714        8714        8714        8714        8714        8714        8714
  grid # 5        1192        1192        1192        1192        1192        1192        1192
  grid # 6        5922        5922        9132        5922        5922        5922        5922
  grid # 7       15206       15206       23034       13950       13950       13950       15206
  grid # 8         786         786         722         748         748         748         786
  grid # 9         420         420         366         394         394         394         420
   
  number of gridpoints: 
     atom          H77         C44         H82         H83         C84         C88         C89
  grid # 1         103          79          99          96          88          80          81
  grid # 2         432         243         409         404         362         242         236
  grid # 3         178           6         135          42           6           6           6
  grid # 4        8714        8714        8714        8714        8714        8714        8714
  grid # 5        1192        1192        1192        1192        1192        1192        1192
  grid # 6        5922        5922        5922        5922        5922        5922        5922
  grid # 7       15206       13950       15206       15206       13950       13950       13950
  grid # 8         786         748         786         786         748         748         748
  grid # 9         420         394         420         420         394         394         394
   
  number of gridpoints: 
     atom          H93         H94         C52         H99        H100        C101        C102
  grid # 1         103         108          78          99         103          95          96
  grid # 2         442         436         237         433         425         382         324
  grid # 3         203         214           6         107         159          14          39
  grid # 4        8714        8714        8714        8714        8714        8714        8714
  grid # 5        1192        1192        1192        1192        1192        1192        1192
  grid # 6        5922        5922        5922        5922        5922        5922        5922
  grid # 7       15206       15206       13950       15206       15206       13950       13950
  grid # 8         786         786         748         786         786         748         748
  grid # 9         420         420         394         420         420         394         394
   
  number of gridpoints: 
     atom         C103        C104        C105        C106        H107        H108        H109
  grid # 1          98          93          95          96         101         118         116
  grid # 2         358         324         324         324         421         466         453
  grid # 3          16          14          33          25          87         415         306
  grid # 4        8714        8714        8714        8714        8714        8714        8714
  grid # 5        1192        1192        1192        1192        1192        1192        1192
  grid # 6        5922        5922        5922        5922        5922        5922        5922
  grid # 7       13950       13950       13950       13950       15206       15206       15206
  grid # 8         748         748         748         748         786         786         786
  grid # 9         394         394         394         394         420         420         420
   
  number of gridpoints: 
     atom         H110        C111        C112        C113        C114        C115        C116
  grid # 1         118          99          91          99          94          93          91
  grid # 2         467         354         297         360         323         298         290
  grid # 3         419           8          28          14          18          27          26
  grid # 4        8714        8714        8714        8714        8714        8714        8714
  grid # 5        1192        1192        1192        1192        1192        1192        1192
  grid # 6        5922        5922        5922        5922        5922        5922        5922
  grid # 7       15206       13950       13950       13950       13950       13950       13950
  grid # 8         786         748         748         748         748         748         748
  grid # 9         420         394         394         394         394         394         394
   
  number of gridpoints: 
     atom         H117        H118        H119         H74         C75         C76         H79
  grid # 1         111         107         106         112          80          80         112
  grid # 2         452         439         426         445         239         243         453
  grid # 3         287         236         234         230           6           6         233
  grid # 4        8714        8714        8714        8714        8714        8714        8714
  grid # 5        1192        1192        1192        1192        1192        1192        1192
  grid # 6        5922        5922        5922        5922        5922        5922        5922
  grid # 7       15206       15206       15206       15206       13950       13950       15206
  grid # 8         786         786         786         786         748         748         786
  grid # 9         420         420         420         420         394         394         420
   
  number of gridpoints: 
     atom          H80         H81         H84         H85         H86         H87         H88
  grid # 1         109         109         109         109         109         108         109
  grid # 2         446         446         447         447         446         447         447
  grid # 3         267         268         274         263         272         269         275
  grid # 4        8714        8714        8714        8714        8714        8714        8714
  grid # 5        1192        1192        1192        1192        1192        1192        1192
  grid # 6        5922        5922        5922        5922        5922        5922        5922
  grid # 7       15206       15206       15206       15206       15206       15206       15206
  grid # 8         786         786         786         786         786         786         786
  grid # 9         420         420         420         420         420         420         420
   
  number of gridpoints: 
     atom          H89         H90         H91         H92         H95         H96         H97
  grid # 1         109         101          88          91         106          87          94
  grid # 2         447         417         384         384         428         368         406
  grid # 3         259         143           6          33         138           6          14
  grid # 4        8714        8714        8714        8714        8714        8714        8714
  grid # 5        1192        1192        1192        1192        1192        1192        1192
  grid # 6        5922        5922        5922        5922        5922        5922        5922
  grid # 7       15206       15206       15206       15206       15206       15206       15206
  grid # 8         786         786         786         786         786         786         786
  grid # 9         420         420         420         420         420         420         420
   
  number of gridpoints: 
     atom          H98        H101        H102        H103        H104        H105        H106
  grid # 1         102          87          93         101          90          90         107
  grid # 2         414         371         402         416         384         379         442
  grid # 3          70           6          13         135           6          29         243
  grid # 4        8714        8714        8714        8714        8714        8714        8714
  grid # 5        1192        1192        1192        1192        1192        1192        1192
  grid # 6        5922        5922        5922        5922        5922        5922        5922
  grid # 7       15206       15206       15206       15206       15206       15206       15206
  grid # 8         786         786         786         786         786         786         786
  grid # 9         420         420         420         420         420         420         420
   
  number of gridpoints: 
     atom         H111        H112        H113        H114        H115       total
  grid # 1         108         101         108          95         110       11339
  grid # 2         448         420         454         395         453       38787
  grid # 3         249          86         285          28         297       11679
  grid # 4        8714        8714        8714        8714        8714      897542
  grid # 5        1192        1192        1192        1192        1192      122776
  grid # 6        5922        5922        5922        5922        5922      619596
  grid # 7       15206       15206       15206       15206       15206     1546884
  grid # 8         786         786         786         786         786       79598
  grid # 9         420         420         420         420         420       43838
   
  end of program grid
   
 Time(grid)  user:     778.193  user+sys:     778.193  wallclock:      52.003
  
  start of program rwr
  
  end of program rwr
   
 Time(rwr)  user:      65.105  user+sys:      65.105  wallclock:      22.782
  
  start of program scf
  
 number of electrons..........        358
 number of alpha electrons....        179
 number of beta electrons.....        179
 number of orbitals, total....        767
 number of doubly-occ'd orbs..        179
 number of open shell orbs....          0
 number of occupied orbitals..        179
 number of virtual orbitals...        588
 number of hamiltonians.......          1
 number of shells.............          1
 SCF type: DFT=Becke_3_Parameter/HF+Slater+Becke88+PW91+PW-GGAIIC (B3PW91-D3)
 Energy computed using pseudospectral method.
 Convergence Criterion:
    Energy (econv):       1.00E-05
    RMS density (dconv):  5.00E-06
  
       i  u  d  i  g                   
       t  p  i  c  r                                 RMS    maximum
       e  d  i  u  i                       energy  density   DIIS  
       r  t  s  t  d       total energy    change  change    error 
  
etot    1  N  N  5  M   -2438.59392718159           1.8E-03  2.3E-01
etot    2  Y  Y  6  M   -2442.15500811298  3.6E+00  3.0E-03  1.8E-01
etot    3  Y  Y  6  M   -2443.45047010416  1.3E+00  9.2E-04  1.8E-02
etot    4  N  Y  2  U   -2443.69036430775  2.4E-01  7.6E-04  6.7E-02
etot    5  Y  Y  6  M   -2443.75716285741  6.7E-02  4.8E-04  4.4E-02
etot    6  N  Y  2  U   -2443.76838568197  1.1E-02  8.1E-04  2.9E-02
etot    7  Y  Y  6  M   -2443.77795795926  9.6E-03  1.0E-04  2.5E-03
etot    8  N  Y  2  U   -2443.78525793489  7.3E-03  2.0E-05  6.5E-04
etot    9  N  Y  2  U   -2443.78537731577  1.2E-04  8.1E-06  2.1E-04
etot   10  N  Y  2  U   -2443.78538620259  8.9E-06  3.4E-06  7.4E-05
etot   11  N  N  2  U   -2443.78538952712  3.3E-06  0.0E+00  0.0E+00
 
  Computing the dispersion energy correction and its gradients...
  
  
 Energy components, in hartrees:
   (A)  Nuclear repulsion............    7506.72916536115
   (E)  Total one-electron terms.....  -18344.97842217132
   (F)    Electron-nuclear...........  -20698.90348328385
   (H)    Kinetic....................    2353.92506111254
   (I)  Total two-electron terms.....    8394.46386728305
   (J)    Coulomb....................    8703.69378035904
   (K)    Exchange+Correlation.......    -309.22991307600
   (L)  Electronic energy............   -9950.51455488827  (E+I)
   (N0) D3 correction................      -0.22889083201
   (N)  Total energy.................   -2444.01428035913  (A+L+N0)
   (O)  Gas phase energy.............   -2444.01428035913
  
 SCFE: SCF energy: DFT(b3pw91-d3)     -2444.01428035913 hartrees   iterations:  11
  
 
 HOMO energy:    -0.14106
 LUMO energy:    -0.02163
 
  Orbital energies (hartrees): 
   -77.04351   -77.04295   -10.18201   -10.18035   -10.17712   -10.17586
   -10.17552   -10.17530   -10.17453   -10.17380   -10.17276   -10.17235
   -10.17145   -10.17127   -10.17121   -10.17012   -10.16862   -10.16847
   -10.16759   -10.16714   -10.16706   -10.16596   -10.16456   -10.16243
   -10.16046   -10.15961   -10.15730   -10.15580   -10.15561   -10.15530
   -10.15505   -10.14984   -10.14930   -10.14930   -10.14831   -10.14696
   -10.14442   -10.14402   -10.14345   -10.14038   -10.13240   -10.13084
   -10.12646   -10.12319    -6.54474    -6.54416    -4.70311    -4.70252
    -4.70222    -4.70166    -4.69883    -4.69825    -3.24519    -1.98225
    -1.96269    -1.95987    -0.88160    -0.87720    -0.86036    -0.85662
    -0.82566    -0.82207    -0.80736    -0.80435    -0.78830    -0.78722
    -0.76798    -0.76273    -0.74999    -0.74827    -0.73664    -0.73453
    -0.69988    -0.69458    -0.69392    -0.68991    -0.68455    -0.68319
    -0.68076    -0.67821    -0.67014    -0.66482    -0.64463    -0.63754
    -0.61685    -0.61278    -0.59903    -0.59391    -0.59135    -0.58686
    -0.57429    -0.56938    -0.53808    -0.53679    -0.52972    -0.52341
    -0.51336    -0.51003    -0.50212    -0.49010    -0.48141    -0.47796
    -0.47634    -0.46505    -0.46482    -0.46092    -0.45827    -0.45408
    -0.45288    -0.45116    -0.44724    -0.44576    -0.44262    -0.43928
    -0.43521    -0.43140    -0.42756    -0.42424    -0.42188    -0.41601
    -0.41319    -0.41089    -0.40694    -0.40515    -0.40141    -0.40099
    -0.40020    -0.39440    -0.39250    -0.39125    -0.38996    -0.38829
    -0.38424    -0.38110    -0.37795    -0.37446    -0.37233    -0.36996
    -0.36828    -0.36716    -0.36417    -0.36141    -0.35722    -0.35539
    -0.35301    -0.35064    -0.34792    -0.34682    -0.33872    -0.33543
    -0.33163    -0.32802    -0.32776    -0.32215    -0.32142    -0.31788
    -0.31282    -0.31153    -0.30611    -0.29442    -0.29246    -0.28840
    -0.28540    -0.28414    -0.27757    -0.24786    -0.24736    -0.24619
    -0.24454    -0.23978    -0.21110    -0.20917    -0.20188    -0.19553
    -0.19401    -0.18987    -0.17486    -0.17471    -0.14106    -0.02163
    -0.02028    -0.01129    -0.00379     0.00033     0.00276     0.01524
     0.02142     0.03523     0.03839
 
  end of program scf
   
 Time(scf)  user:     921.850  user+sys:     921.850  wallclock:      83.046
  
  start of program der1a
  
  end of program der1a
   
 Time(der1a)  user:      23.239  user+sys:      23.239  wallclock:       2.188
  
  start of program rwr
  
  end of program rwr
   
 Time(rwr)  user:      51.318  user+sys:      51.318  wallclock:      23.419
  
  start of program der1b
  
   
  forces (hartrees/bohr) : total     
   
 atom  label           x              y              z
 ---- --------   -------------  -------------  -------------
    1 P1         -9.568306E-03   1.128059E-02  -1.092167E-02
    2 Pd2         8.759504E-03   6.010011E-03   7.494612E-04
    3 C3          1.069213E-02  -1.225347E-02  -6.271434E-03
    4 C4         -4.411076E-03  -1.367331E-02   1.497642E-02
    5 C5          1.184138E-03   8.153886E-04  -1.615816E-03
    6 C6         -1.525263E-02  -3.100877E-03  -2.461340E-03
    7 C10        -1.945806E-02   9.696962E-03   6.666976E-03
    8 C11         5.849247E-03   1.719607E-02  -1.180154E-02
    9 C15        -7.197460E-05   1.886601E-02  -5.680968E-03
   10 C16         3.120475E-04  -4.601070E-04   1.914640E-04
   11 C17         6.365035E-05   1.148494E-04  -1.043778E-04
   12 C18         7.981861E-04  -1.453077E-03   4.074799E-06
   13 C19        -8.395590E-04   6.914226E-04  -5.960060E-04
   14 C20        -1.921912E-03  -4.205238E-04   2.798098E-03
   15 C21        -2.116247E-02  -6.790841E-03   9.279282E-03
   16 C22         3.805579E-03   2.623533E-02  -2.786274E-02
   17 C23        -1.256960E-02   5.513539E-02  -3.133558E-02
   18 C24        -5.640966E-02   6.217198E-02  -3.846112E-02
   19 C25        -8.412001E-03   1.921293E-02  -5.285360E-02
   20 C26         3.307747E-02   1.738318E-02   4.067862E-03
   21 C27        -3.345622E-02   6.354681E-02  -6.264694E-02
   22 H32         1.467902E-02  -6.663679E-03  -7.927196E-03
   23 H33         5.256753E-03  -1.061877E-04   1.220173E-04
   24 H40         3.919686E-03  -1.200827E-03  -1.893014E-03
   25 H41         4.594056E-03  -5.708446E-04  -4.186672E-03
   26 C28        -4.235836E-02   2.110327E-02  -3.675442E-02
   27 H43        -1.670223E-03  -4.610859E-03   8.360849E-05
   28 H44        -4.517879E-03  -4.096372E-03   1.103402E-03
   29 H51        -1.025793E-03  -5.273239E-03  -5.991521E-04
   30 H52        -6.927196E-03  -5.614360E-03  -3.629061E-03
   31 H53         3.209283E-04  -3.626807E-04  -1.535696E-04
   32 H54         1.320294E-04   9.578463E-05   4.716297E-04
   33 H55         2.312436E-04  -3.278380E-04   1.697726E-04
   34 H56         4.243265E-04  -4.111713E-04   2.182526E-04
   35 H57        -3.733229E-03   8.827386E-03  -4.069510E-03
   36 H58        -1.268670E-02   1.071100E-02  -1.901847E-02
   37 H59         3.279445E-03  -5.887087E-04   8.512553E-04
   38 P66         9.101559E-03  -1.162545E-02   9.607360E-03
   39 C67        -1.484455E-02   8.728113E-04  -1.495748E-02
   40 C71         1.759716E-02  -6.593774E-03   6.464572E-03
   41 C72         1.764251E-02   9.467643E-04   1.190623E-02
   42 H76        -5.804402E-03   6.974656E-04   5.051135E-04
   43 H77        -5.589142E-03  -2.749017E-03  -7.497650E-04
   44 C44         4.217896E-03  -4.734431E-02   3.198169E-02
   45 H82        -8.285081E-03  -6.004747E-03   4.163958E-03
   46 H83        -6.035308E-03   1.445625E-03  -4.936918E-04
   47 C84        -9.123586E-03   1.284420E-02   5.211298E-03
   48 C88        -4.550048E-03  -1.957011E-02  -3.487978E-03
   49 C89         2.058001E-03  -2.026421E-02  -7.181192E-03
   50 H93         4.430488E-03   5.176190E-03   1.637311E-03
   51 H94         1.100310E-03   4.857423E-03   4.153702E-03
   52 C52         4.536029E-02  -4.662718E-02   6.058676E-02
   53 H99         1.645025E-03   4.420082E-03   4.816359E-04
   54 H100        5.781212E-04   4.636161E-03   2.051009E-03
   55 C101        2.586106E-04  -6.873037E-04   4.520774E-04
   56 C102       -8.349881E-04   1.143017E-03  -8.368016E-04
   57 C103        1.161685E-04   9.243386E-04  -1.683978E-03
   58 C104        8.997841E-04  -5.031986E-04   4.556924E-04
   59 C105       -4.211944E-04   3.700019E-04  -2.733718E-04
   60 C106        8.105280E-04  -1.752871E-04   2.488942E-03
   61 H107       -3.934239E-05  -3.962613E-04   4.200263E-05
   62 H108        1.093245E-04   2.946413E-05  -5.015783E-04
   63 H109        6.551433E-05   4.876930E-04  -2.217746E-04
   64 H110       -1.621536E-04   4.119234E-04  -1.534896E-04
   65 C111       -8.720482E-03  -1.612379E-02  -7.906305E-03
   66 C112        4.192159E-02  -8.712736E-02   4.187336E-02
   67 C113       -4.016826E-04  -2.078707E-02   4.330629E-02
   68 C114        1.596311E-02   2.158754E-03  -2.208813E-02
   69 C115        2.823764E-02  -1.621434E-02   7.100850E-02
   70 C116        5.829943E-02  -1.750577E-02   2.241980E-02
   71 H117        1.926511E-04   3.182995E-03  -8.027402E-04
   72 H118        4.319797E-03  -3.947492E-03   2.335088E-03
   73 H119        4.693393E-03  -1.382406E-02   1.700354E-02
   74 H74        -3.074076E-03  -8.587274E-04  -5.801685E-03
   75 C75        -2.476140E-02  -2.262057E-04   1.784338E-02
   76 C76         2.130689E-02   8.538490E-03  -3.511331E-03
   77 H79         8.219345E-04   3.484841E-03   3.374734E-03
   78 H80        -2.583190E-03  -3.069286E-03   1.033185E-03
   79 H81        -1.886572E-03  -3.885697E-03  -1.153764E-03
   80 H84         3.516088E-03  -5.160983E-04  -2.253624E-03
   81 H85         4.418919E-03   7.504357E-04  -1.351252E-03
   82 H86        -4.194407E-03  -5.279870E-04   1.295232E-03
   83 H87        -3.564962E-03  -1.650812E-03  -1.050073E-03
   84 H88         4.962839E-04   3.494955E-03   2.243693E-03
   85 H89         2.504727E-03   3.411930E-03   1.549766E-03
   86 H90         1.162334E-02  -4.532085E-03   7.691344E-03
   87 H91         2.329430E-02  -3.399521E-02   3.523247E-02
   88 H92         7.436309E-03   1.394989E-02   6.178598E-03
   89 H95        -6.943127E-03   6.547159E-04   5.593442E-04
   90 H96        -1.655981E-03  -4.041824E-02   1.050349E-03
   91 H97         3.072308E-03   2.865834E-03  -1.974975E-03
   92 H98        -3.306162E-03  -2.271100E-03  -3.386244E-03
   93 H101       -4.104328E-02   1.359121E-02  -2.937737E-03
   94 H102        3.869896E-03   2.687027E-03   9.587834E-04
   95 H103        1.559087E-03   1.136893E-02  -6.024995E-03
   96 H104       -2.873172E-02   3.261406E-02  -4.036239E-02
   97 H105        1.202893E-02   4.942352E-03  -7.879091E-03
   98 H106       -2.404684E-03  -3.453356E-03   1.267741E-03
   99 H111       -3.355448E-03  -2.602056E-03   3.097321E-03
  100 H112       -1.488188E-03  -3.996343E-03   3.457794E-03
  101 H113        3.947866E-03   1.126702E-03  -6.721133E-04
  102 H114       -6.830612E-03   1.084275E-02   5.705918E-03
  103 H115        1.628520E-03   8.092796E-04  -5.385867E-03
 -------------   -------------  -------------  -------------
     total        1.435110E-03   7.797650E-04  -1.498468E-03
   
  end of program der1b
   
 Time(der1b)  user:     328.241  user+sys:     328.241  wallclock:      27.274
  
  start of program geopt
  
 ----------------------------------------------------------------------------
  Geometry optimization step  1
  Total energy:     -2444.01428035913 hartrees
 ----------------------------------------------------------------------------
  
  
  Level shifts adjusted to satisfy step-size constraints
   Step size:    0.3000111
   Cos(theta):   0.3928264
   Final level shift:  -1.1816156E+00
  
  gradient maximum:        2.6842E+00 .  (  2.2500E-03 )
  gradient rms:            2.9771E-01 .  (  1.5000E-03 )
  displacement maximum:    1.0896E-01 .  (  9.0000E-03 )
  displacement rms:        1.6414E-02 .  (  6.0000E-03 )
  
  predicted energy change:  -3.7378E-01
  step size:     0.29999
  trust radius:  0.30000
  
  molecular structure not yet converged...
  
  center of mass moved by:
     x:     1.6127E-02     y:     5.7495E-03     z:    -1.9639E-04
  
  new geometry: 
                                   angstroms
  atom               x                 y                 z
  P1            0.3066803152      0.1051837491     -0.6533585332 
  Pd2           0.4508586832      0.3356239788      1.6398176119 
  C3            1.9135971924      0.0097096229     -1.6583079473 
  C4           -0.6758180650     -1.4900559961     -0.9345210253 
  C5           -0.7194118479      1.2330942297     -1.7139364115 
  C6            2.8863409731      1.0921231089     -1.1673204035 
  C10           1.8614484203      0.0669422030     -3.1907940508 
  C11          -2.1506685384     -1.2023214465     -0.6066982647 
  C15          -0.5716249972     -2.2842428039     -2.2435600924 
  C16          -0.9406880656      0.8877315651     -3.0608858115 
  C17          -1.7008827570      1.6666826302     -3.9251484180 
  C18          -2.2782241866      2.8439083226     -3.4594574327 
  C19          -2.0956524088      3.1981000626     -2.1304256241 
  C20          -1.3343370833      2.4154960771     -1.2467765473 
  C21          -1.3378467696      2.9043847212      0.1595146550 
  C22          -2.4968046022      2.6999644582      0.9137013843 
  C23          -2.6729931822      3.3188198169      2.1547308705 
  C24          -1.6738552037      4.1553230372      2.6341313844 
  C25          -0.5106083171      4.3810932060      1.9056960286 
  C26          -0.3438933236      3.7554479246      0.6755355471 
  C27           2.5779286515     -1.3308389613     -1.2934104745 
  H32           2.4771931869      2.0743568204     -1.4263292231 
  H33           2.9423778002      1.0601752662     -0.0717122011 
  H40           1.2095075432     -0.7122886210     -3.5993191196 
  H41           1.4418479214      1.0305368084     -3.5097899754 
  C28          -0.1901939275     -2.4301801952      0.1931395137 
  H43          -2.2205891992     -0.6251954378      0.3239319379 
  H44          -2.5899762131     -0.5756292092     -1.3956842525 
  H51          -0.9747892935     -1.7085928316     -3.0862400577 
  H52           0.4729287328     -2.5141351035     -2.4809290876 
  H53          -0.5120707039     -0.0266407394     -3.4517488243 
  H54          -1.8408728797      1.3508960739     -4.9570768573 
  H55          -2.8723621387      3.4720449557     -4.1197054403 
  H56          -2.5598784534      4.1016123271     -1.7412680013 
  H57          -3.5759256407      3.1684545392      2.7360658962 
  H58          -1.8203032539      4.6613391005      3.5811221894 
  H59           0.2575370201      5.0338603482      2.3042446715 
  P66           0.1372986855      0.1920383125      3.9246391446 
  C67          -1.7107663742     -0.1381917541      4.1893563740 
  C71          -2.4238789530      0.2533361648      5.4905785421 
  C72          -1.9905368457     -1.6124388802      3.8584539699 
  H76          -2.0397267495     -0.3310992484      6.3364188935 
  H77          -1.5638426003     -2.2539324019      4.6425222873 
  C44          -2.3776836564      0.6643054961      3.0550044712 
  H82          -2.2570198543      1.3090786850      5.7296167676 
  H83          -1.4871391989     -1.8853307730      2.9229461522 
  C84           0.6484530179      1.7198185046      4.9270123573 
  C88           1.9822740399      2.2226066776      4.3463973296 
  C89           0.7573332348      1.6284398221      6.4547898872 
  H93           2.7561318502      1.4654440838      4.5334455709 
  H94           1.5162423930      0.8827611392      6.7269237053 
  C52          -0.3978510392      2.8288548232      4.6683023770 
  H99           1.8941913726      2.3091585283      3.2557037811 
  H100         -0.1861841190      1.2968768907      6.9026045545 
  C101          0.8581506931     -1.1281149856      5.0104207859 
  C102          1.8913188401     -3.0847422848      6.7771689294 
  C103          1.7847407030     -2.0808213554      4.5524075570 
  C104          0.4418990496     -1.2137998557      6.3524292817 
  C105          0.9424731584     -2.1698899132      7.2286370502 
  C106          2.2939882871     -3.0347842942      5.4492828997 
  H107         -0.2845191571     -0.5056444010      6.7302420852 
  H108          0.5924317821     -2.1966194803      8.2586483388 
  H109          3.0133604582     -3.7590517373      5.0731969676 
  H110          2.3026498347     -3.8369032347      7.4469437524 
  C111          2.2519001270     -2.2365185822      3.1513556208 
  C112          3.4166190559     -2.8876730761      0.7059799754 
  C113          1.7774738691     -3.3234685270      2.4092404442 
  C114          3.3088977451     -1.4675619016      2.6383620646 
  C115          3.8960727153     -1.7945982826      1.4213415503 
  C116          2.3562906828     -3.6482642604      1.1764501925 
  H117          4.7212229031     -1.2119312306      1.0275856295 
  H118          1.9937688693     -4.4894278784      0.5958931054 
  H119          3.8885838885     -3.1608614761     -0.2307667258 
  H74          -3.2751055875      2.0509143208      0.5357776725 
  C75           0.9371002343      4.0260056146     -0.1156337997 
  C76           0.6279709897     -4.1834667928      2.9569219604 
  H79           3.6761048069     -0.6157731562      3.1947257689 
  H80          -2.7107847729     -2.1346264473     -0.5161698292 
  H81          -1.1281242477     -3.2183816007     -2.1491881112 
  H84           2.8668783904     -0.0435713201     -3.6007316539 
  H85           3.8765291921      0.9577941141     -1.6066583012 
  H86          -3.4960685088      0.0766518469      5.3889111626 
  H87          -3.0640207902     -1.7880942176      3.7702183072 
  H88           1.0336654163      2.6004766764      6.8670099838 
  H89           2.2659815092      3.1800043339      4.7870630982 
  H90          -0.1120645099      3.7122024704      5.2388803765 
  H91          -0.4488124035      3.1110489499      3.6169087694 
  H92          -1.3787586745      2.4975540734      4.9982329608 
  H95          -3.4611469295      0.5351193412      3.1063649057 
  H96          -2.1616101348      1.7315801407      3.1272890953 
  H97          -2.0119868422      0.3099699349      2.0903691484 
  H98          -0.7265727901     -3.3778127453      0.1257102620 
  H101          0.8769164224     -2.6546184810      0.1237338500 
[...]
    H43      Y     0.00373  -0.00026   0.00000
    H43      Z     0.00886  -0.00109   0.00002
    H44      X     0.00037  -0.00052   0.00002
    H44      Y    -0.00142   0.00112  -0.00004
    H44      Z     0.00137  -0.00065   0.00004
    H51      X     0.00016  -0.00741   0.00003
    H51      Y    -0.00029   0.02777  -0.00009
    H51      Z     0.00038  -0.02965   0.00009
    H52      X    -0.00038  -0.01169   0.00000
    H52      Y     0.00015   0.00297  -0.00000
    H52      Z     0.00010   0.00152  -0.00001
    H53      X    -0.00187   0.43355  -0.00075
    H53      Y     0.00321  -0.76863   0.00134
    H53      Z     0.00147  -0.34857   0.00060
    H54      X     0.00366   0.01136  -0.00003
    H54      Y    -0.00331  -0.00809   0.00003
    H54      Z    -0.02380  -0.08556   0.00025
    H55      X    -0.01645  -0.00305   0.00005
    H55      Y     0.03772   0.00671  -0.00011
    H55      Z    -0.03243  -0.00457   0.00009
    H56      X    -0.01601  -0.00448   0.00006
    H56      Y     0.02586   0.00726  -0.00009
    H56      Z     0.01251   0.00348  -0.00004
    H57      X    -0.54465  -0.00047   0.00000
    H57      Y    -0.18673  -0.00015   0.00001
    H57      Z     0.12355   0.00014  -0.00001
    H58      X    -0.16277  -0.00014   0.00001
    H58      Y     0.13313   0.00012  -0.00000
    H58      Z     0.27246   0.00023  -0.00003
    H59      X     0.05667   0.00014  -0.00007
    H59      Y     0.08256   0.00026  -0.00009
    H59      Z     0.07061   0.00025  -0.00009
    P66      X     0.00000  -0.00000  -0.00003
    P66      Y     0.00000   0.00000   0.00002
    P66      Z    -0.00001  -0.00001   0.00011
    C67      X    -0.00002   0.00000   0.00012
    C67      Y    -0.00003  -0.00000  -0.00022
    C67      Z     0.00001   0.00000   0.00007
    C71      X     0.00006   0.00000   0.00055
    C71      Y    -0.00007   0.00000  -0.00158
    C71      Z     0.00004  -0.00000   0.00249
    C72      X     0.00007   0.00000   0.00012
    C72      Y    -0.00001   0.00000  -0.00010
    C72      Z     0.00001  -0.00001   0.00023
    H76      X    -0.00035  -0.00001  -0.02781
    H76      Y     0.00042  -0.00000   0.02452
    H76      Z    -0.00069   0.00002  -0.03804
    H77      X    -0.00017   0.00003  -0.00047
    H77      Y     0.00014  -0.00004   0.00206
    H77      Z    -0.00024   0.00005  -0.00080
    C44      X     0.00043   0.00001  -0.00005
    C44      Y    -0.00015   0.00001   0.00018
    C44      Z    -0.00022  -0.00000   0.00024
    H82      X     0.00025   0.00000   0.00299
    H82      Y     0.00054  -0.00001   0.00607
    H82      Z     0.00002  -0.00001   0.00089
    H83      X     0.00006   0.00001  -0.00001
    H83      Y     0.00003   0.00002  -0.00016
    H83      Z     0.00004   0.00001  -0.00128
    C84      X    -0.00001  -0.00000   0.00002
    C84      Y     0.00001  -0.00000  -0.00002
    C84      Z     0.00001   0.00000   0.00010
    C88      X    -0.00001  -0.00001   0.00004
    C88      Y     0.00002  -0.00000   0.00003
    C88      Z    -0.00003  -0.00001   0.00009
    C89      X     0.00003  -0.00000  -0.00003
    C89      Y     0.00001   0.00000  -0.00068
    C89      Z    -0.00002  -0.00000   0.00050
    H93      X     0.00013   0.00003  -0.00014
    H93      Y    -0.00022  -0.00005   0.00034
    H93      Z     0.00011   0.00002  -0.00005
    H94      X     0.00004   0.00002  -0.00704
    H94      Y    -0.00004  -0.00003   0.00688
    H94      Z     0.00005   0.00002  -0.00360
    C52      X     0.00013  -0.00000   0.00003
    C52      Y     0.00002  -0.00000   0.00002
    C52      Z    -0.00005   0.00000   0.00006
    H99      X     0.00001  -0.00002  -0.00004
    H99      Y     0.00005  -0.00001  -0.00004
    H99      Z     0.00023   0.00007  -0.00110
    H100     X    -0.00035  -0.00001   0.00779
    H100     Y     0.00003   0.00000   0.00091
    H100     Z     0.00021   0.00001  -0.00357
    C101     X    -0.00001   0.00000   0.00033
    C101     Y     0.00000   0.00000   0.00024
    C101     Z     0.00001  -0.00000  -0.00236
    C102     X    -0.00005  -0.00000   0.00080
    C102     Y     0.00009   0.00000  -0.00098
    C102     Z    -0.00008  -0.00001   0.00004
    C103     X     0.00000   0.00000   0.00047
    C103     Y    -0.00000  -0.00000  -0.00048
    C103     Z    -0.00000   0.00000  -0.00024
    C104     X    -0.00000  -0.00009  -0.05095
    C104     Y     0.00000   0.00010   0.05673
    C104     Z     0.00001   0.00005   0.02846
    C105     X     0.00003   0.00000  -0.00087
    C105     Y    -0.00001  -0.00000  -0.00150
    C105     Z    -0.00010   0.00001   0.00913
    C106     X    -0.00004  -0.00000   0.00063
    C106     Y     0.00005   0.00000  -0.00064
    C106     Z     0.00003   0.00000  -0.00044
    H107     X     0.00012   0.00106   0.59784
    H107     Y    -0.00010  -0.00117  -0.66035
    H107     Z    -0.00005  -0.00059  -0.32946
    H108     X    -0.00029   0.00001   0.01909
    H108     Y     0.00005   0.00000  -0.00120
    H108     Z     0.00112  -0.00005  -0.08059
    H109     X     0.00049   0.00005  -0.00578
    H109     Y    -0.00052  -0.00005   0.00608
    H109     Z    -0.00028  -0.00003   0.00322
    H110     X     0.00057   0.00003  -0.00339
    H110     Y    -0.00095  -0.00005   0.00534
    H110     Z     0.00088   0.00005  -0.00382
    C111     X    -0.00000   0.00000  -0.00001
    C111     Y     0.00000   0.00000   0.00001
    C111     Z    -0.00000  -0.00000  -0.00005
    C112     X     0.00000  -0.00000   0.00001
    C112     Y    -0.00000   0.00000  -0.00001
    C112     Z    -0.00000   0.00001  -0.00002
    C113     X     0.00000   0.00000  -0.00002
    C113     Y     0.00000  -0.00000   0.00000
    C113     Z    -0.00000  -0.00000   0.00002
    C114     X     0.00000   0.00000   0.00002
    C114     Y     0.00000  -0.00000   0.00006
    C114     Z     0.00001  -0.00000   0.00005
    C115     X     0.00001  -0.00001   0.00003
    C115     Y     0.00000  -0.00000   0.00001
    C115     Z    -0.00000   0.00000  -0.00001
    C116     X     0.00000   0.00000  -0.00000
    C116     Y     0.00001   0.00001  -0.00002
    C116     Z     0.00001   0.00000  -0.00001
    H117     X    -0.00014   0.00006  -0.00034
    H117     Y    -0.00004   0.00003  -0.00010
    H117     Z     0.00003  -0.00002   0.00012
    H118     X    -0.00004  -0.00005   0.00011
    H118     Y    -0.00005  -0.00007   0.00021
    H118     Z    -0.00005  -0.00006   0.00019
    H119     X    -0.00003   0.00005  -0.00012
    H119     Y     0.00003  -0.00004   0.00010
    H119     Z     0.00004  -0.00008   0.00020
    H74      X    -0.28984  -0.00027   0.00001
    H74      Y    -0.42184  -0.00042   0.00003
    H74      Z    -0.39627  -0.00044   0.00002
    C75      X    -0.00012   0.00000   0.00000
    C75      Y    -0.00019  -0.00002   0.00000
    C75      Z     0.00003  -0.00001   0.00000
    C76      X     0.00000  -0.00000   0.00001
    C76      Y     0.00000   0.00001  -0.00003
    C76      Z    -0.00000   0.00000  -0.00001
    H79      X    -0.00004  -0.00001  -0.00026
    H79      Y    -0.00004   0.00000  -0.00041
    H79      Z    -0.00005  -0.00000  -0.00037
    H80      X     0.00104  -0.00020   0.00006
    H80      Y     0.00179  -0.00037   0.00008
    H80      Z     0.00024   0.00004   0.00002
    H81      X    -0.00026   0.00162   0.00004
    H81      Y    -0.00045   0.00291   0.00006
    H81      Z    -0.00007   0.00000   0.00002
    H84      X     0.00041  -0.00930  -0.00004
    H84      Y    -0.00006   0.00249   0.00000
    H84      Z    -0.00001  -0.00052   0.00001
    H85      X     0.00038   0.00040  -0.00012
    H85      Y    -0.00003  -0.00008  -0.00000
    H85      Z    -0.00010  -0.00007   0.00004
    H86      X    -0.00077  -0.00005  -0.00216
    H86      Y    -0.00005   0.00001  -0.00076
    H86      Z     0.00017   0.00001   0.00153
    H87      X    -0.00068  -0.00007  -0.00043
    H87      Y    -0.00005  -0.00000   0.00006
    H87      Z     0.00017   0.00002   0.00001
    H88      X    -0.00007   0.00003   0.00186
    H88      Y    -0.00010   0.00005   0.00464
    H88      Z    -0.00003   0.00002  -0.00029
    H89      X    -0.00010   0.00005  -0.00030
    H89      Y    -0.00011   0.00008  -0.00052
    H89      Z    -0.00005   0.00003  -0.00012
    H90      X    -0.00037   0.00004  -0.00031
    H90      Y    -0.00052   0.00005  -0.00060
    H90      Z    -0.00006   0.00001  -0.00000
    H91      X    -0.00011  -0.00001  -0.00031
    H91      Y     0.00005  -0.00001  -0.00002
    H91      Z    -0.00023  -0.00002  -0.00134
    H92      X    -0.00123   0.00002  -0.00004
    H92      Y     0.00027  -0.00000   0.00004
    H92      Z     0.00069  -0.00002   0.00010
    H95      X    -0.00532  -0.00010   0.00033
    H95      Y    -0.00047   0.00000   0.00001
    H95      Z     0.00149   0.00004  -0.00019
    H96      X     0.00033  -0.00003  -0.00017
    H96      Y     0.00145  -0.00009  -0.00013
    H96      Z    -0.00116  -0.00002  -0.00009
    H97      X     0.00000   0.00004   0.00063
    H97      Y     0.00129   0.00001  -0.00125
    H97      Z     0.00186  -0.00002  -0.00194
    H98      X    -0.00031  -0.00033   0.00008
    H98      Y    -0.00050  -0.00055   0.00011
    H98      Z    -0.00010  -0.00004   0.00004
    H101     X    -0.00060   0.00032   0.00007
    H101     Y     0.00022  -0.00002  -0.00003
    H101     Z     0.00005  -0.00003  -0.00002
    H102     X     0.00005   0.00036  -0.00002
    H102     Y     0.00010  -0.00080  -0.00005
    H102     Z     0.00024  -0.00220  -0.00006
    H103     X     0.00017   0.00065  -0.00005
    H103     Y    -0.00001  -0.00004   0.00000
    H103     Z    -0.00001  -0.00002   0.00001
    H104     X     0.00002   0.00037   0.00002
    H104     Y     0.00003   0.00014  -0.00000
    H104     Z    -0.00017  -0.00173  -0.00004
    H105     X    -0.00010  -0.00006   0.00000
    H105     Y    -0.00033  -0.00016   0.00001
    H105     Z    -0.00016  -0.00010   0.00001
    H106     X    -0.00001  -0.00002   0.00008
    H106     Y    -0.00002  -0.00003   0.00015
    H106     Z    -0.00004  -0.00005   0.00019
    H111     X     0.00001   0.00001   0.00004
    H111     Y    -0.00006  -0.00002   0.00006
    H111     Z     0.00007   0.00002  -0.00011
    H112     X    -0.00001   0.00003  -0.00024
    H112     Y     0.00006  -0.00001   0.00022
    H112     Z    -0.00001  -0.00001   0.00004
    H113     X     0.00135   0.00007  -0.00002
    H113     Y     0.00212   0.00020  -0.00008
    H113     Z     0.00147   0.00016  -0.00006
    H114     X     0.00068  -0.00010  -0.00001
    H114     Y    -0.00008   0.00010   0.00005
    H114     Z    -0.00002  -0.00006   0.00000
    H115     X     0.00061   0.00004  -0.00000
    H115     Y     0.00073  -0.00003  -0.00000
    H115     Z    -0.00208   0.00002   0.00001
  
  Number of imaginary frequencies:   0
   
  Writing vibrational animation data to L2_PL154.vib
  Writing IR vibrational spectrum data to L2_PL154_vib.spm
  rotational symmetry number:  1

  rotational temperatures (K):      0.004673      0.002964      0.002271
   
  The Quasi-Harmonic approximation will be applied to compute
  vibrational constributions to thermodynamic properties.
  Frequencies will be adjusted to a minimum value of  100.00 cm^-1.

  vibrational temperatures:
       mode:      1        2        3        4        5        6
  temp. (K):   143.88   143.88   143.88   143.88   143.88   143.88
   
       mode:      7        8        9       10       11       12
  temp. (K):   143.88   143.88   143.88   143.88   143.88   143.88
   
       mode:     13       14       15       16       17       18
  temp. (K):   143.88   143.88   143.88   143.88   152.52   163.59
   
       mode:     19       20       21       22       23       24
  temp. (K):   168.60   172.00   182.00   192.97   213.86   217.27
   
       mode:     25       26       27       28       29       30
  temp. (K):   227.36   228.83   248.77   261.53   285.62   296.43
   
       mode:     31       32       33       34       35       36
  temp. (K):   300.64   308.93   312.87   344.46   346.04   354.10
   
       mode:     37       38       39       40       41       42
  temp. (K):   358.79   365.81   366.69   373.06   381.33   387.70
   
       mode:     43       44       45       46       47       48
  temp. (K):   391.82   395.31   397.15   422.96   427.20   436.16
   
       mode:     49       50       51       52       53       54
  temp. (K):   440.23   448.91   462.60   467.62   473.44   480.99
   
       mode:     55       56       57       58       59       60
  temp. (K):   482.02   483.54   500.72   508.25   522.81   528.97
   
       mode:     61       62       63       64       65       66
  temp. (K):   546.51   559.23   561.88   583.07   584.04   586.28
   
       mode:     67       68       69       70       71       72
  temp. (K):   592.40   594.78   601.40   604.33   607.68   617.66
   
       mode:     73       74       75       76       77       78
  temp. (K):   630.99   673.30   679.80   691.25   692.73   720.93
   
       mode:     79       80       81       82       83       84
  temp. (K):   739.20   746.42   759.59   774.46   780.19   826.35
   
       mode:     85       86       87       88       89       90
  temp. (K):   830.06   838.45   842.12   842.50   852.07   868.87
   
       mode:     91       92       93       94       95       96
  temp. (K):   874.45   912.11   912.98   984.96   987.40  1069.15
   
       mode:     97       98       99      100      101      102
  temp. (K):  1070.90  1093.14  1093.31  1108.05  1108.91  1130.90
   
       mode:    103      104      105      106      107      108
  temp. (K):  1132.79  1141.24  1150.47  1185.43  1187.89  1203.83
   
       mode:    109      110      111      112      113      114
  temp. (K):  1204.10  1208.42  1209.03  1281.77  1283.73  1300.10
   
       mode:    115      116      117      118      119      120
  temp. (K):  1310.81  1377.70  1379.55  1380.84  1381.97  1382.97
   
       mode:    121      122      123      124      125      126
  temp. (K):  1388.73  1390.08  1393.36  1394.13  1400.24  1412.98
   
       mode:    127      128      129      130      131      132
  temp. (K):  1417.11  1419.70  1422.20  1424.58  1431.34  1442.40
   
       mode:    133      134      135      136      137      138
  temp. (K):  1445.78  1461.44  1469.26  1470.15  1470.31  1474.73
   
       mode:    139      140      141      142      143      144
  temp. (K):  1475.55  1504.48  1506.25  1519.66  1521.27  1522.55
   
       mode:    145      146      147      148      149      150
  temp. (K):  1526.74  1528.13  1529.37  1536.59  1537.28  1539.50
   
       mode:    151      152      153      154      155      156
  temp. (K):  1546.27  1558.40  1559.56  1599.22  1602.57  1662.49
   
       mode:    157      158      159      160      161      162
  temp. (K):  1662.54  1675.09  1678.80  1732.72  1735.50  1739.91
   
       mode:    163      164      165      166      167      168
  temp. (K):  1740.33  1743.74  1747.30  1752.23  1755.09  1773.25
   
       mode:    169      170      171      172      173      174
  temp. (K):  1774.10  1777.67  1778.38  1782.02  1787.79  1795.72
   
       mode:    175      176      177      178      179      180
  temp. (K):  1798.57  1802.29  1804.49  1845.54  1848.57  1871.59
   
       mode:    181      182      183      184      185      186
  temp. (K):  1872.06  1896.88  1897.71  1946.56  1954.36  1959.20
   
       mode:    187      188      189      190      191      192
  temp. (K):  1960.95  2034.46  2036.20  2042.50  2044.43  2045.79
   
       mode:    193      194      195      196      197      198
  temp. (K):  2046.51  2048.12  2051.40  2064.56  2067.53  2084.32
   
       mode:    199      200      201      202      203      204
  temp. (K):  2086.39  2095.82  2099.44  2111.55  2111.68  2136.66
   
       mode:    205      206      207      208      209      210
  temp. (K):  2137.31  2148.89  2151.81  2157.02  2159.30  2160.19
   
       mode:    211      212      213      214      215      216
  temp. (K):  2164.30  2165.66  2170.10  2172.39  2173.04  2173.52
   
       mode:    217      218      219      220      221      222
  temp. (K):  2178.20  2179.65  2181.90  2185.28  2186.44  2190.44
   
       mode:    223      224      225      226      227      228
  temp. (K):  2192.76  2195.13  2199.93  2202.20  2203.45  2210.16
   
       mode:    229      230      231      232      233      234
  temp. (K):  2211.01  2217.02  2218.76  2220.93  2222.98  2223.65
   
       mode:    235      236      237      238      239      240
  temp. (K):  2227.38  2230.64  2233.31  2342.28  2346.08  2353.76
   
       mode:    241      242      243      244      245      246
  temp. (K):  2354.21  2382.44  2386.61  2397.41  2401.36  4342.42
   
       mode:    247      248      249      250      251      252
  temp. (K):  4344.13  4357.71  4360.83  4366.23  4366.43  4368.98
   
       mode:    253      254      255      256      257      258
  temp. (K):  4371.29  4371.96  4372.30  4373.74  4377.02  4378.64
   
       mode:    259      260      261      262      263      264
  temp. (K):  4382.96  4441.87  4447.48  4465.75  4468.50  4470.26
   
       mode:    265      266      267      268      269      270
  temp. (K):  4471.60  4472.30  4476.75  4480.73  4480.84  4484.66
   
       mode:    271      272      273      274      275      276
  temp. (K):  4485.63  4485.89  4489.18  4499.15  4502.02  4509.36
   
       mode:    277      278      279      280      281      282
  temp. (K):  4509.88  4511.89  4518.96  4528.19  4536.93  4537.14
   
       mode:    283      284      285      286      287      288
  temp. (K):  4543.20  4543.63  4546.40  4546.84  4553.64  4567.48
   
       mode:    289      290      291      292      293      294
  temp. (K):  4571.78  4579.31  4580.21  4581.06  4586.10  4594.21
   
       mode:    295      296      297      298      299      300
  temp. (K):  4594.42  4595.55  4603.80  4608.81  4615.75  4617.66
   
       mode:    301      302      303
  temp. (K):  4621.09  4722.43  4730.20
   
   
  Thermodynamic properties calculated assuming an ideal gas

  In the table below, the units for temperature
  are kelvins, the units for U, H, and G are
  kcal/mol and the units for Cv and S are cal/(mol K)

  The zero point energy (ZPE):    566.738 kcal/mol
  is not included in U, H, or G in the table below
  
 
  =============================================================================
  Thermodynamic properties for P = 1.00E+00 atm, calculated at   1 temperatures


  T =   298.15 K, P = 1.00E+00 atm
   
                  U         Cv          S          H          G        ln(Q)
              =========  =========  =========  =========  =========  =========
  trans.          0.889      2.981     45.645      1.481    -12.128   20.46932
  rot.            0.889      2.981     38.266      0.889    -10.520   17.75624
  vib.           28.548    188.596    171.621     28.548    -22.621   38.17941
  elec.           0.000      0.000      0.000      0.000      0.000    0.00000
  ----------------------------------------------------------------------------
  total          30.325    194.558    255.532     30.918    -45.269   76.40498
   
   Total internal energy, Utot(SCFE + ZPE + U):   -2443.476067 hartrees
   Total enthalpy, Htot (Utot + nRT), with n=1:   -2443.475123 hartrees
    Total Gibbs free energy, Gtot (Htot - T*S):   -2443.596534 hartrees
   
  end of program freq
   
 Time(freq)  user:       1.007  user+sys:       1.007  wallclock:       0.636
  
  start of program post
  
  Writing input files for PBF
  end of program post
   
 Time(post)  user:       0.351  user+sys:       0.351  wallclock:       0.130

 Total cpu seconds     user:  201847.064   user+sys:  201847.064
  
 Total elapsed time:    23692 seconds

Job L2_PL154 completed on bp1-compute217 at Tue Dec  2 04:05:27 2025
