Job L_Ar_OtBu_N_Ar_trans_PL154 started on bp1-compute129.data.bp.acrc.priv at Mon Nov 24 20:38:53 2025
jobid: bp1-compute129-0-6924c253

  +--------------------------------------------------------------------+
  |  Jaguar version 12.5, release 138                                  |
  |                                                                    |
  |  Copyright Schrodinger, Inc.                                       |
  |  All Rights Reserved.                                              |
  |                                                                    |
  |  The following have contributed to Jaguar (listed alphabetically): |
  |  Ty Balduf, Mike Beachy, Chandler Bennett, Art Bochevarov,         |
  |  Dale Braden, Yixiang Cao, Alan Chien, Chris Cortis,               |
  |  Rich Friesner, Jim Furness, Bill Goddard, Hod Greeley,            |
  |  Tom Hughes, Leif Jacobson, Jean-Marc Langlois, Daniel Levine,     |
  |  Rob Murphy, Dean Philipp, Tom Pollard, Murco Ringnalda,           |
  |  Daniel Mainz, Pablo Videla, Mark Watson, Haoyu Yu.                |
  |                                                                    |
  |  Use of this program should be acknowledged in publications as:    |
  |                                                                    |
  |  Jaguar, version 12.5, Schrodinger, Inc., New York, NY, 2024.      |
  |                                                                    |
  |  A. D. Bochevarov, E. Harder, T. F. Hughes, J. R. Greenwood,       |
  |  D. A. Braden, D. M. Philipp, D. Rinaldo, M. D. Halls,             |
  |  J. Zhang, R. A. Friesner, "Jaguar: A High-Performance Quantum     |
  |  Chemistry Software Program with Strengths in Life and Materials   |
  |  Sciences", Int. J. Quantum Chem., 2013, 113(18), 2110-2142.       |
  +--------------------------------------------------------------------+
  
  start of program pre
  
  Job name: L_Ar_OtBu_N_Ar_trans_PL154
  Executables used: /software/local/apps/schrodinger2024-3/jaguar-v12.5/bin/Linux-x86_64
  Temporary files : /tmp/ar21627/L_Ar_OtBu_N_Ar_trans_PL154#bp1-compute129-0-6924c253
  Basis file : using default basis file from /software/local/apps/schrodinger2024-3
  Maestro file (input):  L_Ar_OtBu_N_Ar_trans_PL154.mae
  Maestro file (output): L_Ar_OtBu_N_Ar_trans_PL154.01.mae
  
 Contents of input file: &gen and (if present) &atomic sections only
 ----------------Contents start----------------
&gen
dftname=b3pw91-d3
basis=6-31G*
numd=5
ip11=2
iaccg=3
isolv=2
igeopt=1
solvent=benzene
ifreq=1
&
&atomic
atom basis
Pd2 lacv3p*
&
 -----------------Contents end-----------------
 
  PS calculation requested. Using PS version of 6-31g*
  basis set:               non_standard                    
  net molecular charge:    0
  multiplicity:            1
  
  Using up to  18 threads per process
  
  This run will use ECP on 1 atom
  number of basis functions....          707
  
 Input geometry:
                                   angstroms
  atom               x                 y                 z
  P1            0.0000000000      0.0000000000      0.0000000000 
  Pd2           0.0000000000      0.0000000000      2.4406504944 
  C73           2.0935678114     -0.5845346359      6.5658583744 
  C74           1.4413727028     -1.6501384318      5.9589087565 
  C75           0.6601222949     -1.3995683941      4.8273067174 
  C76           0.5857621135     -0.1041882490      4.3092783085 
  C77           1.2116334111      0.9646885560      4.9609778440 
  C78           1.9906834610      0.7188531118      6.0924269662 
  F79           2.8400409067     -0.8195824255      7.6646315766 
  H80           1.5333201274     -2.6485963527      6.3786925443 
  H81           0.1212541950     -2.2176881790      4.3565435525 
  H82           1.0958028311      1.9793493987      4.5919067381 
  H83           2.5043066988      1.5217596016      6.6147355961 
  C3           -0.7799828322     -1.4100755876     -0.9035587927 
  C4            1.8496924505     -0.2395423821     -0.4015570936 
  C5           -0.6690439184      1.6245562523     -0.7456920983 
  C6           -1.1285858994     -2.8356482031      1.2419333319 
  C7           -2.1987264202     -2.4134304920      2.0596720217 
  C8           -2.2166383748     -2.8204939588      3.3975382899 
  C9           -1.2349508784     -3.6641208102      3.9145828979 
  C10          -0.1945882731     -4.1053213036      3.0967740963 
  C11          -0.1464696782     -3.6859003357      1.7689945539 
  C12          -1.1720166401     -2.5912436347     -0.2337167572 
  C13          -1.6848017087     -3.6604107790     -0.9871643421 
  C14          -1.8349488778     -3.5856464366     -2.3666958650 
  C15          -1.4585872805     -2.4196318951     -3.0289217735 
  C16          -0.9316105992     -1.3592449727     -2.3000581583 
  C17           2.6879586211      0.6701777331      0.5082277614 
  C18           2.1456733840     -1.7055717460     -0.0399073261 
  C19           2.2421697294     -0.0239165969     -1.8677747720 
  C20          -2.2001171937      1.4850117955     -0.7674244927 
  C21          -0.1553542415      2.0386035254     -2.1330887834 
  C22          -0.3101195989      2.7600081841      0.2340561487 
  C23          -3.3382773488     -1.6269513480      1.4767056121 
  H24          -3.0258216165     -2.4769693551      4.0380364885 
  H25          -1.2840610167     -3.9760437620      4.9556191709 
  H26           0.5694828104     -4.7752858701      3.4856524739 
  H27           0.6444127813     -4.0487185521      1.1170275339 
  H28          -1.9830786836     -4.5633981840     -0.4591212757 
  H29          -2.2437681346     -4.4303465299     -2.9172397462 
  H30          -1.5634557852     -2.3347913628     -4.1082863704 
  H31          -0.6165182268     -0.4751663157     -2.8389777472 
  H32           2.3938945429      0.5809129072      1.5623170178 
  H33           3.7448932627      0.3813419231      0.4340824902 
  H34           2.6167458118      1.7235769733      0.2206659169 
  H35           1.9208302677     -1.9335447836      1.0135326853 
  H36           1.5687184277     -2.3953084847     -0.6628963893 
  H37           3.2116596243     -1.9181364880     -0.1983112869 
  H38           2.0421089889      0.9927535613     -2.2156216279 
  H39           3.3206148801     -0.2038227241     -1.9777728801 
  H40           1.7220237831     -0.7214648694     -2.5318111550 
  H41          -2.5389460535      0.6965637022     -1.4477525382 
  H42          -2.5892406136      1.2788665876      0.2361954154 
  H43          -2.6415740643      2.4336061241     -1.1016022950 
  H44          -0.4092868976      1.3352791773     -2.9299128265 
  H45          -0.6207086596      2.9972014098     -2.4006226545 
  H46           0.9275342622      2.1946934120     -2.1422588320 
  H47          -0.7017737279      2.5720426253      1.2368714848 
  H48           0.7681562041      2.9265875078      0.3085564706 
  H49          -0.7611475806      3.6925071474     -0.1324819711 
  H50          -3.8841838840     -2.2339707917      0.7415849801 
  H51          -2.9791682117     -0.7340980242      0.9599609279 
  H52          -4.0350101024     -1.3014228994      2.2531214220 
  N118          1.8236336822     -1.1298520956      2.4192772644 
  H119          1.4591413676     -2.0705204940      2.5859431431 
  H120          2.1079634843     -1.1163793564      1.4448251761 
  C121          2.9611687593     -0.8909217338      3.2542914860 
  C122          5.1437189532     -0.4020603312      4.9225611841 
  C123          3.2092103551     -1.7287094593      4.3399170958 
  C124          3.8046817598      0.1894137814      2.9982219869 
  C125          4.8971050009      0.4270654388      3.8282209376 
  C126          4.2933173636     -1.4774092978      5.1757326684 
  H127          2.5288842981     -2.5502333211      4.5462586992 
  H128          3.5838373999      0.8614238545      2.1730270047 
  H129          5.5497578377      1.2739351540      3.6268222300 
  H130          4.4685163669     -2.1221981329      6.0339592902 
  H131          5.9886372155     -0.2058114773      5.5787851451 
  O2           -1.8144519029      0.8947368852      2.6176673880 
  C104         -2.4525641744      1.6348184748      3.6286812659 
  C105         -2.8307024238      0.7807676023      4.8501281447 
  C106         -1.6169796522      2.8416716875      4.0784920390 
  C107         -3.7550934448      2.1506635991      2.9876634248 
  H108         -1.9397916188      0.4494594461      5.3852563965 
  H109         -3.4602771157      1.3490808281      5.5484407348 
  H110         -3.3859197356     -0.1071386472      4.5281315530 
  H111         -3.5261370596      2.8402478453      2.1694847523 
  H112         -4.3294260200      1.3119226304      2.5784803033 
  H113         -4.3795609163      2.6814040362      3.7182102900 
  H114         -2.1764909028      3.4810224109      4.7753212137 
  H115         -0.7059690988      2.5038440787      4.5780202281 
  H116         -1.3308392317      3.4443081856      3.2080499835 
   
  principal moments of inertia:
        amu*angstrom^2:              4382.97271              7220.63872              7574.24329
                g*cm^2:          7.27809650E-37          1.19901512E-36          1.25773253E-36
   
  rotational constants:
               cm^(-1):      0.00384616      0.00233465      0.00222565
                   GHz:      0.11530508      0.06999090      0.06672337
   
  Molecular weight:     679.26 amu
   
  Stoichiometry: PdC37PNH49OF
  Molecular Point Group: C1      
  Point Group used: C1
  
 
Number of optimization coordinates:   301
Number of independent coordinates:    301
Number of non-redundant coordinates:  267
Number of frozen coordinates:           0
Number of harmonic constraints:         0
 
Number of geometric degrees of freedom:   267
Maximum geometric degrees of freedom:     267
 " " " " " excluding dummy atoms:         267
 
 
  bond lengths (angstroms):
 
 P1      -Pd2     :   2.440650      P1      -C3      :   1.847459
 P1      -C4      :   1.907876      P1      -C5      :   1.908628
 Pd2     -C76     :   1.961056      Pd2     -N118    :   2.145382
 Pd2     -O2      :   2.030794      C73     -C74     :   1.388977
 C73     -C78     :   1.390519      C73     -F79     :   1.348989
 C74     -C75     :   1.397734      C74     -H80     :   1.087010
 C75     -C76     :   1.397101      C75     -H81     :   1.086884
 C76     -C77     :   1.399616      C77     -C78     :   1.395540
 C77     -H82     :   1.085894      C78     -H83     :   1.086864
 C3      -C12     :   1.413342      C3      -C16     :   1.405626
 C4      -C17     :   1.535575      C4      -C18     :   1.538713
 C4      -C19     :   1.533078      C5      -C20     :   1.537573
 C5      -C21     :   1.536288      C5      -C22     :   1.542071
 C6      -C7      :   1.411441      C6      -C11     :   1.401882
 C6      -C12     :   1.496383      C7      -C8      :   1.398538
 C7      -C23     :   1.502323      C8      -C9      :   1.393826
 C8      -H24     :   1.087669      C9      -C10     :   1.394928
 C9      -H25     :   1.087871      C10     -C11     :   1.393280
 C10     -H26     :   1.088064      C11     -H27     :   1.087287
 C12     -C13     :   1.404902      C13     -C14     :   1.389691
 C13     -H28     :   1.087743      C14     -C15     :   1.392760
 C14     -H29     :   1.088003      C15     -C16     :   1.390456
 C15     -H30     :   1.087761      C16     -H31     :   1.082272
 C17     -H32     :   1.097974      C17     -H33     :   1.098196
 C17     -H34     :   1.094264      C18     -H35     :   1.101028
 C18     -H36     :   1.093951      C18     -H37     :   1.098454
 C19     -H38     :   1.092996      C19     -H39     :   1.098867
 C19     -H40     :   1.094564      C20     -H41     :   1.095126
 C20     -H42     :   1.095977      C20     -H43     :   1.098358
 C21     -H44     :   1.092738      C21     -H45     :   1.098653
 C21     -H46     :   1.094119      C22     -H47     :   1.092869
 C22     -H48     :   1.093608      C22     -H49     :   1.098786
 C23     -H50     :   1.098585      C23     -H51     :   1.092324
 C23     -H52     :   1.092807      N118    -H119    :   1.022492
 N118    -H120    :   1.015176      N118    -C121    :   1.431196
 C121    -C123    :   1.393555      C121    -C124    :   1.394350
 C122    -C125    :   1.394937      C122    -C126    :   1.394150
 C122    -H131    :   1.087672      C123    -C126    :   1.391771
 C123    -H127    :   1.086426      C124    -C125    :   1.392395
 C124    -H128    :   1.086884      C125    -H129    :   1.087982
 C126    -H130    :   1.087658      O2      -C104    :   1.406079
 C104    -C105    :   1.537636      C104    -C106    :   1.535261
 C104    -C107    :   1.540644      C105    -H108    :   1.090802
 C105    -H109    :   1.098629      C105    -H110    :   1.095594
 C106    -H114    :   1.098814      C106    -H115    :   1.092518
 C106    -H116    :   1.096684      C107    -H111    :   1.094241
 C107    -H112    :   1.095799      C107    -H113    :   1.097881
 
  bond angles:
 
 C3      -P1      -Pd2     : 119.280256  C4      -P1      -Pd2     : 102.150094
 C4      -P1      -C3      : 102.154497  C5      -P1      -Pd2     : 112.997778
 C5      -P1      -C3      : 108.093983  C5      -P1      -C4      : 111.375772
 C76     -Pd2     -P1      : 162.338950  N118    -Pd2     -P1      :  89.429185
 N118    -Pd2     -C76     :  74.193591  O2      -Pd2     -P1      :  95.000610
 O2      -Pd2     -C76     : 101.959862  O2      -Pd2     -N118    : 172.919110
 C78     -C73     -C74     : 122.384192  F79     -C73     -C74     : 118.821253
 F79     -C73     -C78     : 118.788900  C75     -C74     -C73     : 118.600079
 H80     -C74     -C73     : 119.750069  H80     -C74     -C75     : 121.641062
 C76     -C75     -C74     : 119.745927  H81     -C75     -C74     : 119.527464
 H81     -C75     -C76     : 120.725640  C75     -C76     -Pd2     : 114.738055
 C77     -C76     -Pd2     : 122.457711  C77     -C76     -C75     : 120.773108
 C78     -C77     -C76     : 119.512496  H82     -C77     -C76     : 120.506749
 H82     -C77     -C78     : 119.980711  C77     -C78     -C73     : 118.846505
 H83     -C78     -C73     : 119.594791  H83     -C78     -C77     : 121.553838
 C12     -C3      -P1      : 121.545879  C16     -C3      -P1      : 120.254916
 C16     -C3      -C12     : 118.109918  C17     -C4      -P1      : 109.278952
 C18     -C4      -P1      : 104.871100  C18     -C4      -C17     : 108.674275
 C19     -C4      -P1      : 115.584008  C19     -C4      -C17     : 110.093647
 C19     -C4      -C18     : 108.031786  C20     -C5      -P1      : 106.100824
 C21     -C5      -P1      : 117.711520  C21     -C5      -C20     : 110.160594
 C22     -C5      -P1      : 107.272134  C22     -C5      -C20     : 107.913222
 C22     -C5      -C21     : 107.307401  C11     -C6      -C7      : 119.654816
 C12     -C6      -C7      : 120.031299  C12     -C6      -C11     : 119.350553
 C8      -C7      -C6      : 118.481337  C23     -C7      -C6      : 120.456919
 C23     -C7      -C8      : 120.921854  C9      -C8      -C7      : 121.467122
 H24     -C8      -C7      : 118.745887  H24     -C8      -C9      : 119.781796
 C10     -C9      -C8      : 119.950074  H25     -C9      -C8      : 119.784084
 H25     -C9      -C10     : 120.265840  C11     -C10     -C9      : 119.291723
 H26     -C10     -C9      : 120.594005  H26     -C10     -C11     : 120.112973
 C10     -C11     -C6      : 121.109470  H27     -C11     -C6      : 119.113030
 H27     -C11     -C10     : 119.742824  C6      -C12     -C3      : 126.571383
 C13     -C12     -C3      : 118.886651  C13     -C12     -C6      : 114.529602
 C14     -C13     -C12     : 122.064339  H28     -C13     -C12     : 118.132147
 H28     -C13     -C14     : 119.797325  C15     -C14     -C13     : 119.199074
 H29     -C14     -C13     : 120.075659  H29     -C14     -C15     : 120.725181
 C16     -C15     -C14     : 119.448160  H30     -C15     -C14     : 120.733992
 H30     -C15     -C16     : 119.815035  C15     -C16     -C3      : 122.282345
 H31     -C16     -C3      : 119.528271  H31     -C16     -C15     : 118.182475
 H32     -C17     -C4      : 111.988643  H33     -C17     -C4      : 109.242760
 H33     -C17     -H32     : 107.529460  H34     -C17     -C4      : 112.276955
 H34     -C17     -H32     : 108.247412  H34     -C17     -H33     : 107.342212
 H35     -C18     -C4      : 112.511464  H36     -C18     -C4      : 111.433425
 H36     -C18     -H35     : 107.855710  H37     -C18     -C4      : 109.703260
 H37     -C18     -H35     : 107.222411  H37     -C18     -H36     : 107.919623
 H38     -C19     -C4      : 112.851221  H39     -C19     -C4      : 108.902400
 H39     -C19     -H38     : 107.461601  H40     -C19     -C4      : 111.649040
 H40     -C19     -H38     : 108.223684  H40     -C19     -H39     : 107.536458
 H41     -C20     -C5      : 112.470693  H42     -C20     -C5      : 110.957395
 H42     -C20     -H41     : 108.881495  H43     -C20     -C5      : 109.034916
 H43     -C20     -H41     : 107.964459  H43     -C20     -H42     : 107.358933
 H44     -C21     -C5      : 114.039073  H45     -C21     -C5      : 108.266433
 H45     -C21     -H44     : 106.593969  H46     -C21     -C5      : 112.145304
 H46     -C21     -H44     : 108.403562  H46     -C21     -H45     : 107.019876
 H47     -C22     -C5      : 111.896955  H48     -C22     -C5      : 112.639383
 H48     -C22     -H47     : 108.483790  H49     -C22     -C5      : 108.505871
 H49     -C22     -H47     : 107.755552  H49     -C22     -H48     : 107.348296
 H50     -C23     -C7      : 110.323611  H51     -C23     -C7      : 111.229874
 H51     -C23     -H50     : 107.364856  H52     -C23     -C7      : 111.337163
 H52     -C23     -H50     : 108.856332  H52     -C23     -H51     : 107.591139
 H119    -N118    -Pd2     : 100.361774  H120    -N118    -Pd2     : 103.924833
 H120    -N118    -H119    : 105.575714  C121    -N118    -Pd2     : 125.582971
 C121    -N118    -H119    : 109.987547  C121    -N118    -H120    : 109.585113
 C123    -C121    -N118    : 119.710848  C124    -C121    -N118    : 120.200282
 C124    -C121    -C123    : 120.078672  C126    -C122    -C125    : 119.543784
 H131    -C122    -C125    : 120.225658  H131    -C122    -C126    : 120.228436
 C126    -C123    -C121    : 119.863484  H127    -C123    -C121    : 119.412922
 H127    -C123    -C126    : 120.680695  C125    -C124    -C121    : 119.827597
 H128    -C124    -C121    : 119.706655  H128    -C124    -C125    : 120.428306
 C124    -C125    -C122    : 120.324573  H129    -C125    -C122    : 120.120986
 H129    -C125    -C124    : 119.547775  C123    -C126    -C122    : 120.354837
 H130    -C126    -C122    : 120.152070  H130    -C126    -C123    : 119.491363
 C104    -O2      -Pd2     : 134.431205  C105    -C104    -O2      : 112.981345
 C106    -C104    -O2      : 112.174033  C106    -C104    -C105    : 109.738395
 C107    -C104    -O2      : 105.114449  C107    -C104    -C105    : 107.973190
 C107    -C104    -C106    : 108.593087  H108    -C105    -C104    : 110.949598
 H109    -C105    -C104    : 111.009518  H109    -C105    -H108    : 108.260253
 H110    -C105    -C104    : 109.956172  H110    -C105    -H108    : 108.175980
 H110    -C105    -H109    : 108.399059  H114    -C106    -C104    : 111.472604
 H115    -C106    -C104    : 110.165145  H115    -C106    -H114    : 108.334445
 H116    -C106    -C104    : 109.963645  H116    -C106    -H114    : 108.449036
 H116    -C106    -H115    : 108.376139  H111    -C107    -C104    : 110.194474
 H112    -C107    -C104    : 110.011113  H112    -C107    -H111    : 108.229372
 H113    -C107    -C104    : 111.462037  H113    -C107    -H111    : 108.173934
 H113    -C107    -H112    : 108.685590
 
  torsional angles:
 
 P1      -Pd2     -C76     -C75     : -84.176249
 P1      -Pd2     -C76     -C77     :  79.703915
 P1      -Pd2     -N118    -H119    : -99.644353
 P1      -Pd2     -N118    -H120    :   9.415844
 P1      -Pd2     -N118    -C121    : 136.432110
 P1      -Pd2     -O2      -C104    :-157.666091
 P1      -C3      -C12     -C6      :   5.194762
 P1      -C3      -C12     -C13     :-176.159114
 P1      -C3      -C16     -C15     : 177.118259
 P1      -C3      -C16     -H31     :  -1.907799
 P1      -C4      -C17     -H32     :  48.920976
 P1      -C4      -C17     -H33     : 167.933490
 P1      -C4      -C17     -H34     : -73.107498
 P1      -C4      -C18     -H35     : -58.114844
 P1      -C4      -C18     -H36     :  63.168483
 P1      -C4      -C18     -H37     :-177.380232
 P1      -C4      -C19     -H38     :  61.628477
 P1      -C4      -C19     -H39     :-179.130424
 P1      -C4      -C19     -H40     : -60.538179
 P1      -C5      -C20     -H41     : -65.538364
 P1      -C5      -C20     -H42     :  56.698987
 P1      -C5      -C20     -H43     : 174.740751
 P1      -C5      -C21     -H44     :  62.692762
 P1      -C5      -C21     -H45     :-178.848284
 P1      -C5      -C21     -H46     : -61.001033
 P1      -C5      -C22     -H47     : -56.424107
 P1      -C5      -C22     -H48     :  66.113114
 P1      -C5      -C22     -H49     :-175.182772
 Pd2     -P1      -C3      -C12     : -10.944275
 Pd2     -P1      -C3      -C16     : 172.556891
 Pd2     -P1      -C4      -C17     : -44.163111
 Pd2     -P1      -C4      -C18     :  72.186430
 Pd2     -P1      -C4      -C19     :-168.983004
 Pd2     -P1      -C5      -C20     : -83.884660
 Pd2     -P1      -C5      -C21     : 152.279248
 Pd2     -P1      -C5      -C22     :  31.266140
 Pd2     -C76     -C75     -C74     : 159.849893
 Pd2     -C76     -C75     -H81     : -19.790144
 Pd2     -C76     -C77     -C78     :-158.728603
 Pd2     -C76     -C77     -H82     :  21.195720
 Pd2     -N118    -C121    -C123    : 104.072838
 Pd2     -N118    -C121    -C124    : -74.766474
 Pd2     -O2      -C104    -C105    : -69.607940
 Pd2     -O2      -C104    -C106    :  55.071421
 Pd2     -O2      -C104    -C107    : 172.893433
 C73     -C74     -C75     -C76     :   2.027790
 C73     -C74     -C75     -H81     :-178.327830
 C73     -C78     -C77     -C76     :  -1.796942
 C73     -C78     -C77     -H82     : 178.278331
 C74     -C73     -C78     -C77     :  -0.458976
 C74     -C73     -C78     -H83     : 178.751242
 C74     -C75     -C76     -C77     :  -4.327087
 C75     -C74     -C73     -C78     :   0.346387
 C75     -C74     -C73     -F79     : 179.470273
 C75     -C76     -Pd2     -N118    : -61.583644
 C75     -C76     -Pd2     -O2      : 112.290925
 C75     -C76     -C77     -C78     :   4.204310
 C75     -C76     -C77     -H82     :-175.871366
 C76     -Pd2     -P1      -C3      : 108.863559
 C76     -Pd2     -P1      -C4      :  -2.706642
 C76     -Pd2     -P1      -C5      :-122.469022
 C76     -Pd2     -N118    -H119    :  87.049213
 C76     -Pd2     -N118    -H120    :-163.890590
 C76     -Pd2     -N118    -C121    : -36.874323
 C76     -Pd2     -O2      -C104    :  17.381513
 C76     -C75     -C74     -H80     :-179.053826
 C76     -C77     -C78     -H83     : 179.008959
 C77     -C76     -Pd2     -N118    : 102.296520
 C77     -C76     -Pd2     -O2      : -83.828911
 C77     -C76     -C75     -H81     : 176.032876
 C77     -C78     -C73     -F79     :-179.583135
 C78     -C73     -C74     -H80     :-178.592988
 F79     -C73     -C74     -H80     :   0.530898
 F79     -C73     -C78     -H83     :  -0.372916
 H80     -C74     -C75     -H81     :   0.590554
 H82     -C77     -C78     -H83     :  -0.915768
 C3      -P1      -Pd2     -N118    :  87.168424
 C3      -P1      -Pd2     -O2      : -87.299525
 C3      -P1      -C4      -C17     :-168.089700
 C3      -P1      -C4      -C18     : -51.740158
 C3      -P1      -C4      -C19     :  67.090407
 C3      -P1      -C5      -C20     :  50.352266
 C3      -P1      -C5      -C21     : -73.483826
 C3      -P1      -C5      -C22     : 165.503067
 C3      -C12     -C6      -C7      :  84.776532
 C3      -C12     -C6      -C11     :-106.489286
 C3      -C12     -C13     -C14     :  -0.883943
 C3      -C12     -C13     -H28     :-179.976514
 C3      -C16     -C15     -C14     :  -0.964924
 C3      -C16     -C15     -H30     : 179.640660
 C4      -P1      -Pd2     -N118    : -24.401777
 C4      -P1      -Pd2     -O2      : 161.130273
 C4      -P1      -C3      -C12     : 100.623529
 C4      -P1      -C3      -C16     : -75.875306
 C4      -P1      -C5      -C20     : 161.806087
 C4      -P1      -C5      -C21     :  37.969994
 C4      -P1      -C5      -C22     : -83.043113
 C5      -P1      -Pd2     -N118    :-144.164157
 C5      -P1      -Pd2     -O2      :  41.367893
 C5      -P1      -C3      -C12     :-141.820913
 C5      -P1      -C3      -C16     :  41.680253
 C5      -P1      -C4      -C17     :  76.730056
 C5      -P1      -C4      -C18     :-166.920402
 C5      -P1      -C4      -C19     : -48.089837
 C6      -C7      -C8      -C9      :  -2.362333
 C6      -C7      -C8      -H24     : 178.468873
 C6      -C7      -C23     -H50     :  64.164575
 C6      -C7      -C23     -H51     : -54.869120
 C6      -C7      -C23     -H52     :-174.858244
 C6      -C11     -C10     -C9      :  -0.347221
 C6      -C11     -C10     -H26     : 179.240623
 C6      -C12     -C3      -C16     :-178.233864
 C6      -C12     -C13     -C14     : 177.920894
 C6      -C12     -C13     -H28     :  -1.171676
 C7      -C6      -C11     -C10     :  -1.116630
 C7      -C6      -C11     -H27     : 176.735779
 C7      -C6      -C12     -C13     : -93.920452
 C7      -C8      -C9      -C10     :   0.927939
 C7      -C8      -C9      -H25     :-179.054223
 C8      -C7      -C6      -C11     :   2.429089
 C8      -C7      -C6      -C12     : 171.128922
 C8      -C7      -C23     -H50     :-111.470754
 C8      -C7      -C23     -H51     : 129.495551
 C8      -C7      -C23     -H52     :   9.506427
 C8      -C9      -C10     -C11     :   0.454515
 C8      -C9      -C10     -H26     :-179.131297
 C9      -C8      -C7      -C23     : 173.357381
 C9      -C10     -C11     -H27     :-178.186266
 C10     -C9      -C8      -H24     :-179.911733
 C10     -C11     -C6      -C12     :-169.893752
 C11     -C6      -C7      -C23     :-173.311228
 C11     -C6      -C12     -C13     :  74.813729
 C11     -C10     -C9      -H25     :-179.563410
 C12     -C3      -C16     -C15     :   0.500903
 C12     -C3      -C16     -H31     :-178.525155
 C12     -C6      -C7      -C23     :  -4.611396
 C12     -C6      -C11     -H27     :   7.958657
 C12     -C13     -C14     -C15     :   0.429500
 C12     -C13     -C14     -H29     :-179.464992
 C13     -C12     -C3      -C16     :   0.412261
 C13     -C14     -C15     -C16     :   0.489403
 C13     -C14     -C15     -H30     : 179.878122
 C14     -C15     -C16     -H31     : 178.073660
 C15     -C14     -C13     -H28     : 179.507353
 C16     -C15     -C14     -H29     :-179.616809
 C17     -C4      -C18     -H35     :  58.650698
 C17     -C4      -C18     -H36     : 179.934025
 C17     -C4      -C18     -H37     : -60.614690
 C17     -C4      -C19     -H38     : -62.769019
 C17     -C4      -C19     -H39     :  56.472080
 C17     -C4      -C19     -H40     : 175.064325
 C18     -C4      -C17     -H32     : -64.984048
 C18     -C4      -C17     -H33     :  54.028466
 C18     -C4      -C17     -H34     : 172.987477
 C18     -C4      -C19     -H38     : 178.699773
 C18     -C4      -C19     -H39     : -62.059128
 C18     -C4      -C19     -H40     :  56.533117
 C19     -C4      -C17     -H32     : 176.880040
 C19     -C4      -C17     -H33     : -64.107446
 C19     -C4      -C17     -H34     :  54.851566
 C19     -C4      -C18     -H35     : 178.083530
 C19     -C4      -C18     -H36     : -60.633143
 C19     -C4      -C18     -H37     :  58.818143
 C20     -C5      -C21     -H44     : -59.080310
 C20     -C5      -C21     -H45     :  59.378644
 C20     -C5      -C21     -H46     : 177.225894
 C20     -C5      -C22     -H47     :  57.512690
 C20     -C5      -C22     -H48     :-179.950088
 C20     -C5      -C22     -H49     : -61.245974
 C21     -C5      -C20     -H41     :  62.892724
 C21     -C5      -C20     -H42     :-174.869925
 C21     -C5      -C20     -H43     : -56.828162
 C21     -C5      -C22     -H47     : 176.205604
 C21     -C5      -C22     -H48     : -61.257175
 C21     -C5      -C22     -H49     :  57.446939
 C22     -C5      -C20     -H41     : 179.748114
 C22     -C5      -C20     -H42     : -58.014535
 C22     -C5      -C20     -H43     :  60.027229
 C22     -C5      -C21     -H44     :-176.312397
 C22     -C5      -C21     -H45     : -57.853443
 C22     -C5      -C21     -H46     :  59.993807
 C23     -C7      -C8      -H24     :  -5.811412
 H24     -C8      -C9      -H25     :   0.106105
 H25     -C9      -C10     -H26     :   0.850778
 H26     -C10     -C11     -H27     :   1.401578
 H28     -C13     -C14     -H29     :  -0.387139
 H29     -C14     -C15     -H30     :  -0.228090
 H30     -C15     -C16     -H31     :  -1.320756
 N118    -Pd2     -O2      -C104    :  73.778150
 N118    -C121    -C123    -C126    :-178.225019
 N118    -C121    -C123    -H127    :  -0.590597
 N118    -C121    -C124    -C125    : 178.981579
 N118    -C121    -C124    -H128    :   1.197317
 H119    -N118    -Pd2     -O2      :  29.180677
 H119    -N118    -C121    -C123    : -15.634599
 H119    -N118    -C121    -C124    : 165.526089
 H120    -N118    -Pd2     -O2      : 138.240874
 H120    -N118    -C121    -C123    :-131.272162
 H120    -N118    -C121    -C124    :  49.888526
 C121    -N118    -Pd2     -O2      : -94.742859
 C121    -C123    -C126    -C122    :  -0.864624
 C121    -C123    -C126    -H130    : 178.657594
 C121    -C124    -C125    -C122    :  -0.666418
 C121    -C124    -C125    -H129    :-179.728454
 C122    -C125    -C124    -H128    : 177.101620
 C122    -C126    -C123    -H127    :-178.468555
 C123    -C121    -C124    -C125    :   0.146559
 C123    -C121    -C124    -H128    :-177.637702
 C123    -C126    -C122    -C125    :   0.347645
 C123    -C126    -C122    -H131    : 179.818915
 C124    -C121    -C123    -C126    :   0.615722
 C124    -C121    -C123    -H127    : 178.250144
 C124    -C125    -C122    -C126    :   0.420108
 C124    -C125    -C122    -H131    :-179.051178
 C125    -C122    -C126    -H130    :-179.171405
 C126    -C122    -C125    -H129    : 179.476747
 H127    -C123    -C126    -H130    :   1.053663
 H128    -C124    -C125    -H129    :  -1.960417
 H129    -C125    -C122    -H131    :   0.005462
 H130    -C126    -C122    -H131    :   0.299866
 O2      -C104    -C105    -H108    :  68.337221
 O2      -C104    -C105    -H109    :-171.235593
 O2      -C104    -C105    -H110    : -51.291035
 O2      -C104    -C106    -H114    : 172.904397
 O2      -C104    -C106    -H115    : -66.793886
 O2      -C104    -C106    -H116    :  52.593417
 O2      -C104    -C107    -H111    : -64.441816
 O2      -C104    -C107    -H112    :  54.812301
 O2      -C104    -C107    -H113    : 175.445687
 C105    -C104    -C106    -H114    : -60.642200
 C105    -C104    -C106    -H115    :  59.659518
 C105    -C104    -C106    -H116    : 179.046821
 C105    -C104    -C107    -H111    : 174.708488
 C105    -C104    -C107    -H112    : -66.037395
 C105    -C104    -C107    -H113    :  54.595991
 C106    -C104    -C105    -H108    : -57.657933
 C106    -C104    -C105    -H109    :  62.769253
 C106    -C104    -C105    -H110    :-177.286189
 C106    -C104    -C107    -H111    :  55.778931
 C106    -C104    -C107    -H112    : 175.033048
 C106    -C104    -C107    -H113    : -64.333566
 C107    -C104    -C105    -H108    :-175.856267
 C107    -C104    -C105    -H109    : -55.429081
 C107    -C104    -C105    -H110    :  64.515477
 C107    -C104    -C106    -H114    :  57.171036
 C107    -C104    -C106    -H115    : 177.472753
 C107    -C104    -C106    -H116    : -63.139944
 
  nuclear repulsion energy.......          6401.501537507 hartrees
  
  Detected an organometallic with only one TM atom. 
  
  Oxidation state on metal       2 is     2
  Formal multiplet on metal      2 is     1
  Formal charge on ligand        3 is    -1
  Formal multiplet on ligand     3 is     1
  Formal charge on ligand        5 is    -1
  Formal multiplet on ligand     5 is     1
  
 
  Will use High-Quality Initial guess for organometallics
       including d-d repulsion (iguess=30)
 
 Non-default options chosen:
   SCF calculation type: DFT(b3pw91-d3)              
   DFT=Becke_3_Parameter/HF+Slater+Becke88+PW91+PW-GGAIIC (B3PW91-D3)
   Geometry will be optimized in redundant internal coordinates
   Solvation energy will be computed using PBF
     -solute cavity energy will not be included
     -surface area terms will not be included
   Vibrational frequencies and related properties will be computed
      from analytic second derivatives
   IR intensities will be computed
   Thermochemical properties will be computed
   Maximum number of geometry steps: 100
   Scaling standard convergence criteria by a factor of   5.00
   Solvent: benzene                                                         
   Internal dielectric constant:    1.000
   Continuum dielectric constant:   2.283
   Solvent probe molecule radius:   2.600
  
 Non-default print settings:
     11=  2
  
 Temporary integer options set:
     21= -1  73=  2
  
  atom       vdw   vdw2    cov     mass  grid  daf  charge   basis
  P1        2.147  2.074  1.060   30.974    Y    Y      Y    ps_6-31g*
  Pd2       1.450  1.450  1.280  105.903    Y    Y      Y    lacv3p*
  C73       1.949  1.900  0.770   12.000    Y    Y      Y    ps_6-31g*
  C74       1.949  1.900  0.770   12.000    Y    Y      Y    ps_6-31g*
  C75       1.949  1.900  0.770   12.000    Y    Y      Y    ps_6-31g*
  C76       1.949  1.900  0.770   12.000    Y    Y      Y    ps_6-31g*
  C77       1.949  1.900  0.770   12.000    Y    Y      Y    ps_6-31g*
  C78       1.949  1.900  0.770   12.000    Y    Y      Y    ps_6-31g*
  F79       1.736  1.682  0.720   18.998    Y    Y      Y    ps_6-31g*
  H80       1.597  1.150  0.320    1.008    Y    Y      Y    ps_6-31g*
  H81       1.597  1.150  0.320    1.008    Y    Y      Y    ps_6-31g*
  H82       1.597  1.150  0.320    1.008    Y    Y      Y    ps_6-31g*
  H83       1.597  1.150  0.320    1.008    Y    Y      Y    ps_6-31g*
  C3        1.949  1.900  0.770   12.000    Y    Y      Y    ps_6-31g*
  C4        1.949  1.900  0.770   12.000    Y    Y      Y    ps_6-31g*
  C5        1.949  1.900  0.770   12.000    Y    Y      Y    ps_6-31g*
  C6        1.949  1.900  0.770   12.000    Y    Y      Y    ps_6-31g*
  C7        1.949  1.900  0.770   12.000    Y    Y      Y    ps_6-31g*
  C8        1.949  1.900  0.770   12.000    Y    Y      Y    ps_6-31g*
  C9        1.949  1.900  0.770   12.000    Y    Y      Y    ps_6-31g*
  C10       1.949  1.900  0.770   12.000    Y    Y      Y    ps_6-31g*
  C11       1.949  1.900  0.770   12.000    Y    Y      Y    ps_6-31g*
  C12       1.949  1.900  0.770   12.000    Y    Y      Y    ps_6-31g*
  C13       1.949  1.900  0.770   12.000    Y    Y      Y    ps_6-31g*
  C14       1.949  1.900  0.770   12.000    Y    Y      Y    ps_6-31g*
  C15       1.949  1.900  0.770   12.000    Y    Y      Y    ps_6-31g*
  C16       1.949  1.900  0.770   12.000    Y    Y      Y    ps_6-31g*
  C17       1.949  1.900  0.770   12.000    Y    Y      Y    ps_6-31g*
  C18       1.949  1.900  0.770   12.000    Y    Y      Y    ps_6-31g*
  C19       1.949  1.900  0.770   12.000    Y    Y      Y    ps_6-31g*
  C20       1.949  1.900  0.770   12.000    Y    Y      Y    ps_6-31g*
  C21       1.949  1.900  0.770   12.000    Y    Y      Y    ps_6-31g*
  C22       1.949  1.900  0.770   12.000    Y    Y      Y    ps_6-31g*
  C23       1.949  1.900  0.770   12.000    Y    Y      Y    ps_6-31g*
  H24       1.597  1.150  0.320    1.008    Y    Y      Y    ps_6-31g*
  H25       1.597  1.150  0.320    1.008    Y    Y      Y    ps_6-31g*
  H26       1.597  1.150  0.320    1.008    Y    Y      Y    ps_6-31g*
  H27       1.597  1.150  0.320    1.008    Y    Y      Y    ps_6-31g*
  H28       1.597  1.150  0.320    1.008    Y    Y      Y    ps_6-31g*
  H29       1.597  1.150  0.320    1.008    Y    Y      Y    ps_6-31g*
  H30       1.597  1.150  0.320    1.008    Y    Y      Y    ps_6-31g*
  H31       1.597  1.150  0.320    1.008    Y    Y      Y    ps_6-31g*
  H32       1.597  1.150  0.320    1.008    Y    Y      Y    ps_6-31g*
  H33       1.597  1.150  0.320    1.008    Y    Y      Y    ps_6-31g*
  H34       1.597  1.150  0.320    1.008    Y    Y      Y    ps_6-31g*
  H35       1.597  1.150  0.320    1.008    Y    Y      Y    ps_6-31g*
  H36       1.597  1.150  0.320    1.008    Y    Y      Y    ps_6-31g*
  H37       1.597  1.150  0.320    1.008    Y    Y      Y    ps_6-31g*
  H38       1.597  1.150  0.320    1.008    Y    Y      Y    ps_6-31g*
  H39       1.597  1.150  0.320    1.008    Y    Y      Y    ps_6-31g*
  H40       1.597  1.150  0.320    1.008    Y    Y      Y    ps_6-31g*
  H41       1.597  1.150  0.320    1.008    Y    Y      Y    ps_6-31g*
  H42       1.597  1.150  0.320    1.008    Y    Y      Y    ps_6-31g*
  H43       1.597  1.150  0.320    1.008    Y    Y      Y    ps_6-31g*
  H44       1.597  1.150  0.320    1.008    Y    Y      Y    ps_6-31g*
  H45       1.597  1.150  0.320    1.008    Y    Y      Y    ps_6-31g*
  H46       1.597  1.150  0.320    1.008    Y    Y      Y    ps_6-31g*
  H47       1.597  1.150  0.320    1.008    Y    Y      Y    ps_6-31g*
  H48       1.597  1.150  0.320    1.008    Y    Y      Y    ps_6-31g*
  H49       1.597  1.150  0.320    1.008    Y    Y      Y    ps_6-31g*
  H50       1.597  1.150  0.320    1.008    Y    Y      Y    ps_6-31g*
  H51       1.597  1.150  0.320    1.008    Y    Y      Y    ps_6-31g*
  H52       1.597  1.150  0.320    1.008    Y    Y      Y    ps_6-31g*
  N118      1.831  1.600  0.750   14.003    Y    Y      Y    ps_6-31g*
  H119      1.597  1.150  0.320    1.008    Y    Y      Y    ps_6-31g*
  H120      1.597  1.150  0.320    1.008    Y    Y      Y    ps_6-31g*
  C121      1.949  1.900  0.770   12.000    Y    Y      Y    ps_6-31g*
  C122      1.949  1.900  0.770   12.000    Y    Y      Y    ps_6-31g*
  C123      1.949  1.900  0.770   12.000    Y    Y      Y    ps_6-31g*
  C124      1.949  1.900  0.770   12.000    Y    Y      Y    ps_6-31g*
  C125      1.949  1.900  0.770   12.000    Y    Y      Y    ps_6-31g*
  C126      1.949  1.900  0.770   12.000    Y    Y      Y    ps_6-31g*
  H127      1.597  1.150  0.320    1.008    Y    Y      Y    ps_6-31g*
  H128      1.597  1.150  0.320    1.008    Y    Y      Y    ps_6-31g*
  H129      1.597  1.150  0.320    1.008    Y    Y      Y    ps_6-31g*
  H130      1.597  1.150  0.320    1.008    Y    Y      Y    ps_6-31g*
  H131      1.597  1.150  0.320    1.008    Y    Y      Y    ps_6-31g*
  O2        1.702  1.600  0.730   15.995    Y    Y      Y    ps_6-31g*
  C104      1.949  1.900  0.770   12.000    Y    Y      Y    ps_6-31g*
  C105      1.949  1.900  0.770   12.000    Y    Y      Y    ps_6-31g*
  C106      1.949  1.900  0.770   12.000    Y    Y      Y    ps_6-31g*
  C107      1.949  1.900  0.770   12.000    Y    Y      Y    ps_6-31g*
  H108      1.597  1.150  0.320    1.008    Y    Y      Y    ps_6-31g*
  H109      1.597  1.150  0.320    1.008    Y    Y      Y    ps_6-31g*
  H110      1.597  1.150  0.320    1.008    Y    Y      Y    ps_6-31g*
  H111      1.597  1.150  0.320    1.008    Y    Y      Y    ps_6-31g*
  H112      1.597  1.150  0.320    1.008    Y    Y      Y    ps_6-31g*
  H113      1.597  1.150  0.320    1.008    Y    Y      Y    ps_6-31g*
  H114      1.597  1.150  0.320    1.008    Y    Y      Y    ps_6-31g*
  H115      1.597  1.150  0.320    1.008    Y    Y      Y    ps_6-31g*
  H116      1.597  1.150  0.320    1.008    Y    Y      Y    ps_6-31g*
 
  atom      formal  2spin      esp    mulk    frag
  P1           0       0        Y    0.000       0
  Pd2          2       0        Y    0.000       0
  C73         -1       0        Y    0.000       0
  N118         0       0        Y    0.000       0
  O2          -1       0        Y    0.000       0
  
  end of program pre
   
 Time(pre)  user:       4.892  user+sys:       4.892  wallclock:       1.049
  
  start of program onee
  
  smallest eigenvalue of S:    3.893E-04
  number of canonical orbitals.....          703
  end of program onee
   
 Time(onee)  user:       8.227  user+sys:       8.227  wallclock:       1.379
  
  start of program hfig
  
  initial wavefunction generated automatically from atomic wavefunctions
  Only one state below 0.010000
  Skip d-d repulsion considerations 
 
  Irreducible     Total no   No of occupied orbitals 
  representation  orbitals   Shell_1  Shell_2    ...
  No Symm          703        164
  ------------------------
  Orbital occupation/shell    1.000
 
  end of program hfig
   
 Time(hfig)  user:       3.328  user+sys:       3.328  wallclock:       1.093
  
  start of program probe
  
  end of program probe
   
 Time(probe)  user:       1.818  user+sys:       1.818  wallclock:       0.455
  
  start of program grid
  
   grid     grid set  grid #  grid sym
  ------    --------  ------  --------
  coarse        0        0        1
  medium        2        1        1
  fine          0        0        1
  ultrafine     4        2        1
  charge       -1        3        1
  gradient      4        2        1
  density       0        0        1
  DFT-fine    -11        4        1
  DFT-med.    -10        5        1
  DFT-grad    -12        6        1
  DFT-der2     -8        7        1
  DFT-cphf     -9        8        1
  LMP2-enrg     4        2        1
  LMP2-grad     2        1        1
  DFT-cphf2   -15        9        1
  PBF-dens      0        0        1
  plotting      0        0        1
  Rel-grad    -17        0        1
  
  number of gridpoints: 
     atom           P1         Pd2         C73         C74         C75         C76         C77
  grid # 1         613         345          78          91          94         100          95
  grid # 2         433         293         327         310         317         383         318
  grid # 3           6         200          25          21          12           8          12
  grid # 4        8714        8714        8714        8714        8714        8714        8714
  grid # 5        1192        1192        1192        1192        1192        1192        1192
  grid # 6        9132        9132        5922        5922        5922        5922        5922
  grid # 7       23034       32968       13950       13950       13950       13950       13950
  grid # 8         722        1150         748         748         748         748         748
  grid # 9         366        2198         394         394         394         394         394
   
  number of gridpoints: 
     atom          C78         F79         H80         H81         H82         H83          C3
  grid # 1          93         577         110         101         107         114          93
  grid # 2         319         558         450         413         438         464         381
  grid # 3          21         275         286          44         192         375           9
  grid # 4        8714        8714        8714        8714        8714        8714        8714
  grid # 5        1192        1192        1192        1192        1192        1192        1192
  grid # 6        5922        5922        5922        5922        5922        5922        5922
  grid # 7       13950       23190       15206       15206       15206       15206       13950
  grid # 8         748         770         786         786         786         786         748
  grid # 9         394         420         420         420         420         420         394
   
  number of gridpoints: 
     atom           C4          C5          C6          C7          C8          C9         C10
  grid # 1          88          89          99          98          95          94          95
  grid # 2         363         362         358         358         324         313         318
  grid # 3           6           6           8          18          28          30          25
  grid # 4        8714        8714        8714        8714        8714        8714        8714
  grid # 5        1192        1192        1192        1192        1192        1192        1192
  grid # 6        5922        5922        5922        5922        5922        5922        5922
  grid # 7       13950       13950       13950       13950       13950       13950       13950
  grid # 8         748         748         748         748         748         748         748
  grid # 9         394         394         394         394         394         394         394
   
  number of gridpoints: 
     atom          C11         C12         C13         C14         C15         C16         C17
  grid # 1          94          98          95          96          95          93          81
  grid # 2         320         356         325         324         323         325         237
  grid # 3          15           7          21          36          33          15           6
  grid # 4        8714        8714        8714        8714        8714        8714        8714
  grid # 5        1192        1192        1192        1192        1192        1192        1192
  grid # 6        5922        5922        5922        5922        5922        5922        5922
  grid # 7       13950       13950       13950       13950       13950       13950       13950
  grid # 8         748         748         748         748         748         748         748
  grid # 9         394         394         394         394         394         394         394
   
  number of gridpoints: 
     atom          C18         C19         C20         C21         C22         C23         H24
  grid # 1          78          81          79          81          80          81         110
  grid # 2         237         235         240         236         237         237         444
  grid # 3           6           6           6           6           6           6         231
  grid # 4        8714        8714        8714        8714        8714        8714        8714
  grid # 5        1192        1192        1192        1192        1192        1192        1192
  grid # 6        5922        5922        5922        5922        5922        5922        5922
  grid # 7       13950       13950       13950       13950       13950       13950       15206
  grid # 8         748         748         748         748         748         748         786
  grid # 9         394         394         394         394         394         394         420
   
  number of gridpoints: 
     atom          H25         H26         H27         H28         H29         H30         H31
  grid # 1         115         117         111         115         118         118         102
  grid # 2         458         459         442         455         467         466         420
  grid # 3         334         338         217         316         426         418          94
  grid # 4        8714        8714        8714        8714        8714        8714        8714
  grid # 5        1192        1192        1192        1192        1192        1192        1192
  grid # 6        5922        5922        5922        5922        5922        5922        5922
  grid # 7       15206       15206       15206       15206       15206       15206       15206
  grid # 8         786         786         786         786         786         786         786
  grid # 9         420         420         420         420         420         420         420
   
  number of gridpoints: 
     atom          H32         H33         H34         H35         H36         H37         H38
  grid # 1          90         105         102          82         103         108         102
  grid # 2         382         430         435         352         431         444         419
  grid # 3          28         177         168          41         146         258         128
  grid # 4        8714        8714        8714        8714        8714        8714        8714
  grid # 5        1192        1192        1192        1192        1192        1192        1192
  grid # 6        5922        5922        5922        5922        5922        5922        5922
  grid # 7       15206       15206       15206       15206       15206       15206       15206
  grid # 8         786         786         786         786         786         786         786
  grid # 9         420         420         420         420         420         420         420
   
  number of gridpoints: 
     atom          H39         H40         H41         H42         H43         H44         H45
  grid # 1         109         106         104          98         108         103         107
  grid # 2         448         435         441         413         445         427         444
  grid # 3         277         180         193          58         256         169         267
  grid # 4        8714        8714        8714        8714        8714        8714        8714
  grid # 5        1192        1192        1192        1192        1192        1192        1192
  grid # 6        5922        5922        5922        5922        5922        5922        5922
  grid # 7       15206       15206       15206       15206       15206       15206       15206
  grid # 8         786         786         786         786         786         786         786
  grid # 9         420         420         420         420         420         420         420
   
  number of gridpoints: 
     atom          H46         H47         H48         H49         H50         H51         H52
  grid # 1         100          99         102         108         109         101         103
  grid # 2         417         418         434         444         450         421         433
  grid # 3         147          46         166         248         303          55         180
  grid # 4        8714        8714        8714        8714        8714        8714        8714
  grid # 5        1192        1192        1192        1192        1192        1192        1192
  grid # 6        5922        5922        5922        5922        5922        5922        5922
  grid # 7       15206       15206       15206       15206       15206       15206       15206
  grid # 8         786         786         786         786         786         786         786
  grid # 9         420         420         420         420         420         420         420
   
  number of gridpoints: 
     atom         N118        H119        H120        C121        C122        C123        C124
  grid # 1          98          98          76          99          96          96          95
  grid # 2         305         391         334         348         323         320         323
  grid # 3           6          37          16          22          33          31          25
  grid # 4        8714        8714        8714        8714        8714        8714        8714
  grid # 5        1192        1192        1192        1192        1192        1192        1192
  grid # 6        5922        5922        5922        5922        5922        5922        5922
  grid # 7       13958       15206       15206       13950       13950       13950       13950
  grid # 8         756         786         786         748         748         748         748
  grid # 9         406         420         420         394         394         394         394
   
  number of gridpoints: 
     atom         C125        C126        H127        H128        H129        H130        H131
  grid # 1          96          96         105          99         117         113         117
  grid # 2         323         322         421         396         466         454         466
  grid # 3          35          30         128         106         402         302         398
  grid # 4        8714        8714        8714        8714        8714        8714        8714
  grid # 5        1192        1192        1192        1192        1192        1192        1192
  grid # 6        5922        5922        5922        5922        5922        5922        5922
  grid # 7       13950       13950       15206       15206       15206       15206       15206
  grid # 8         748         748         786         786         786         786         786
  grid # 9         394         394         420         420         420         420         420
   
  number of gridpoints: 
     atom           O2        C104        C105        C106        C107        H108        H109
  grid # 1         119          91          80          79          81         107         109
  grid # 2         468         326         243         245         237         441         450
  grid # 3          12           6           6           6           6         184         283
  grid # 4        8714        8714        8714        8714        8714        8714        8714
  grid # 5        1192        1192        1192        1192        1192        1192        1192
  grid # 6        5922        5922        5922        5922        5922        5922        5922
  grid # 7       23382       13950       13950       13950       13950       15206       15206
  grid # 8         774         748         748         748         748         786         786
  grid # 9         416         394         394         394         394         420         420
   
  number of gridpoints: 
     atom         H110        H111        H112        H113        H114        H115        H116
  grid # 1         105         107         106         109         109         102         106
  grid # 2         436         440         442         449         451         421         439
  grid # 3         134         202         192         280         294         101         190
  grid # 4        8714        8714        8714        8714        8714        8714        8714
  grid # 5        1192        1192        1192        1192        1192        1192        1192
  grid # 6        5922        5922        5922        5922        5922        5922        5922
  grid # 7       15206       15206       15206       15206       15206       15206       15206
  grid # 8         786         786         786         786         786         786         786
  grid # 9         420         420         420         420         420         420         420
   
  number of gridpoints: 
     atom        total
  grid # 1       10267
  grid # 2       34686
  grid # 3       11108
  grid # 4      792974
  grid # 5      108472
  grid # 6      545322
  grid # 7     1377776
  grid # 8       70362
  grid # 9       38964
   
  end of program grid
   
 Time(grid)  user:     534.260  user+sys:     534.260  wallclock:      36.550
  
  start of program rwr
  
  end of program rwr
   
 Time(rwr)  user:      70.008  user+sys:      70.008  wallclock:      18.238
  
  start of program scf
  
 number of electrons..........        328
 number of alpha electrons....        164
 number of beta electrons.....        164
 number of orbitals, total....        703
 number of doubly-occ'd orbs..        164
 number of open shell orbs....          0
 number of occupied orbitals..        164
 number of virtual orbitals...        539
 number of hamiltonians.......          1
 number of shells.............          1
 SCF type: DFT=Becke_3_Parameter/HF+Slater+Becke88+PW91+PW-GGAIIC (B3PW91-D3)
 Energy computed using pseudospectral method.
 Convergence Criterion:
    Energy (econv):       1.00E-05
    RMS density (dconv):  5.00E-06
  
       i  u  d  i  g                   
       t  p  i  c  r                                 RMS    maximum
       e  d  i  u  i                       energy  density   DIIS  
       r  t  s  t  d       total energy    change  change    error 
  
etot    1  N  N  5  M   -2131.14141805358           1.9E-03  1.7E-01
etot    2  Y  Y  6  M   -2134.88745960620  3.7E+00  2.9E-03  1.1E-01
etot    3  Y  Y  6  M   -2136.10949541554  1.2E+00  1.1E-03  7.3E-02
etot    4  N  Y  2  U   -2136.38334404369  2.7E-01  7.2E-04  3.4E-02
etot    5  Y  Y  6  M   -2136.47866911924  9.5E-02  4.7E-04  2.1E-02
etot    6  N  Y  2  U   -2136.49252315184  1.4E-02  5.3E-04  1.1E-02
etot    7  Y  Y  6  M   -2136.49779498779  5.3E-03  1.2E-04  4.2E-03
etot    8  N  Y  2  U   -2136.50631248849  8.5E-03  3.4E-05  9.2E-04
etot    9  N  Y  2  U   -2136.50660887405  3.0E-04  8.1E-06  3.3E-04
etot   10  N  Y  2  U   -2136.50661774213  8.9E-06  3.3E-06  9.4E-05
etot   11  N  N  2  U   -2136.50662052061  2.8E-06  0.0E+00  0.0E+00
 
  Computing the dispersion energy correction and its gradients...
  
  
 Energy components, in hartrees:
   (A)  Nuclear repulsion............    6401.50153750666
   (E)  Total one-electron terms.....  -15719.08547889549
   (F)    Electron-nuclear...........  -17764.66377015376
   (H)    Kinetic....................    2045.57829125827
   (I)  Total two-electron terms.....    7181.07732086821
   (J)    Coulomb....................    7462.04115711041
   (K)    Exchange+Correlation.......    -280.96383624220
   (L)  Electronic energy............   -8538.00815802727  (E+I)
   (N0) D3 correction................      -0.19105687114
   (N)  Total energy.................   -2136.69767739174  (A+L+N0)
   (O)  Gas phase energy.............   -2136.69767739174
  
 SCFE: SCF energy: DFT(b3pw91-d3)     -2136.69767739174 hartrees   iterations:  11
  
 
 HOMO energy:    -0.17272
 LUMO energy:    -0.03969
 
  Orbital energies (hartrees): 
   -77.06563   -24.66880   -19.04555   -14.35392   -10.22833   -10.21441
   -10.20998   -10.20352   -10.20152   -10.20059   -10.19106   -10.19072
   -10.19026   -10.18863   -10.18746   -10.18696   -10.18362   -10.18128
   -10.17884   -10.17527   -10.17259   -10.17239   -10.17039   -10.16802
   -10.16776   -10.16598   -10.16413   -10.16319   -10.16151   -10.15957
   -10.15793   -10.15449   -10.15110   -10.14991   -10.14732   -10.14645
   -10.14621   -10.14198   -10.11504   -10.11204   -10.10885    -6.56727
    -4.72546    -4.72497    -4.72116    -3.32119    -2.05637    -2.04922
    -2.01902    -1.20172    -0.97399    -0.90893    -0.88740    -0.86444
    -0.85878    -0.84243    -0.83547    -0.81834    -0.79438    -0.77453
    -0.76920    -0.75834    -0.75422    -0.73856    -0.73332    -0.73097
    -0.72119    -0.71410    -0.71316    -0.69551    -0.68616    -0.68240
    -0.66252    -0.65159    -0.64860    -0.63410    -0.62458    -0.61462
    -0.61138    -0.60173    -0.59993    -0.58330    -0.58021    -0.56571
    -0.56402    -0.54245    -0.53535    -0.52464    -0.52038    -0.50315
    -0.50035    -0.49275    -0.48281    -0.47779    -0.47352    -0.47252
    -0.46823    -0.46396    -0.45889    -0.45484    -0.45157    -0.44798
    -0.44448    -0.43775    -0.43315    -0.43235    -0.43085    -0.42769
    -0.42527    -0.42151    -0.41962    -0.41765    -0.41468    -0.41294
    -0.41114    -0.40810    -0.40549    -0.40200    -0.40088    -0.39431
    -0.39278    -0.38733    -0.38167    -0.37897    -0.37700    -0.37633
    -0.37073    -0.36794    -0.36395    -0.36138    -0.35828    -0.35519
    -0.35292    -0.35035    -0.34672    -0.34444    -0.34273    -0.33522
    -0.33191    -0.33026    -0.32715    -0.32462    -0.32189    -0.31811
    -0.31636    -0.30875    -0.30399    -0.30303    -0.30056    -0.28006
    -0.26820    -0.26673    -0.26108    -0.26019    -0.25287    -0.25013
    -0.24486    -0.23813    -0.22691    -0.21518    -0.19786    -0.19458
    -0.18634    -0.17272    -0.03969    -0.02676    -0.02410    -0.01678
    -0.01030    -0.00363     0.00863     0.02395     0.03079     0.03889
 
  end of program scf
   
 Time(scf)  user:     769.936  user+sys:     769.936  wallclock:      69.310
  
  start of program der1a
  
  end of program der1a
   
 Time(der1a)  user:      20.275  user+sys:      20.275  wallclock:       1.880
  
  start of program rwr
  
  end of program rwr
   
 Time(rwr)  user:      54.022  user+sys:      54.022  wallclock:      20.483
  
  start of program der1b
  
   
  forces (hartrees/bohr) : total     
   
 atom  label           x              y              z
 ---- --------   -------------  -------------  -------------
    1 P1         -4.909458E-03   4.856896E-03   6.241052E-03
    2 Pd2        -3.675780E-03   1.100187E-03   2.923063E-03
    3 C73        -1.490929E-02   5.166916E-03   6.381012E-03
    4 C74        -2.959095E-02   1.248583E-02   2.062993E-02
    5 C75        -1.435406E-02   1.557207E-02   2.634417E-02
    6 C76        -1.989191E-02   4.517573E-03   1.310212E-02
    7 C77         3.435154E-03  -8.623396E-03   3.076952E-03
    8 C78        -3.254103E-03  -4.045268E-04   3.901003E-03
    9 F79         3.839180E-03  -1.269447E-03   1.557311E-04
   10 H80         4.126256E-04  -2.019420E-04   1.944954E-03
   11 H81         6.938480E-03   7.546827E-03   3.289318E-03
   12 H82         5.107914E-03  -1.519887E-03  -1.322170E-03
   13 H83         4.845666E-04  -1.156598E-03   2.956864E-04
   14 C3          8.672585E-04   1.338233E-03  -3.583852E-03
   15 C4         -4.652544E-03   3.567927E-03  -1.050254E-02
   16 C5          9.402985E-04   5.613132E-04  -5.683508E-04
   17 C6         -1.265058E-03  -6.737882E-05   1.774649E-04
   18 C7          1.650014E-05  -4.532337E-04  -1.609276E-03
   19 C8         -2.400780E-04  -2.515117E-03  -6.344304E-04
   20 C9         -5.420933E-03  -4.754013E-03  -3.021843E-03
   21 C10        -2.123742E-03  -3.214704E-03  -1.750151E-03
   22 C11        -7.852057E-04  -2.963644E-04  -4.738233E-04
   23 C12        -8.715344E-04   1.596868E-04   7.595915E-05
   24 C13         2.685428E-04   5.080443E-04   2.390731E-04
   25 C14         3.988616E-04   9.561911E-04  -5.580572E-04
   26 C15        -8.215443E-05  -8.405231E-04   4.071189E-04
   27 C16         6.651137E-04  -1.573653E-03  -4.732932E-05
   28 C17        -1.194855E-02   6.731416E-03  -2.003089E-02
   29 C18         2.370946E-03  -2.274407E-02  -3.612698E-02
   30 C19         4.003888E-03  -2.782993E-03   4.734786E-04
   31 C20        -1.228294E-03  -1.102227E-03   1.336450E-03
   32 C21        -2.810103E-03   3.701020E-03   1.419567E-04
   33 C22        -7.824642E-04  -5.031384E-04   1.658722E-03
   34 C23         1.010648E-03   1.336517E-03  -8.058583E-04
   35 H24         9.629701E-04  -4.530363E-04  -2.819669E-04
   36 H25         1.560658E-05   1.514798E-04  -3.596813E-04
   37 H26        -1.243178E-04   4.065139E-04   6.288737E-05
   38 H27         1.285308E-04  -3.168592E-04  -9.510678E-04
   39 H28         1.936939E-04   3.751821E-04   1.467591E-04
   40 H29         2.511833E-04   5.222948E-04   2.293355E-04
   41 H30        -8.928972E-07  -1.336225E-04   3.526796E-04
   42 H31        -4.299057E-04   2.242802E-04   4.017540E-04
   43 H32        -1.438695E-02   1.412093E-02  -3.190718E-02
   44 H33        -8.944221E-04  -8.190469E-04  -4.067877E-03
   45 H34        -1.270127E-03   7.195942E-04  -9.650644E-04
   46 H35        -4.413311E-03  -6.406622E-02  -8.018723E-02
   47 H36         1.285808E-03   5.341902E-04  -2.142397E-03
   48 H37         7.035401E-04   3.853732E-04  -5.160953E-05
   49 H38         4.697607E-03  -5.930934E-03   2.211234E-03
   50 H39         4.746364E-05  -9.999706E-04  -5.394237E-04
   51 H40        -5.038207E-04  -3.372505E-04  -2.123597E-04
   52 H41         2.275588E-05   2.984249E-04  -5.450850E-04
   53 H42         2.211891E-03   5.394694E-05   1.172219E-03
   54 H43         3.562866E-04   4.853150E-05  -4.882565E-04
   55 H44         7.366893E-04  -9.040747E-05  -1.707917E-04
   56 H45        -6.087525E-04  -1.648488E-04   3.887534E-05
   57 H46        -5.386362E-03   4.017267E-03   3.288891E-04
   58 H47        -8.102435E-04  -3.263423E-03  -1.483139E-04
   59 H48         1.597608E-03  -2.318276E-04  -3.750998E-04
   60 H49         4.440744E-04   1.193974E-04  -6.734905E-04
   61 H50         5.884435E-05  -5.799343E-04   6.426632E-04
   62 H51         4.788583E-04   2.768709E-04   2.185787E-03
   63 H52         4.444425E-04   8.859598E-05  -1.409434E-04
   64 N118       -2.125731E-04   1.431422E-02   4.665365E-02
   65 H119       -1.150328E-03  -3.980077E-04   4.319888E-03
   66 H120        8.129235E-03   4.214803E-02   4.874831E-02
   67 C121        3.722627E-03  -1.641464E-03   5.710573E-03
   68 C122       -6.532101E-04  -2.489356E-03   5.296125E-04
   69 C123        2.494658E-02  -9.837738E-03  -1.829815E-02
   70 C124        1.624506E-02   8.971276E-03   1.492457E-02
   71 C125       -9.791951E-04  -2.322894E-03   9.609544E-04
   72 C126        1.329706E-02  -2.742299E-03  -6.716413E-03
   73 H127        1.839747E-02  -2.943688E-03  -1.195008E-02
   74 H128        2.037708E-02  -2.356369E-03   2.959423E-02
   75 H129       -6.172614E-04  -2.716734E-04  -2.277475E-04
   76 H130       -3.582246E-04   8.044634E-04  -7.985511E-04
   77 H131       -5.450713E-04  -4.220880E-04   1.562525E-04
   78 O2         -1.447610E-03   2.404946E-03  -5.670895E-03
   79 C104        1.945391E-03  -2.404263E-03  -2.981783E-03
   80 C105        1.329146E-03   3.654163E-04  -9.109087E-04
   81 C106       -5.634562E-04  -5.494520E-04   3.366320E-04
   82 C107        2.798698E-04   2.538494E-04  -7.574401E-05
   83 H108        3.346404E-03  -1.859605E-03   9.471819E-05
   84 H109        4.016917E-04  -7.272647E-04   1.299282E-04
   85 H110       -2.804292E-04   1.195667E-04  -7.899620E-04
   86 H111        4.664560E-04   2.055365E-04  -1.934368E-03
   87 H112        1.919214E-05  -2.921320E-04   2.482925E-04
   88 H113       -2.350247E-04  -8.402548E-05  -2.835523E-04
   89 H114        8.130215E-04  -3.786068E-05  -1.814234E-04
   90 H115       -2.887733E-03   9.632118E-04  -1.416331E-04
   91 H116       -3.802807E-04   1.690710E-04   5.079540E-04
 -------------   -------------  -------------  -------------
     total       -2.821609E-03   3.783475E-04  -2.720739E-03
   
  end of program der1b
   
 Time(der1b)  user:     263.639  user+sys:     263.639  wallclock:      21.898
  
  start of program geopt
  
 ----------------------------------------------------------------------------
  Geometry optimization step  1
  Total energy:     -2136.69767739174 hartrees
 ----------------------------------------------------------------------------
  
  
  Level shifts adjusted to satisfy step-size constraints
   Step size:    0.3001049
   Cos(theta):   0.7019726
   Final level shift:  -8.9077988E-01
  
  gradient maximum:        7.0489E-01 .  (  2.2500E-03 )
  gradient rms:            7.6579E-02 .  (  1.5000E-03 )
  displacement maximum:    1.1080E-01 .  (  9.0000E-03 )
  displacement rms:        1.6978E-02 .  (  6.0000E-03 )
  
  predicted energy change:  -1.7852E-01
  step size:     0.29456
  trust radius:  0.30000
  
  molecular structure not yet converged...
  
  center of mass moved by:
     x:     2.9555E-02     y:     3.9637E-02     z:     6.3229E-02
  
  new geometry: 
                                   angstroms
  atom               x                 y                 z
  P1            0.0293775337     -0.0209806020      0.0077212991 
  Pd2           0.0884081184      0.0650516631      2.4706074828 
  C73           1.8111252497     -0.2801545635      6.8270587288 
  C74           1.1780377446     -1.3654163975      6.2430471256 
  C75           0.5130390828     -1.1805666994      5.0298337584 
  C76           0.5173898811      0.0664156284      4.4029114394 
  C77           1.1372667831      1.1540893791      5.0318583403 
  C78           1.8032772175      0.9788825966      6.2456896960 
  F79           2.4540373300     -0.4562830400      8.0007800691 
  H80           1.1908930439     -2.3291475023      6.7465561074 
  H81          -0.0079156497     -2.0170885754      4.5752781619 
  H82           1.1061138028      2.1417843046      4.5832245502 
  H83           2.2980595981      1.8043358150      6.7503581267 
  C3           -0.7394098367     -1.4344744453     -0.9067352334 
  C4            1.8211932332     -0.2112404754     -0.6260734841 
  C5           -0.7814921293      1.5643795469     -0.6848251084 
  C6           -1.1359277830     -2.9472968402      1.1802206251 
  C7           -2.2356824831     -2.5706963023      1.9795945515 
  C8           -2.2974283102     -3.0427267525      3.2933112974 
  C9           -1.3272807936     -3.9014964894      3.8023038622 
  C10          -0.2580035414     -4.2998221384      2.9999147688 
  C11          -0.1676581735     -3.8185230379      1.6960808471 
  C12          -1.1393887284     -2.6385475742     -0.2814764663 
  C13          -1.6268053583     -3.6841007621     -1.0833101845 
  C14          -1.7479886746     -3.5669588320     -2.4622241609 
  C15          -1.3670823780     -2.3791281000     -3.0781486048 
  C16          -0.8633337403     -1.3409683022     -2.3037853996 
  C17           2.7072468865      0.7696255625      0.1418712814 
  C18           2.2157908971     -1.6774203549     -0.3480962567 
  C19           2.0407527544     -0.0528598722     -2.1345124054 
  C20          -2.2972242738      1.3156002884     -0.6307042393 
  C21          -0.3905877540      2.0592468293     -2.0851694794 
  C22          -0.4479320970      2.6985403268      0.3036266831 
  C23          -3.3551144125     -1.7530814659      1.4026989285 
  H24          -3.1297051162     -2.7352510959      3.9216862926 
  H25          -1.4094651562     -4.2642111557      4.8244750443 
  H26           0.4978568969     -4.9818073482      3.3835965279 
  H27           0.6462727499     -4.1450064805      1.0527868360 
  H28          -1.9316509948     -4.6057360817     -0.5927912434 
  H29          -2.1381291297     -4.3965512386     -3.0476646493 
  H30          -1.4494405000     -2.2607501796     -4.1561335401 
  H31          -0.5400912365     -0.4396067883     -2.8079704820 
  H32           2.5190024924      0.7183826906      1.2135076756 
  H33           3.7600160874      0.5116842248     -0.0337299319 
  H34           2.5625680942      1.8030922735     -0.1888485735 
  H35           2.1247353303     -1.9688786533      0.7002888657 
  H36           1.6060887025     -2.3709263589     -0.9347928817 
  H37           3.2664395542     -1.8355401867     -0.6279794476 
  H38           1.7745259654      0.9384875641     -2.5012310523 
  H39           3.1046317338     -0.2130390964     -2.3587390523 
  H40           1.4698383376     -0.7925435967     -2.7050495826 
  H41          -2.6136992568      0.5113280527     -1.3033036491 
  H42          -2.6139698261      1.0729514515      0.3901635082 
  H43          -2.8212160808      2.2333298128     -0.9300497201 
  H44          -0.6286127447      1.3580491334     -2.8887539639 
  H45          -0.9555500552      2.9779991481     -2.2945117424 
  H46           0.6679959137      2.3197661914     -2.1507947773 
  H47          -0.7812403409      2.4600323835      1.3169649060 
  H48           0.6210948641      2.9304400837      0.3318700418 
  H49          -0.9721935340      3.6083687215     -0.0201126800 
  H50          -3.8718733707     -2.3175624045      0.6146370176 
  H51          -2.9789440136     -0.8306292649      0.9553380742 
  H52          -4.0797424708     -1.4735729024      2.1712662247 
  N118          1.9258814241     -1.0900312493      2.4937942739 
  H119          1.5466173212     -2.0165811948      2.7048665776 
  H120          2.2036823142     -1.1236638656      1.5122312397 
  C121          3.1091646535     -0.9638991769      3.3219922633 
  C122          5.3655798820     -0.8183443840      5.0020439526 
  C123          3.3298224849     -1.9240585950      4.3094431803 
  C124          4.0429421748      0.0731424886      3.1837222306 
  C125          5.1621188907      0.1380447243      4.0109025182 
  C126          4.4396402178     -1.8449217720      5.1452488513 
  H127          2.6187860035     -2.7300178798      4.4374956354 
  H128          3.8919924636      0.8465800014      2.4431032223 
  H129          5.8698028118      0.9547237278      3.8865538081 
  H130          4.5720748128     -2.5942071999      5.9217691909 
  H131          6.2319597442     -0.7560957002      5.6564215871 
  O2           -1.7429769702      0.9304507894      2.5814936494 
  C104         -2.4040877660      1.7044219484      3.5466029717 
  C105         -2.7608145403      0.8909421256      4.8011000938 
  C106         -1.6102095723      2.9568952432      3.9424988405 
  C107         -3.7130808230      2.1491496613      2.8663774825 
  H108         -1.8598522775      0.6060940492      5.3489160410 
  H109         -3.4059798490      1.4688887844      5.4765513363 
  H110         -3.2916750468     -0.0234996177      4.5138053716 
  H111         -3.4933749627      2.7971861235      2.0115853592 
  H112         -4.2616686898      1.2734771290      2.5015235326 
  H113         -4.3583807848      2.7040630731      3.5598580230 
  H114         -2.1952448124      3.6136379601      4.6007537579 
  H115         -0.6969430199      2.6731200405      4.4682912769 
  H116         -1.3330626912      3.5240547401      3.0459249441 
   
 The P1-Pd2-C76 bend has become linear.  (coord    2)
 The P1-Pd2-C76-C75 torsion has become linear.  (coord    3)
 The C76-Pd2-P1-C3 torsion has become linear.  (coord   71)
 The C76-Pd2-P1-C4 torsion has become linear.  (coord   72)
  
  Change in internal coords is being performed
  for a more optimal set.
 
Number of optimization coordinates:   302
Number of independent coordinates:    302
Number of non-redundant coordinates:  267
Number of frozen coordinates:           0
Number of harmonic constraints:         0
 
Number of geometric degrees of freedom:   267
Maximum geometric degrees of freedom:     267
 " " " " " excluding dummy atoms:         267
 
 
  bond lengths (angstroms):
 
 P1      -Pd2     :   2.465095      P1      -C3      :   1.850738
 P1      -C4      :   1.910104      P1      -C5      :   1.910627
 Pd2     -C76     :   1.979350      Pd2     -N118    :   2.170498
 Pd2     -O2      :   2.028591      C73     -C74     :   1.385519
 C73     -C78     :   1.386804      C73     -F79     :   1.349807
 C74     -C75     :   1.395808      C74     -H80     :   1.087412
 C75     -C76     :   1.395713      C75     -H81     :   1.085257
 C76     -C77     :   1.401020      C77     -C78     :   1.395584
 C77     -H82     :   1.085258      C78     -H83     :   1.086680
 C3      -C12     :   1.414469      C3      -C16     :   1.405649
 C4      -C17     :   1.528702      C4      -C18     :   1.543587
 C4      -C19     :   1.532540      C5      -C20     :   1.536966
 C5      -C21     :   1.535794      C5      -C22     :   1.540980
 C6      -C7      :   1.410775      C6      -C11     :   1.400961
 C6      -C12     :   1.493953      C7      -C8      :   1.397311
 C7      -C23     :   1.501476      C8      -C9      :   1.392029
 C8      -H24     :   1.087236      C9      -C10     :   1.394936
 C9      -H25     :   1.087727      C10     -C11     :   1.392765
 C10     -H26     :   1.087952      C11     -H27     :   1.087613
 C12     -C13     :   1.404882      C13     -C14     :   1.389177
 C13     -H28     :   1.087636      C14     -C15     :   1.391185
 C14     -H29     :   1.087738      C15     -C16     :   1.389668
 C15     -H30     :   1.087588      C16     -H31     :   1.082193
 C17     -H32     :   1.089250      C17     -H33     :   1.098040
 C17     -H34     :   1.094697      C18     -H35     :   1.091948
 C18     -H36     :   1.094029      C18     -H37     :   1.098726
 C19     -H38     :   1.090013      C19     -H39     :   1.098987
 C19     -H40     :   1.094800      C20     -H41     :   1.095171
 C20     -H42     :   1.096074      C20     -H43     :   1.098364
 C21     -H44     :   1.092741      C21     -H45     :   1.098687
 C21     -H46     :   1.092143      C22     -H47     :   1.093085
 C22     -H48     :   1.094255      C22     -H49     :   1.098838
 C23     -H50     :   1.098508      C23     -H51     :   1.092041
 C23     -H52     :   1.092660      N118    -H119    :   1.023175
 N118    -H120    :   1.020672      N118    -C121    :   1.449821
 C121    -C123    :   1.394867      C121    -C124    :   1.402325
 C122    -C125    :   1.392278      C122    -C126    :   1.389868
 C122    -H131    :   1.087520      C123    -C126    :   1.391592
 C123    -H127    :   1.082377      C124    -C125    :   1.393196
 C124    -H128    :   1.081438      C125    -H129    :   1.087770
 C126    -H130    :   1.087176      O2      -C104    :   1.402688
 C104    -C105    :   1.537129      C104    -C106    :   1.534818
 C104    -C107    :   1.540764      C105    -H108    :   1.092233
 C105    -H109    :   1.098406      C105    -H110    :   1.095698
 C106    -H114    :   1.098579      C106    -H115    :   1.091349
 C106    -H116    :   1.096506      C107    -H111    :   1.094939
 C107    -H112    :   1.095842      C107    -H113    :   1.097842
 
  bond angles:
 
 C3      -P1      -Pd2     : 122.023241  C4      -P1      -Pd2     : 108.211583
 C4      -P1      -C3      :  98.606454  C5      -P1      -Pd2     : 110.081109
 C5      -P1      -C3      : 106.160771  C5      -P1      -C4      : 111.130625
 C76     -Pd2     -P1      : 168.687175  N118    -Pd2     -P1      :  90.708913
 N118    -Pd2     -C76     :  78.840699  O2      -Pd2     -P1      :  92.744513
 O2      -Pd2     -C76     :  98.163784  O2      -Pd2     -N118    : 172.184853
 C78     -C73     -C74     : 122.129498  F79     -C73     -C74     : 118.813055
 F79     -C73     -C78     : 119.057381  C75     -C74     -C73     : 118.707088
 H80     -C74     -C73     : 119.578991  H80     -C74     -C75     : 121.699460
 C76     -C75     -C74     : 120.480957  H81     -C75     -C74     : 119.384810
 H81     -C75     -C76     : 120.134161  C75     -C76     -Pd2     : 115.925975
 C77     -C76     -Pd2     : 122.321986  C77     -C76     -C75     : 119.560967
 C78     -C77     -C76     : 120.274193  H82     -C77     -C76     : 120.548847
 H82     -C77     -C78     : 119.176960  C77     -C78     -C73     : 118.770138
 H83     -C78     -C73     : 119.495909  H83     -C78     -C77     : 121.725858
 C12     -C3      -P1      : 123.311479  C16     -C3      -P1      : 118.482953
 C16     -C3      -C12     : 118.101660  C17     -C4      -P1      : 108.247401
 C18     -C4      -P1      : 105.941954  C18     -C4      -C17     : 111.766250
 C19     -C4      -P1      : 116.788129  C19     -C4      -C17     : 110.188086
 C19     -C4      -C18     : 103.815250  C20     -C5      -P1      : 105.751452
 C21     -C5      -P1      : 119.330543  C21     -C5      -C20     : 109.589326
 C22     -C5      -P1      : 106.638506  C22     -C5      -C20     : 108.060069
 C22     -C5      -C21     : 107.014900  C11     -C6      -C7      : 119.745160
 C12     -C6      -C7      : 119.828912  C12     -C6      -C11     : 119.366248
 C8      -C7      -C6      : 118.489097  C23     -C7      -C6      : 120.586952
 C23     -C7      -C8      : 120.813220  C9      -C8      -C7      : 121.424873
 H24     -C8      -C7      : 118.794644  H24     -C8      -C9      : 119.777836
 C10     -C9      -C8      : 120.004126  H25     -C9      -C8      : 119.780072
 H25     -C9      -C10     : 120.214923  C11     -C10     -C9      : 119.309871
 H26     -C10     -C9      : 120.577249  H26     -C10     -C11     : 120.112568
 C10     -C11     -C6      : 120.982544  H27     -C11     -C6      : 119.085566
 H27     -C11     -C10     : 119.901893  C6      -C12     -C3      : 127.428480
 C13     -C12     -C3      : 118.642262  C13     -C12     -C6      : 113.917575
 C14     -C13     -C12     : 122.278840  H28     -C13     -C12     : 118.065355
 H28     -C13     -C14     : 119.647887  C15     -C14     -C13     : 119.181462
[...]
    H80      Y    -0.00016   0.00022  -0.00006
    H80      Z     0.00018  -0.00042   0.00013
    H81      X    -0.00015   0.00267  -0.00079
    H81      Y    -0.00016   0.00200  -0.00055
    H81      Z    -0.00008   0.00037  -0.00003
    H82      X     0.00009   0.00018   0.00000
    H82      Y     0.00019   0.00045   0.00026
    H82      Z    -0.00020  -0.00028  -0.00015
    H83      X     0.00015  -0.00022   0.00003
    H83      Y     0.00016  -0.00001   0.00005
    H83      Z     0.00007  -0.00009   0.00003
    C3       X    -0.00072  -0.00003  -0.00004
    C3       Y     0.00006  -0.00003  -0.00000
    C3       Z    -0.00244   0.00004   0.00006
    C4       X     0.00001   0.00008   0.00018
    C4       Y     0.00001  -0.00004  -0.00015
    C4       Z     0.00008  -0.00002  -0.00007
    C5       X     0.00014  -0.00000  -0.00003
    C5       Y     0.00019  -0.00001  -0.00002
    C5       Z     0.00001   0.00003   0.00004
    C6       X     0.00000  -0.00018   0.00013
    C6       Y    -0.00003   0.00018  -0.00007
    C6       Z    -0.00004   0.00004   0.00002
    C7       X     0.00001   0.00011  -0.00006
    C7       Y    -0.00002  -0.00009   0.00003
    C7       Z     0.00001  -0.00014   0.00005
    C8       X     0.00001   0.00043  -0.00013
    C8       Y     0.00000  -0.00028   0.00010
    C8       Z    -0.00001   0.00002   0.00001
    C9       X     0.00000   0.00003  -0.00008
    C9       Y     0.00000   0.00013   0.00002
    C9       Z    -0.00002  -0.00046   0.00026
    C10      X    -0.00002  -0.00031   0.00017
    C10      Y     0.00002   0.00046  -0.00007
    C10      Z    -0.00001   0.00026  -0.00021
    C11      X    -0.00006   0.00021   0.00017
    C11      Y     0.00002   0.00005  -0.00013
    C11      Z     0.00007   0.00027  -0.00035
    C12      X     0.00015  -0.00001  -0.00000
    C12      Y     0.00064  -0.00004   0.00002
    C12      Z    -0.00027   0.00007  -0.00006
    C13      X     0.00014  -0.00001   0.00001
    C13      Y     0.00092   0.00002   0.00002
    C13      Z    -0.00058  -0.00005   0.00004
    C14      X     0.00048   0.00001  -0.00001
    C14      Y     0.00143   0.00001   0.00001
    C14      Z     0.00007   0.00002  -0.00001
    C15      X     0.00316   0.00001  -0.00000
    C15      Y     0.00031   0.00000  -0.00002
    C15      Z     0.00995   0.00000   0.00001
    C16      X    -0.01516   0.00002   0.00001
    C16      Y    -0.07239   0.00004   0.00002
    C16      Z     0.03420  -0.00000   0.00002
    C17      X    -0.00002   0.00000  -0.00002
    C17      Y     0.00002  -0.00002  -0.00002
    C17      Z     0.00006  -0.00009  -0.00006
    C18      X     0.00002  -0.00012  -0.00009
    C18      Y     0.00004  -0.00022  -0.00032
    C18      Z     0.00008   0.00053   0.00116
    C19      X     0.00102  -0.00002  -0.00003
    C19      Y    -0.00042   0.00001   0.00007
    C19      Z     0.00063  -0.00001  -0.00000
    C20      X     0.00018  -0.00001   0.00000
    C20      Y     0.00041  -0.00003   0.00001
    C20      Z     0.00027   0.00003   0.00002
    C21      X     0.00093   0.00000   0.00003
    C21      Y     0.00125  -0.00003  -0.00001
    C21      Z     0.00209  -0.00002  -0.00001
    C22      X    -0.00018  -0.00004  -0.00000
    C22      Y    -0.00013  -0.00002  -0.00002
    C22      Z     0.00035   0.00004   0.00003
    C23      X     0.00001   0.00010  -0.00002
    C23      Y     0.00002   0.00026  -0.00004
    C23      Z    -0.00002   0.00007  -0.00002
    H24      X    -0.00013  -0.00181   0.00055
    H24      Y     0.00005   0.00055  -0.00018
    H24      Z     0.00018   0.00145  -0.00037
    H25      X     0.00001   0.00017  -0.00014
    H25      Y    -0.00008  -0.00017  -0.00004
    H25      Z     0.00019   0.00117  -0.00023
    H26      X     0.00029   0.00182  -0.00031
    H26      Y    -0.00026  -0.00219   0.00014
    H26      Z     0.00012   0.00021  -0.00003
    H27      X     0.00051   0.00048  -0.00215
    H27      Y    -0.00023   0.00003   0.00212
    H27      Z    -0.00060  -0.00080   0.00355
    H28      X    -0.00179   0.00009  -0.00004
    H28      Y    -0.00908   0.00025  -0.00027
    H28      Z     0.00438   0.00007  -0.00001
    H29      X    -0.00413  -0.00012   0.00004
    H29      Y    -0.00818  -0.00015   0.00003
    H29      Z    -0.00481  -0.00019   0.00006
    H30      X    -0.02309  -0.00001   0.00002
    H30      Y     0.01534   0.00007  -0.00001
    H30      Z    -0.09252  -0.00005   0.00002
    H31      X     0.17732  -0.00004   0.00004
    H31      Y     0.84368  -0.00000  -0.00015
    H31      Z    -0.39492  -0.00013   0.00010
    H32      X     0.00002  -0.00011  -0.00004
    H32      Y    -0.00030   0.00033   0.00018
    H32      Z    -0.00125   0.00084   0.00060
    H33      X     0.00054  -0.00003  -0.00032
    H33      Y    -0.00001  -0.00002  -0.00020
    H33      Z    -0.00004  -0.00001   0.00001
    H34      X    -0.00005   0.00004  -0.00001
    H34      Y     0.00006   0.00029   0.00087
    H34      Z     0.00007   0.00012  -0.00011
    H35      X    -0.00040  -0.00404  -0.00934
    H35      Y    -0.00005  -0.00272  -0.00597
    H35      Z    -0.00110  -0.00244  -0.00688
    H36      X    -0.00030   0.00247   0.00451
    H36      Y    -0.00026   0.00322   0.00571
    H36      Z     0.00002   0.00239   0.00499
    H37      X     0.00039   0.00042   0.00076
    H37      Y    -0.00007   0.00065   0.00150
    H37      Z    -0.00018  -0.00101  -0.00263
    H38      X    -0.00891  -0.00011  -0.00031
    H38      Y     0.01279   0.00013   0.00053
    H38      Z    -0.00659  -0.00028  -0.00084
    H39      X    -0.00504  -0.00014  -0.00061
    H39      Y    -0.00070  -0.00001  -0.00008
    H39      Z     0.00066   0.00017   0.00044
    H40      X    -0.00165   0.00013   0.00018
    H40      Y    -0.00720   0.00023  -0.00010
    H40      Z    -0.00213   0.00020   0.00012
    H41      X    -0.00281   0.00016  -0.00003
    H41      Y    -0.00305   0.00017  -0.00005
    H41      Z    -0.00312   0.00040  -0.00003
    H42      X    -0.00038   0.00000   0.00002
    H42      Y    -0.00055   0.00005   0.00006
    H42      Z     0.00018  -0.00080  -0.00026
    H43      X     0.00053  -0.00011  -0.00018
    H43      Y    -0.00143   0.00023   0.00011
    H43      Z    -0.00003  -0.00004  -0.00004
    H44      X    -0.01250   0.00013   0.00010
    H44      Y    -0.03586   0.00021   0.00009
    H44      Z    -0.03191   0.00035   0.00012
    H45      X     0.00165  -0.00009  -0.00017
    H45      Y    -0.00026   0.00012   0.00018
    H45      Z     0.00145   0.00002   0.00003
    H46      X    -0.00389  -0.00002  -0.00027
    H46      Y     0.00040  -0.00004  -0.00018
    H46      Z     0.00164  -0.00001   0.00003
    H47      X     0.00115   0.00021   0.00013
    H47      Y     0.00126   0.00041   0.00015
    H47      Z    -0.00313  -0.00077  -0.00032
    H48      X     0.00046   0.00026  -0.00006
    H48      Y    -0.00003   0.00006  -0.00007
    H48      Z    -0.00015  -0.00003  -0.00002
    H49      X    -0.00007   0.00004  -0.00007
    H49      Y     0.00013  -0.00000   0.00014
    H49      Z    -0.00016   0.00013  -0.00001
    H50      X     0.00008  -0.00034   0.00024
    H50      Y     0.00001   0.00009  -0.00001
    H50      Z     0.00011  -0.00059   0.00036
    H51      X    -0.00003  -0.00127   0.00023
    H51      Y    -0.00016  -0.00280   0.00035
    H51      Z    -0.00004  -0.00085   0.00008
    H52      X    -0.00022  -0.00047   0.00008
    H52      Y    -0.00006  -0.00008   0.00000
    H52      Z     0.00019   0.00021   0.00003
    N118     X    -0.00000   0.03039  -0.02527
    N118     Y     0.00000   0.05145   0.00392
    N118     Z     0.00001  -0.00556   0.06997
    H119     X     0.00001  -0.47684   0.19620
    H119     Y     0.00004  -0.59801   0.26889
    H119     Z    -0.00005   0.44738  -0.17897
    H120     X    -0.00003   0.07549   0.15942
    H120     Y    -0.00006  -0.12786  -0.32463
    H120     Z    -0.00013  -0.36721  -0.80074
    C121     X    -0.00001  -0.00013  -0.00007
    C121     Y    -0.00000   0.00073   0.00011
    C121     Z    -0.00000  -0.00040   0.00005
    C122     X    -0.00001  -0.00008  -0.00006
    C122     Y    -0.00000  -0.00003   0.00002
    C122     Z    -0.00001  -0.00003  -0.00009
    C123     X    -0.00000  -0.00085  -0.00012
    C123     Y    -0.00000  -0.00043   0.00031
    C123     Z     0.00000  -0.00004  -0.00029
    C124     X     0.00000  -0.00062   0.00002
    C124     Y     0.00001  -0.00038   0.00001
    C124     Z    -0.00001  -0.00009   0.00001
    C125     X    -0.00001   0.00012   0.00015
    C125     Y    -0.00001   0.00008   0.00002
    C125     Z     0.00000  -0.00000   0.00008
    C126     X    -0.00000   0.00016   0.00000
    C126     Y     0.00000  -0.00000  -0.00004
    C126     Z    -0.00001   0.00010   0.00005
    H127     X     0.00004   0.00292  -0.00093
    H127     Y     0.00005   0.00217  -0.00046
    H127     Z    -0.00003  -0.00019   0.00015
    H128     X     0.00001   0.00026   0.00064
    H128     Y    -0.00007   0.00018   0.00002
    H128     Z     0.00014  -0.00017   0.00080
    H129     X     0.00007  -0.00091  -0.00026
    H129     Y     0.00007  -0.00084  -0.00025
    H129     Z    -0.00004   0.00042   0.00005
    H130     X     0.00001  -0.00042  -0.00004
    H130     Y    -0.00003   0.00048   0.00017
    H130     Z     0.00006  -0.00131  -0.00045
    H131     X     0.00008  -0.00001   0.00004
    H131     Y     0.00003   0.00004   0.00011
    H131     Z     0.00005   0.00002   0.00011
    O2       X    -0.00001   0.00010   0.00003
    O2       Y     0.00000   0.00001  -0.00003
    O2       Z    -0.00000   0.00001   0.00003
    C104     X     0.00000  -0.00003   0.00000
    C104     Y    -0.00000   0.00003   0.00001
    C104     Z    -0.00001   0.00016   0.00004
    C105     X     0.00001  -0.00003   0.00000
    C105     Y    -0.00001  -0.00004   0.00001
    C105     Z    -0.00000  -0.00003   0.00001
    C106     X     0.00001  -0.00001   0.00000
    C106     Y     0.00000   0.00002   0.00001
    C106     Z    -0.00001  -0.00001  -0.00001
    C107     X     0.00000  -0.00002   0.00000
    C107     Y     0.00000  -0.00002   0.00001
    C107     Z     0.00002  -0.00006  -0.00002
    H108     X    -0.00005  -0.00008   0.00002
    H108     Y     0.00002   0.00001   0.00001
    H108     Z    -0.00006  -0.00001   0.00003
    H109     X    -0.00009   0.00023   0.00006
    H109     Y     0.00007  -0.00004  -0.00006
    H109     Z     0.00008  -0.00019  -0.00006
    H110     X     0.00001   0.00034  -0.00010
    H110     Y    -0.00001   0.00040  -0.00009
    H110     Z    -0.00000   0.00028  -0.00005
    H111     X     0.00008  -0.00008  -0.00005
    H111     Y     0.00012  -0.00002  -0.00011
    H111     Z    -0.00009   0.00004   0.00009
    H112     X    -0.00011   0.00021  -0.00002
    H112     Y    -0.00017   0.00031   0.00002
    H112     Z    -0.00006   0.00017  -0.00001
    H113     X    -0.00002   0.00042   0.00010
    H113     Y     0.00001  -0.00029  -0.00008
    H113     Z    -0.00001  -0.00008  -0.00001
    H114     X    -0.00009   0.00019   0.00003
    H114     Y     0.00007  -0.00026  -0.00005
    H114     Z     0.00010  -0.00024  -0.00004
    H115     X    -0.00003  -0.00000  -0.00000
    H115     Y     0.00000   0.00000  -0.00000
    H115     Z    -0.00003   0.00009   0.00001
    H116     X    -0.00004   0.00000  -0.00004
    H116     Y    -0.00010   0.00005  -0.00008
    H116     Z     0.00010   0.00002   0.00008
  
  Number of imaginary frequencies:   0
   
  Writing vibrational animation data to L_Ar_OtBu_N_Ar_trans_PL154.vib
  Writing IR vibrational spectrum data to L_Ar_OtBu_N_Ar_trans_PL154_vib.spm
  rotational symmetry number:  1

  rotational temperatures (K):      0.005369      0.003158      0.002985
   
  The Quasi-Harmonic approximation will be applied to compute
  vibrational constributions to thermodynamic properties.
  Frequencies will be adjusted to a minimum value of  100.00 cm^-1.

  vibrational temperatures:
       mode:      1        2        3        4        5        6
  temp. (K):   143.88   143.88   143.88   143.88   143.88   143.88
   
       mode:      7        8        9       10       11       12
  temp. (K):   143.88   143.88   143.88   143.88   143.88   143.88
   
       mode:     13       14       15       16       17       18
  temp. (K):   143.88   150.20   157.76   161.36   164.93   179.88
   
       mode:     19       20       21       22       23       24
  temp. (K):   188.00   197.15   207.49   229.09   236.40   245.66
   
       mode:     25       26       27       28       29       30
  temp. (K):   263.26   273.64   292.24   297.70   310.03   315.86
   
       mode:     31       32       33       34       35       36
  temp. (K):   337.22   342.97   346.99   353.14   360.46   364.81
   
       mode:     37       38       39       40       41       42
  temp. (K):   380.17   389.52   397.49   403.40   425.43   426.14
   
       mode:     43       44       45       46       47       48
  temp. (K):   445.01   455.01   464.68   476.47   488.65   498.04
   
       mode:     49       50       51       52       53       54
  temp. (K):   512.41   522.46   524.88   531.95   550.02   563.74
   
       mode:     55       56       57       58       59       60
  temp. (K):   565.04   585.05   590.03   594.69   598.80   603.68
   
       mode:     61       62       63       64       65       66
  temp. (K):   608.44   611.61   632.82   643.69   684.69   686.99
   
       mode:     67       68       69       70       71       72
  temp. (K):   688.28   703.92   728.90   738.92   765.36   777.13
   
       mode:     73       74       75       76       77       78
  temp. (K):   781.12   799.81   820.54   830.71   837.11   844.44
   
       mode:     79       80       81       82       83       84
  temp. (K):   858.92   867.48   898.49   910.26   914.40   927.51
   
       mode:     85       86       87       88       89       90
  temp. (K):   988.24  1022.26  1032.86  1074.46  1092.53  1108.94
   
       mode:     91       92       93       94       95       96
  temp. (K):  1110.47  1120.42  1131.19  1147.53  1189.73  1190.80
   
       mode:     97       98       99      100      101      102
  temp. (K):  1195.54  1196.42  1197.69  1200.52  1202.72  1215.42
   
       mode:    103      104      105      106      107      108
  temp. (K):  1293.10  1302.92  1312.69  1319.36  1323.29  1359.68
   
       mode:    109      110      111      112      113      114
  temp. (K):  1368.86  1376.76  1378.98  1384.10  1387.57  1391.15
   
       mode:    115      116      117      118      119      120
  temp. (K):  1400.09  1408.67  1417.53  1420.90  1422.03  1431.50
   
       mode:    121      122      123      124      125      126
  temp. (K):  1450.20  1452.11  1464.35  1470.74  1474.32  1480.98
   
       mode:    127      128      129      130      131      132
  temp. (K):  1483.43  1502.31  1511.04  1516.32  1522.72  1523.99
   
       mode:    133      134      135      136      137      138
  temp. (K):  1531.44  1534.80  1542.61  1549.91  1560.01  1565.87
   
       mode:    139      140      141      142      143      144
  temp. (K):  1599.08  1606.65  1614.98  1627.42  1661.12  1679.68
   
       mode:    145      146      147      148      149      150
  temp. (K):  1719.48  1723.74  1732.98  1733.91  1740.45  1743.08
   
       mode:    151      152      153      154      155      156
  temp. (K):  1752.17  1755.28  1767.02  1775.32  1781.41  1785.51
   
       mode:    157      158      159      160      161      162
  temp. (K):  1788.01  1802.46  1817.05  1821.81  1831.88  1836.91
   
       mode:    163      164      165      166      167      168
  temp. (K):  1853.64  1879.98  1896.76  1898.63  1925.11  1940.57
   
       mode:    169      170      171      172      173      174
  temp. (K):  1958.77  1980.13  2004.19  2026.19  2030.95  2040.53
   
       mode:    175      176      177      178      179      180
  temp. (K):  2044.26  2050.88  2053.15  2053.87  2066.23  2084.46
   
       mode:    181      182      183      184      185      186
  temp. (K):  2089.13  2103.54  2116.51  2135.89  2156.59  2158.82
   
       mode:    187      188      189      190      191      192
  temp. (K):  2165.89  2173.26  2175.70  2178.83  2179.75  2180.62
   
       mode:    193      194      195      196      197      198
  temp. (K):  2181.95  2186.79  2187.57  2190.32  2196.94  2197.92
   
       mode:    199      200      201      202      203      204
  temp. (K):  2199.93  2203.68  2208.35  2212.68  2218.26  2224.20
   
       mode:    205      206      207      208      209      210
  temp. (K):  2230.82  2232.44  2236.21  2240.94  2251.21  2336.81
   
       mode:    211      212      213      214      215      216
  temp. (K):  2347.38  2357.84  2373.28  2381.02  2388.00  2395.37
   
       mode:    217      218      219      220      221      222
  temp. (K):  2413.91  2426.98  4320.20  4367.19  4370.73  4372.97
   
       mode:    223      224      225      226      227      228
  temp. (K):  4374.25  4376.59  4381.51  4384.23  4387.48  4395.74
   
       mode:    229      230      231      232      233      234
  temp. (K):  4457.38  4475.77  4477.71  4480.51  4484.59  4485.94
   
       mode:    235      236      237      238      239      240
  temp. (K):  4490.25  4492.08  4493.14  4499.60  4508.99  4523.39
   
       mode:    241      242      243      244      245      246
  temp. (K):  4523.82  4541.98  4556.76  4566.01  4568.34  4571.34
   
       mode:    247      248      249      250      251      252
  temp. (K):  4571.89  4580.95  4582.55  4585.44  4586.80  4590.31
   
       mode:    253      254      255      256      257      258
  temp. (K):  4596.72  4597.22  4598.26  4599.97  4602.02  4613.16
   
       mode:    259      260      261      262      263      264
  temp. (K):  4615.95  4621.44  4622.42  4623.27  4627.27  4668.79
   
       mode:    265      266      267
  temp. (K):  4713.80  5030.34  5158.70
   
   
  Thermodynamic properties calculated assuming an ideal gas

  In the table below, the units for temperature
  are kelvins, the units for U, H, and G are
  kcal/mol and the units for Cv and S are cal/(mol K)

  The zero point energy (ZPE):    492.521 kcal/mol
  is not included in U, H, or G in the table below
  
 
  =============================================================================
  Thermodynamic properties for P = 1.00E+00 atm, calculated at   1 temperatures


  T =   298.15 K, P = 1.00E+00 atm
   
                  U         Cv          S          H          G        ln(Q)
              =========  =========  =========  =========  =========  =========
  trans.          0.889      2.981     45.429      1.481    -12.063   20.36062
  rot.            0.889      2.981     37.793      0.889    -10.379   17.51831
  vib.           25.405    169.127    152.451     25.405    -20.049   33.83821
  elec.           0.000      0.000      0.000      0.000      0.000    0.00000
  ----------------------------------------------------------------------------
  total          27.182    175.088    235.673     27.775    -42.491   71.71714
   
   Total internal energy, Utot(SCFE + ZPE + U):   -2136.068676 hartrees
   Total enthalpy, Htot (Utot + nRT), with n=1:   -2136.067732 hartrees
    Total Gibbs free energy, Gtot (Htot - T*S):   -2136.179708 hartrees
   
  end of program freq
   
 Time(freq)  user:       1.240  user+sys:       1.240  wallclock:       0.560
  
  start of program post
  
  Writing input files for PBF
  end of program post
   
 Time(post)  user:       0.384  user+sys:       0.384  wallclock:       0.115

 Total cpu seconds     user:  148351.872   user+sys:  148351.872
  
 Total elapsed time:    17419 seconds

Job L_Ar_OtBu_N_Ar_trans_PL154 completed on bp1-compute129.data.bp.acrc.priv at Tue Nov 25 01:29:12 2025
