Job L_Ar_Br_N_Na_N_trans_PL154 started on bp1-compute072 at Tue Dec  2 18:00:55 2025
jobid: bp1-compute072-0-692f2950

  +--------------------------------------------------------------------+
  |  Jaguar version 12.5, release 138                                  |
  |                                                                    |
  |  Copyright Schrodinger, Inc.                                       |
  |  All Rights Reserved.                                              |
  |                                                                    |
  |  The following have contributed to Jaguar (listed alphabetically): |
  |  Ty Balduf, Mike Beachy, Chandler Bennett, Art Bochevarov,         |
  |  Dale Braden, Yixiang Cao, Alan Chien, Chris Cortis,               |
  |  Rich Friesner, Jim Furness, Bill Goddard, Hod Greeley,            |
  |  Tom Hughes, Leif Jacobson, Jean-Marc Langlois, Daniel Levine,     |
  |  Rob Murphy, Dean Philipp, Tom Pollard, Murco Ringnalda,           |
  |  Daniel Mainz, Pablo Videla, Mark Watson, Haoyu Yu.                |
  |                                                                    |
  |  Use of this program should be acknowledged in publications as:    |
  |                                                                    |
  |  Jaguar, version 12.5, Schrodinger, Inc., New York, NY, 2024.      |
  |                                                                    |
  |  A. D. Bochevarov, E. Harder, T. F. Hughes, J. R. Greenwood,       |
  |  D. A. Braden, D. M. Philipp, D. Rinaldo, M. D. Halls,             |
  |  J. Zhang, R. A. Friesner, "Jaguar: A High-Performance Quantum     |
  |  Chemistry Software Program with Strengths in Life and Materials   |
  |  Sciences", Int. J. Quantum Chem., 2013, 113(18), 2110-2142.       |
  +--------------------------------------------------------------------+
  
  start of program pre
  
  Job name: L_Ar_Br_N_Na_N_trans_PL154
  Executables used: /software/local/apps/schrodinger2024-3/jaguar-v12.5/bin/Linux-x86_64
  Temporary files : /tmp/ar21627/L_Ar_Br_N_Na_N_trans_PL154#bp1-compute072-0-692f2950
  Basis file : using default basis file from /software/local/apps/schrodinger2024-3
  Maestro file (input):  L_Ar_Br_N_Na_N_trans_PL154.mae
  Maestro file (output): L_Ar_Br_N_Na_N_trans_PL154.01.mae
  
 Contents of input file: &gen and (if present) &atomic sections only
 ----------------Contents start----------------
&gen
dftname=b3pw91-d3
basis=6-31G*
numd=5
ip11=2
iaccg=3
isolv=2
igeopt=1
solvent=benzene
ifreq=1
&
&atomic
atom basis
Pd2 lacv3p*
Br3 lacv3p*
&
 -----------------Contents end-----------------
 
  PS calculation requested. Using PS version of 6-31g*
  basis set:               non_standard                    
  net molecular charge:    0
  multiplicity:            1
  
  Using up to  18 threads per process
  
  This run will use ECP on            2  atoms
  number of basis functions....          644
  
 Input geometry:
                                   angstroms
  atom               x                 y                 z
  P1            0.0000000000      0.0000000000      0.0000000000 
  Pd2           0.0000000000      0.0000000000      2.3445237584 
  C73           4.7311751548     -0.4972665465      2.7436052540 
  C74           4.1599401199      0.7612348323      2.8730874310 
  C75           2.7752937330      0.8865266174      2.7514252920 
  C76           1.9767162350     -0.2330460328      2.4882976392 
  C77           2.5753315873     -1.4931335894      2.4159240563 
  C78           3.9618535493     -1.6311828566      2.5298064544 
  F79           6.0726448135     -0.6227578206      2.8455838519 
  H80           4.7926024909      1.6225101662      3.0708126847 
  H82           1.9705827133     -2.3858470305      2.2856178753 
  H83           4.4423122858     -2.6038727148      2.4651972488 
  H14           2.3266547589      1.8674828490      2.8760092478 
  C3           -0.2567963683     -1.7656921893     -0.4819964896 
  C4            1.7020322688      0.4996716942     -0.7158354725 
  C5           -1.4623365539      0.9084671019     -0.8372580378 
  C6           -0.8605352617     -2.4210398020      1.9479499261 
  C7           -2.1319267368     -2.1837958208      2.5455822157 
  C8           -2.2906120709     -2.4567106497      3.9003017842 
  C9           -1.2388885095     -2.9473126598      4.6786973384 
  C10           0.0161856131     -3.1359321545      4.1166689581 
  C11           0.2050438881     -2.8661086385      2.7610109995 
  C12          -0.7455473033     -2.6728331625      0.4752504535 
  C13          -1.0549962907     -3.9866522126      0.0828400709 
  C14          -0.8755336485     -4.4196007510     -1.2241136069 
  C15          -0.3528476153     -3.5352958883     -2.1666884024 
  C16          -0.0490340022     -2.2311441735     -1.7947080989 
  C17           1.5701202763      0.8588277630     -2.2031213498 
  C18           2.1308245218      1.7458263715      0.0784843026 
  C19           2.8111021146     -0.5515248289     -0.5741582206 
  C20          -2.4937149129     -0.2046013241     -1.0898973719 
  C21          -1.1419664616      1.5869781126     -2.1775540143 
  C22          -2.0779987116      1.9791944223      0.0814735870 
  C23          -3.2797065373     -1.6587969263      1.7252274387 
  H24          -3.2549628384     -2.2671708711      4.3667722462 
  H25          -1.4016305342     -3.1532336185      5.7334717589 
  H26           0.8499705582     -3.4804360005      4.7221243611 
  H27           1.1540815383     -3.1044472180      2.2898569850 
  H28          -1.4223441599     -4.6780845599      0.8379112235 
  H29          -1.1219554718     -5.4425045504     -1.4990615873 
  H30          -0.1820202075     -3.8560492921     -3.1917970082 
  H31           0.3547175483     -1.5693556703     -2.5486124208 
  H32           0.6976348224      1.4787153257     -2.4181679355 
  H33           2.4639970446      1.4173366402     -2.5110018528 
  H34           1.5175790915     -0.0384394308     -2.8268425968 
  H35           1.3968564319      2.5562223477      0.0102078227 
  H36           2.2791180370      1.5105264389      1.1380040342 
  H37           3.0882382246      2.1136462644     -0.3140297160 
  H38           2.5786074547     -1.4857092157     -1.0956551545 
  H39           3.7251911025     -0.1480388395     -1.0308244651 
  H40           3.0389554043     -0.7766709413      0.4716831261 
  H41          -2.0902617847     -0.9879626896     -1.7417199992 
  H42          -2.8261472239     -0.6654948924     -0.1548945538 
  H43          -3.3731261377      0.2245440650     -1.5881684310 
  H44          -0.9138520688      0.8682230216     -2.9682135269 
  H45          -2.0323324965      2.1455276476     -2.4968625059 
  H46          -0.3217064486      2.3089414110     -2.0987327098 
  H47          -2.1683907341      1.6618777697      1.1187072765 
  H48          -1.5123030547      2.9132009617      0.0495525916 
  H49          -3.0892184864      2.2008404287     -0.2846993122 
  H50          -3.5819897471     -2.3647261986      0.9416320392 
  H51          -2.9951961537     -0.7264871763      1.2250761913 
  H52          -4.1516049253     -1.4531605661      2.3547763647 
  N104          0.0346946859      0.0050120223      4.4474484759 
  H105          0.5570964960     -0.8456887315      4.6605748468 
  C107          0.6517793268      1.0775776986      5.0949430798 
  C108          1.7977861158      3.2851366804      6.4628091205 
  C109          1.7292150665      0.9058606545      5.9896227469 
  C110          0.1742211499      2.3938301384      4.8923711886 
  C111          0.7388431344      3.4716410221      5.5695469532 
  C112          2.2897204136      1.9910085932      6.6569595034 
  H113          2.1424320905     -0.0929057500      6.1286478985 
  H114         -0.6286833482      2.5450074537      4.1717405584 
  H115          0.3527836247      4.4736532333      5.3838965453 
  H116          3.1310446203      1.8248728940      7.3284536070 
  H117          2.2440019944      4.1314028850      6.9801850046 
  Na119        -2.0629831442      0.4430122592      5.6989022154 
  Br3          -3.1830921975      1.4208777318      3.3192988805 
   
  principal moments of inertia:
        amu*angstrom^2:              5388.43937              6238.71322              7892.10496
                g*cm^2:          8.94771298E-37          1.03596257E-36          1.31051470E-36
   
  rotational constants:
               cm^(-1):      0.00312848      0.00270210      0.00213601
                   GHz:      0.09378949      0.08100693      0.06403602
   
  Molecular weight:     707.09 amu
   
  Stoichiometry: NaPdC33PNH39BrF
  Molecular Point Group: C1      
  Point Group used: C1
  
 
Number of optimization coordinates:   262
Number of independent coordinates:    262
Number of non-redundant coordinates:  228
Number of frozen coordinates:           0
Number of harmonic constraints:         0
 
Number of geometric degrees of freedom:   228
Maximum geometric degrees of freedom:     228
 " " " " " excluding dummy atoms:         228
 
 
  bond lengths (angstroms):
 
 P1      -Pd2     :   2.344524      P1      -C3      :   1.848225
 P1      -C4      :   1.912853      P1      -C5      :   1.914352
 Pd2     -C76     :   1.995592      Pd2     -N104    :   2.103217
 C73     -C74     :   1.388129      C73     -C78     :   1.386842
 C73     -F79     :   1.351180      C74     -C75     :   1.395616
 C74     -H80     :   1.086808      C75     -C76     :   1.400145
 C75     -H14     :   1.085851      C76     -C77     :   1.396925
 C77     -C78     :   1.398024      C77     -H82     :   1.086111
 C78     -H83     :   1.086803      C3      -C12     :   1.406451
 C3      -C16     :   1.408198      C4      -C17     :   1.535713
 C4      -C18     :   1.538736      C4      -C19     :   1.534641
 C5      -C20     :   1.538340      C5      -C21     :   1.536036
 C5      -C22     :   1.539339      C6      -C7      :   1.424740
 C6      -C11     :   1.412308      C6      -C12     :   1.498488
 C7      -C8      :   1.391017      C7      -C23     :   1.505325
 C8      -C9      :   1.397395      C8      -H24     :   1.087884
 C9      -C10     :   1.388043      C9      -H25     :   1.086940
 C10     -C11     :   1.395092      C10     -H26     :   1.086488
 C11     -H27     :   1.086031      C12     -C13     :   1.405655
 C13     -C14     :   1.388445      C13     -H28     :   1.087730
 C14     -C15     :   1.394146      C14     -H29     :   1.087498
 C15     -C16     :   1.389778      C15     -H30     :   1.087618
 C16     -H31     :   1.081365      C17     -H32     :   1.091667
 C17     -H33     :   1.098061      C17     -H34     :   1.094019
 C18     -H35     :   1.095496      C18     -H36     :   1.095417
 C18     -H37     :   1.098180      C19     -H38     :   1.094858
 C19     -H39     :   1.098592      C19     -H40     :   1.093797
 C20     -H41     :   1.096039      C20     -H42     :   1.094150
 C20     -H43     :   1.098091      C21     -H44     :   1.092606
 C21     -H45     :   1.098493      C21     -H46     :   1.095568
 C22     -H47     :   1.088446      C22     -H48     :   1.092428
 C22     -H49     :   1.098078      C23     -H50     :   1.097148
 C23     -H51     :   1.095582      C23     -H52     :   1.094909
 N104    -H105    :   1.020793      N104    -C107    :   1.396581
 N104    -Na119   :   2.481579      C107    -C109    :   1.410959
 C107    -C110    :   1.414785      C108    -C111    :   1.397877
 C108    -C112    :   1.398020      C108    -H117    :   1.087636
 C109    -C112    :   1.391780      C109    -H113    :   1.089775
 C110    -C111    :   1.392495      C110    -H114    :   1.089412
 C111    -H115    :   1.089741      C112    -H116    :   1.089189
 Na119   -Br3     :   2.805954
 
  bond angles:
 
 C3      -P1      -Pd2     : 105.116879  C4      -P1      -Pd2     : 111.976360
 C4      -P1      -C3      : 105.997112  C5      -P1      -Pd2     : 115.935469
 C5      -P1      -C3      : 103.483848  C5      -P1      -C4      : 113.082669
 C76     -Pd2     -P1      :  94.131495  N104    -Pd2     -P1      : 179.044993
 N104    -Pd2     -C76     :  84.945839  C78     -C73     -C74     : 121.828164
 F79     -C73     -C74     : 119.059610  F79     -C73     -C78     : 119.106877
 C75     -C74     -C73     : 118.786040  H80     -C74     -C73     : 119.728669
 H80     -C74     -C75     : 121.484486  C76     -C75     -C74     : 120.694982
 H14     -C75     -C74     : 118.752119  H14     -C75     -C76     : 120.549209
 C75     -C76     -Pd2     : 119.020278  C77     -C76     -Pd2     : 121.740892
 C77     -C76     -C75     : 119.118121  C78     -C77     -C76     : 120.653911
 H82     -C77     -C76     : 120.599563  H82     -C77     -C78     : 118.739707
 C77     -C78     -C73     : 118.815189  H83     -C78     -C73     : 119.716090
 H83     -C78     -C77     : 121.465334  C12     -C3      -P1      : 119.141717
 C16     -C3      -P1      : 122.573192  C16     -C3      -C12     : 118.199564
 C17     -C4      -P1      : 110.309113  C18     -C4      -P1      : 105.445492
 C18     -C4      -C17     : 109.540519  C19     -C4      -P1      : 115.439866
 C19     -C4      -C17     : 108.160519  C19     -C4      -C18     : 107.799614
 C20     -C5      -P1      : 103.922197  C21     -C5      -P1      : 115.589968
 C21     -C5      -C20     : 108.430129  C22     -C5      -P1      : 111.998033
 C22     -C5      -C20     : 109.460384  C22     -C5      -C21     : 107.273978
 C11     -C6      -C7      : 118.965046  C12     -C6      -C7      : 120.577640
 C12     -C6      -C11     : 117.061044  C8      -C7      -C6      : 118.532126
 C23     -C7      -C6      : 120.656497  C23     -C7      -C8      : 120.809915
 C9      -C8      -C7      : 121.703300  H24     -C8      -C7      : 118.982294
 H24     -C8      -C9      : 119.306885  C10     -C9      -C8      : 120.178395
 H25     -C9      -C8      : 119.628511  H25     -C9      -C10     : 120.169683
 C11     -C10     -C9      : 119.313298  H26     -C10     -C9      : 120.753608
 H26     -C10     -C11     : 119.930329  C10     -C11     -C6      : 121.213983
 H27     -C11     -C6      : 118.602223  H27     -C11     -C10     : 119.829472
 C6      -C12     -C3      : 125.957636  C13     -C12     -C3      : 119.297593
 C13     -C12     -C6      : 114.489202  C14     -C13     -C12     : 121.720509
 H28     -C13     -C12     : 118.339460  H28     -C13     -C14     : 119.925002
 C15     -C14     -C13     : 119.149091  H29     -C14     -C13     : 120.132406
 H29     -C14     -C15     : 120.706635  C16     -C15     -C14     : 119.750047
 H30     -C15     -C14     : 120.601246  H30     -C15     -C16     : 119.648619
 C15     -C16     -C3      : 121.831192  H31     -C16     -C3      : 120.179341
 H31     -C16     -C15     : 117.989254  H32     -C17     -C4      : 113.093147
 H33     -C17     -C4      : 108.697611  H33     -C17     -H32     : 107.851764
 H34     -C17     -C4      : 111.374170  H34     -C17     -H32     : 108.362252
 H34     -C17     -H33     : 107.241519  H35     -C18     -C4      : 112.347178
 H36     -C18     -C4      : 111.288452  H36     -C18     -H35     : 108.052256
 H37     -C18     -C4      : 109.249860  H37     -C18     -H35     : 108.304136
 H37     -C18     -H36     : 107.435457  H38     -C19     -C4      : 112.769134
 H39     -C19     -C4      : 108.141597  H39     -C19     -H38     : 106.981867
 H40     -C19     -C4      : 112.322148  H40     -C19     -H38     : 108.907169
 H40     -C19     -H39     : 107.441342  H41     -C20     -C5      : 111.593065
 H42     -C20     -C5      : 111.601215  H42     -C20     -H41     : 108.601239
 H43     -C20     -C5      : 109.188746  H43     -C20     -H41     : 107.713668
 H43     -C20     -H42     : 108.002701  H44     -C21     -C5      : 112.605900
 H45     -C21     -C5      : 108.010392  H45     -C21     -H44     : 107.059461
 H46     -C21     -C5      : 112.610995  H46     -C21     -H44     : 109.223370
 H46     -C21     -H45     : 107.019209  H47     -C22     -C5      : 113.527291
 H48     -C22     -C5      : 111.725293  H48     -C22     -H47     : 108.669241
 H49     -C22     -C5      : 108.040699  H49     -C22     -H47     : 107.466305
 H49     -C22     -H48     : 107.130636  H50     -C23     -C7      : 112.018031
 H51     -C23     -C7      : 110.338499  H51     -C23     -H50     : 107.039687
 H52     -C23     -C7      : 111.059327  H52     -C23     -H50     : 108.185718
 H52     -C23     -H51     : 108.026725  H105    -N104    -Pd2     : 102.427975
 C107    -N104    -Pd2     : 118.208584  C107    -N104    -H105    : 108.487798
 Na119   -N104    -Pd2     : 119.386857  Na119   -N104    -H105    : 118.319786
 Na119   -N104    -C107    :  90.237256  C109    -C107    -N104    : 122.542486
 C110    -C107    -N104    : 119.932306  C110    -C107    -C109    : 117.501730
 C112    -C108    -C111    : 118.607650  H117    -C108    -C111    : 120.727032
 H117    -C108    -C112    : 120.652655  C112    -C109    -C107    : 121.109652
 H113    -C109    -C107    : 118.814655  H113    -C109    -C112    : 120.046190
 C111    -C110    -C107    : 120.904633  H114    -C110    -C107    : 118.202765
 H114    -C110    -C111    : 120.871316  C110    -C111    -C108    : 120.973939
 H115    -C111    -C108    : 119.994206  H115    -C111    -C110    : 119.026131
 C109    -C112    -C108    : 120.893445  H116    -C112    -C108    : 119.908538
 H116    -C112    -C109    : 119.193332  Br3     -Na119   -N104    :  88.353850
 
  torsional angles:
 
 P1      -Pd2     -C76     -C75     : 100.101839
 P1      -Pd2     -C76     -C77     : -83.928870
 P1      -Pd2     -N104    -H105    : -66.857071
 P1      -Pd2     -N104    -C107    :  52.265625
 P1      -Pd2     -N104    -Na119   : 160.172455
 P1      -C3      -C12     -C6      : -11.775548
 P1      -C3      -C12     -C13     : 174.368736
 P1      -C3      -C16     -C15     :-174.533115
 P1      -C3      -C16     -H31     :   5.295278
 P1      -C4      -C17     -H32     :  43.552166
 P1      -C4      -C17     -H33     : 163.296794
 P1      -C4      -C17     -H34     : -78.767419
 P1      -C4      -C18     -H35     : -57.359164
 P1      -C4      -C18     -H36     :  63.957422
 P1      -C4      -C18     -H37     :-177.573173
 P1      -C4      -C19     -H38     :  61.302592
 P1      -C4      -C19     -H39     : 179.391947
 P1      -C4      -C19     -H40     : -62.216965
 P1      -C5      -C20     -H41     : -60.179300
 P1      -C5      -C20     -H42     :  61.534829
 P1      -C5      -C20     -H43     :-179.140365
 P1      -C5      -C21     -H44     :  67.308346
 P1      -C5      -C21     -H45     :-174.688135
 P1      -C5      -C21     -H46     : -56.731252
 P1      -C5      -C22     -H47     : -41.038724
 P1      -C5      -C22     -H48     :  82.280505
 P1      -C5      -C22     -H49     :-160.122597
 Pd2     -P1      -C3      -C12     :  16.705128
 Pd2     -P1      -C3      -C16     :-166.720365
 Pd2     -P1      -C4      -C17     :-164.628675
 Pd2     -P1      -C4      -C18     : -46.447296
 Pd2     -P1      -C4      -C19     :  72.409924
 Pd2     -P1      -C5      -C20     : -93.875647
 Pd2     -P1      -C5      -C21     : 147.448405
 Pd2     -P1      -C5      -C22     :  24.180189
 Pd2     -C76     -C75     -C74     : 179.318330
 Pd2     -C76     -C75     -H14     :   0.025842
 Pd2     -C76     -C77     -C78     :-179.501083
 Pd2     -C76     -C77     -H82     :  -0.463083
 Pd2     -N104    -C107    -C109    :-121.852904
 Pd2     -N104    -C107    -C110    :  59.954425
 Pd2     -N104    -Na119   -Br3     : -15.424661
 C73     -C74     -C75     -C76     :  -0.726754
 C73     -C74     -C75     -H14     : 178.578256
 C73     -C78     -C77     -C76     :   1.310696
 C73     -C78     -C77     -H82     :-177.744934
 C74     -C73     -C78     -C77     :   1.291073
 C74     -C73     -C78     -H83     :-178.049371
 C74     -C75     -C76     -C77     :   3.241909
 C75     -C74     -C73     -C78     :  -1.578611
 C75     -C74     -C73     -F79     : 179.270542
 C75     -C76     -Pd2     -N104    : -79.650938
 C75     -C76     -C77     -C78     :  -3.535626
 C75     -C76     -C77     -H82     : 175.502373
 C76     -Pd2     -P1      -C3      :  91.551010
 C76     -Pd2     -P1      -C4      : -23.084724
 C76     -Pd2     -P1      -C5      :-154.873530
 C76     -Pd2     -N104    -H105    : -51.893267
 C76     -Pd2     -N104    -C107    :  67.229428
 C76     -Pd2     -N104    -Na119   : 175.136258
 C76     -C75     -C74     -H80     : 179.600812
 C76     -C77     -C78     -H83     :-179.360874
 C77     -C76     -Pd2     -N104    :  96.318353
 C77     -C76     -C75     -H14     :-176.050579
 C77     -C78     -C73     -F79     :-179.558469
 C78     -C73     -C74     -H80     : 178.099709
 F79     -C73     -C74     -H80     :  -1.051138
 F79     -C73     -C78     -H83     :   1.101086
 H80     -C74     -C75     -H14     :  -1.094178
 H82     -C77     -C78     -H83     :   1.583497
 C3      -P1      -Pd2     -N104    : 106.495017
 C3      -P1      -C4      -C17     :  81.276688
 C3      -P1      -C4      -C18     :-160.541932
 C3      -P1      -C4      -C19     : -41.684713
 C3      -P1      -C5      -C20     :  20.632960
 C3      -P1      -C5      -C21     : -98.042988
 C3      -P1      -C5      -C22     : 138.688797
 C3      -C12     -C6      -C7      : 105.777969
 C3      -C12     -C6      -C11     : -95.234046
 C3      -C12     -C13     -C14     :   0.802333
 C3      -C12     -C13     -H28     : 179.390414
 C3      -C16     -C15     -C14     :  -0.153059
 C3      -C16     -C15     -H30     : 179.740032
 C4      -P1      -Pd2     -N104    :  -8.140717
 C4      -P1      -C3      -C12     : 135.436219
 C4      -P1      -C3      -C16     : -47.989274
 C4      -P1      -C5      -C20     : 134.853728
 C4      -P1      -C5      -C21     :  16.177780
 C4      -P1      -C5      -C22     :-107.090436
 C5      -P1      -Pd2     -N104    :-139.929523
 C5      -P1      -C3      -C12     :-105.344297
 C5      -P1      -C3      -C16     :  71.230210
 C5      -P1      -C4      -C17     : -31.420181
 C5      -P1      -C4      -C18     :  86.761198
 C5      -P1      -C4      -C19     :-154.381582
 C6      -C7      -C8      -C9      :   0.290054
 C6      -C7      -C8      -H24     : 179.285148
 C6      -C7      -C23     -H50     :  63.806142
 C6      -C7      -C23     -H51     : -55.337607
 C6      -C7      -C23     -H52     :-175.098870
 C6      -C11     -C10     -C9      :  -0.796455
 C6      -C11     -C10     -H26     : 179.803905
 C6      -C12     -C3      -C16     : 171.499735
 C6      -C12     -C13     -C14     :-173.734714
 C6      -C12     -C13     -H28     :   4.853366
 C7      -C6      -C11     -C10     :   3.084391
 C7      -C6      -C11     -H27     : 176.237356
 C7      -C6      -C12     -C13     : -80.109167
 C7      -C8      -C9      -C10     :   2.033696
 C7      -C8      -C9      -H25     :-179.723080
 C8      -C7      -C6      -C11     :  -2.787609
 C8      -C7      -C6      -C12     : 155.807276
 C8      -C7      -C23     -H50     :-115.747407
 C8      -C7      -C23     -H51     : 125.108844
 C8      -C7      -C23     -H52     :   5.347581
 C8      -C9      -C10     -C11     :  -1.767401
 C8      -C9      -C10     -H26     : 177.627168
 C9      -C8      -C7      -C23     : 179.852907
 C9      -C10     -C11     -H27     :-173.866501
 C10     -C9      -C8      -H24     :-176.958218
 C10     -C11     -C6      -C12     :-156.254702
 C11     -C6      -C7      -C23     : 177.648842
 C11     -C6      -C12     -C13     :  78.878818
 C11     -C10     -C9      -H25     : 179.998945
 C12     -C3      -C16     -C15     :   2.072092
 C12     -C3      -C16     -H31     :-178.099515
 C12     -C6      -C7      -C23     : -23.756272
 C12     -C6      -C11     -H27     :  16.898263
 C12     -C13     -C14     -C15     :   1.141261
 C12     -C13     -C14     -H29     : 179.897071
 C13     -C12     -C3      -C16     :  -2.355980
 C13     -C14     -C15     -C16     :  -1.459920
 C13     -C14     -C15     -H30     : 178.648025
 C14     -C15     -C16     -H31     :-179.985063
 C15     -C14     -C13     -H28     :-177.424868
 C16     -C15     -C14     -H29     : 179.791615
 C17     -C4      -C18     -H35     :  61.336658
 C17     -C4      -C18     -H36     :-177.346757
 C17     -C4      -C18     -H37     : -58.877352
 C17     -C4      -C19     -H38     : -62.790386
 C17     -C4      -C19     -H39     :  55.298969
 C17     -C4      -C19     -H40     : 173.690056
 C18     -C4      -C17     -H32     : -72.085679
 C18     -C4      -C17     -H33     :  47.658949
 C18     -C4      -C17     -H34     : 165.594736
 C18     -C4      -C19     -H38     : 178.849063
 C18     -C4      -C19     -H39     : -63.061582
 C18     -C4      -C19     -H40     :  55.329506
 C19     -C4      -C17     -H32     : 170.669408
 C19     -C4      -C17     -H33     : -69.585964
 C19     -C4      -C17     -H34     :  48.349823
 C19     -C4      -C18     -H35     : 178.807936
 C19     -C4      -C18     -H36     : -59.875479
 C19     -C4      -C18     -H37     :  58.593926
 C20     -C5      -C21     -H44     : -48.845622
 C20     -C5      -C21     -H45     :  69.157897
 C20     -C5      -C21     -H46     :-172.885220
 C20     -C5      -C22     -H47     :  73.667372
 C20     -C5      -C22     -H48     :-163.013399
 C20     -C5      -C22     -H49     : -45.416501
 C21     -C5      -C20     -H41     :  63.301952
 C21     -C5      -C20     -H42     :-174.983920
 C21     -C5      -C20     -H43     : -55.659114
 C21     -C5      -C22     -H47     :-168.879784
 C21     -C5      -C22     -H48     : -45.560555
 C21     -C5      -C22     -H49     :  72.036343
 C22     -C5      -C20     -H41     :-179.973221
 C22     -C5      -C20     -H42     : -58.259093
 C22     -C5      -C20     -H43     :  61.065713
 C22     -C5      -C21     -H44     :-166.969553
 C22     -C5      -C21     -H45     : -48.966034
 C22     -C5      -C21     -H46     :  68.990849
 C23     -C7      -C8      -H24     :  -1.151999
 H24     -C8      -C9      -H25     :   1.285006
 H25     -C9      -C10     -H26     :  -0.606485
 H26     -C10     -C11     -H27     :   6.733859
 H28     -C13     -C14     -H29     :   1.330941
 H29     -C14     -C15     -H30     :  -0.100440
 H30     -C15     -C16     -H31     :  -0.091972
 N104    -C107    -C109    -C112    :-177.574046
 N104    -C107    -C109    -H113    :   4.401054
 N104    -C107    -C110    -C111    : 177.353756
 N104    -C107    -C110    -H114    :  -4.310160
 H105    -N104    -C107    -C109    :  -5.949655
 H105    -N104    -C107    -C110    : 175.857674
 H105    -N104    -Na119   -Br3     :-141.161331
 C107    -N104    -Na119   -Br3     : 107.587921
 C107    -C109    -C112    -C108    :   0.192149
 C107    -C109    -C112    -H116    :-179.019700
 C107    -C110    -C111    -C108    :   0.352287
 C107    -C110    -C111    -H115    : 179.481821
 C108    -C111    -C110    -H114    :-177.939276
 C108    -C112    -C109    -H113    : 178.192941
 C109    -C107    -N104    -Na119   : 114.156004
 C109    -C107    -C110    -C111    :  -0.928604
 C109    -C107    -C110    -H114    : 177.407480
 C109    -C112    -C108    -C111    :  -0.785515
 C109    -C112    -C108    -H117    :-179.500421
 C110    -C107    -N104    -Na119   : -64.036667
 C110    -C107    -C109    -C112    :   0.660166
 C110    -C107    -C109    -H113    :-177.364733
 C110    -C111    -C108    -C112    :   0.514811
 C110    -C111    -C108    -H117    : 179.228726
 C111    -C108    -C112    -H116    : 178.420736
 C112    -C108    -C111    -H115    :-178.606357
 H113    -C109    -C112    -H116    :  -1.018909
 H114    -C110    -C111    -H115    :   1.190257
 H115    -C111    -C108    -H117    :   0.107558
 H116    -C112    -C108    -H117    :  -0.294169
 
  nuclear repulsion energy.......          5525.405653197 hartrees
  
  Detected an organometallic with only one TM atom. 
  
  Oxidation state on metal       2 is     2
  Formal multiplet on metal      2 is     1
  Formal charge on ligand        3 is    -1
  Formal multiplet on ligand     3 is     1
  Formal charge on ligand        4 is    -1
  Formal multiplet on ligand     4 is     1
  
 
  Will use High-Quality Initial guess for organometallics
       including d-d repulsion (iguess=30)
 
 Non-default options chosen:
   SCF calculation type: DFT(b3pw91-d3)              
   DFT=Becke_3_Parameter/HF+Slater+Becke88+PW91+PW-GGAIIC (B3PW91-D3)
   Geometry will be optimized in redundant internal coordinates
   Solvation energy will be computed using PBF
     -solute cavity energy will not be included
     -surface area terms will not be included
   Vibrational frequencies and related properties will be computed
      from analytic second derivatives
   IR intensities will be computed
   Thermochemical properties will be computed
   Maximum number of geometry steps: 100
   Scaling standard convergence criteria by a factor of   5.00
   Solvent: benzene                                                         
   Internal dielectric constant:    1.000
   Continuum dielectric constant:   2.283
   Solvent probe molecule radius:   2.600
  
 Non-default print settings:
     11=  2
  
 Temporary integer options set:
     21= -1  73=  2
  
  atom       vdw   vdw2    cov     mass  grid  daf  charge   basis
  P1        2.147  2.074  1.060   30.974    Y    Y      Y    ps_6-31g*
  Pd2       1.450  1.450  1.280  105.903    Y    Y      Y    lacv3p*
  C73       1.949  1.900  0.770   12.000    Y    Y      Y    ps_6-31g*
  C74       1.949  1.900  0.770   12.000    Y    Y      Y    ps_6-31g*
  C75       1.949  1.900  0.770   12.000    Y    Y      Y    ps_6-31g*
  C76       1.949  1.900  0.770   12.000    Y    Y      Y    ps_6-31g*
  C77       1.949  1.900  0.770   12.000    Y    Y      Y    ps_6-31g*
  C78       1.949  1.900  0.770   12.000    Y    Y      Y    ps_6-31g*
  F79       1.736  1.682  0.720   18.998    Y    Y      Y    ps_6-31g*
  H80       1.597  1.150  0.320    1.008    Y    Y      Y    ps_6-31g*
  H82       1.597  1.150  0.320    1.008    Y    Y      Y    ps_6-31g*
  H83       1.597  1.150  0.320    1.008    Y    Y      Y    ps_6-31g*
  H14       1.597  1.150  0.320    1.008    Y    Y      Y    ps_6-31g*
  C3        1.949  1.900  0.770   12.000    Y    Y      Y    ps_6-31g*
  C4        1.949  1.900  0.770   12.000    Y    Y      Y    ps_6-31g*
  C5        1.949  1.900  0.770   12.000    Y    Y      Y    ps_6-31g*
  C6        1.949  1.900  0.770   12.000    Y    Y      Y    ps_6-31g*
  C7        1.949  1.900  0.770   12.000    Y    Y      Y    ps_6-31g*
  C8        1.949  1.900  0.770   12.000    Y    Y      Y    ps_6-31g*
  C9        1.949  1.900  0.770   12.000    Y    Y      Y    ps_6-31g*
  C10       1.949  1.900  0.770   12.000    Y    Y      Y    ps_6-31g*
  C11       1.949  1.900  0.770   12.000    Y    Y      Y    ps_6-31g*
  C12       1.949  1.900  0.770   12.000    Y    Y      Y    ps_6-31g*
  C13       1.949  1.900  0.770   12.000    Y    Y      Y    ps_6-31g*
  C14       1.949  1.900  0.770   12.000    Y    Y      Y    ps_6-31g*
  C15       1.949  1.900  0.770   12.000    Y    Y      Y    ps_6-31g*
  C16       1.949  1.900  0.770   12.000    Y    Y      Y    ps_6-31g*
  C17       1.949  1.900  0.770   12.000    Y    Y      Y    ps_6-31g*
  C18       1.949  1.900  0.770   12.000    Y    Y      Y    ps_6-31g*
  C19       1.949  1.900  0.770   12.000    Y    Y      Y    ps_6-31g*
  C20       1.949  1.900  0.770   12.000    Y    Y      Y    ps_6-31g*
  C21       1.949  1.900  0.770   12.000    Y    Y      Y    ps_6-31g*
  C22       1.949  1.900  0.770   12.000    Y    Y      Y    ps_6-31g*
  C23       1.949  1.900  0.770   12.000    Y    Y      Y    ps_6-31g*
  H24       1.597  1.150  0.320    1.008    Y    Y      Y    ps_6-31g*
  H25       1.597  1.150  0.320    1.008    Y    Y      Y    ps_6-31g*
  H26       1.597  1.150  0.320    1.008    Y    Y      Y    ps_6-31g*
  H27       1.597  1.150  0.320    1.008    Y    Y      Y    ps_6-31g*
  H28       1.597  1.150  0.320    1.008    Y    Y      Y    ps_6-31g*
  H29       1.597  1.150  0.320    1.008    Y    Y      Y    ps_6-31g*
  H30       1.597  1.150  0.320    1.008    Y    Y      Y    ps_6-31g*
  H31       1.597  1.150  0.320    1.008    Y    Y      Y    ps_6-31g*
  H32       1.597  1.150  0.320    1.008    Y    Y      Y    ps_6-31g*
  H33       1.597  1.150  0.320    1.008    Y    Y      Y    ps_6-31g*
  H34       1.597  1.150  0.320    1.008    Y    Y      Y    ps_6-31g*
  H35       1.597  1.150  0.320    1.008    Y    Y      Y    ps_6-31g*
  H36       1.597  1.150  0.320    1.008    Y    Y      Y    ps_6-31g*
  H37       1.597  1.150  0.320    1.008    Y    Y      Y    ps_6-31g*
  H38       1.597  1.150  0.320    1.008    Y    Y      Y    ps_6-31g*
  H39       1.597  1.150  0.320    1.008    Y    Y      Y    ps_6-31g*
  H40       1.597  1.150  0.320    1.008    Y    Y      Y    ps_6-31g*
  H41       1.597  1.150  0.320    1.008    Y    Y      Y    ps_6-31g*
  H42       1.597  1.150  0.320    1.008    Y    Y      Y    ps_6-31g*
  H43       1.597  1.150  0.320    1.008    Y    Y      Y    ps_6-31g*
  H44       1.597  1.150  0.320    1.008    Y    Y      Y    ps_6-31g*
  H45       1.597  1.150  0.320    1.008    Y    Y      Y    ps_6-31g*
  H46       1.597  1.150  0.320    1.008    Y    Y      Y    ps_6-31g*
  H47       1.597  1.150  0.320    1.008    Y    Y      Y    ps_6-31g*
  H48       1.597  1.150  0.320    1.008    Y    Y      Y    ps_6-31g*
  H49       1.597  1.150  0.320    1.008    Y    Y      Y    ps_6-31g*
  H50       1.597  1.150  0.320    1.008    Y    Y      Y    ps_6-31g*
  H51       1.597  1.150  0.320    1.008    Y    Y      Y    ps_6-31g*
  H52       1.597  1.150  0.320    1.008    Y    Y      Y    ps_6-31g*
  N104      1.831  1.600  0.750   14.003    Y    Y      Y    ps_6-31g*
  H105      1.597  1.150  0.320    1.008    Y    Y      Y    ps_6-31g*
  C107      1.949  1.900  0.770   12.000    Y    Y      Y    ps_6-31g*
  C108      1.949  1.900  0.770   12.000    Y    Y      Y    ps_6-31g*
  C109      1.949  1.900  0.770   12.000    Y    Y      Y    ps_6-31g*
  C110      1.949  1.900  0.770   12.000    Y    Y      Y    ps_6-31g*
  C111      1.949  1.900  0.770   12.000    Y    Y      Y    ps_6-31g*
  C112      1.949  1.900  0.770   12.000    Y    Y      Y    ps_6-31g*
  H113      1.597  1.150  0.320    1.008    Y    Y      Y    ps_6-31g*
  H114      1.597  1.150  0.320    1.008    Y    Y      Y    ps_6-31g*
  H115      1.597  1.150  0.320    1.008    Y    Y      Y    ps_6-31g*
  H116      1.597  1.150  0.320    1.008    Y    Y      Y    ps_6-31g*
  H117      1.597  1.150  0.320    1.008    Y    Y      Y    ps_6-31g*
  Na119     2.308  1.492  1.540   22.990    Y    Y      Y    ps_6-31g*
  Br3       2.095  2.095  1.140   78.918    Y    Y      Y    lav3p*
 
  atom      formal  2spin      esp    mulk    frag
  P1           0       0        Y    0.000       0
  Pd2          2       0        Y    0.000       0
  C73         -1       0        Y    0.000       0
  N104        -1       0        Y    0.000       0
  
  end of program pre
   
 Time(pre)  user:       4.624  user+sys:       4.624  wallclock:       1.007
  
  start of program onee
  
  smallest eigenvalue of S:    3.922E-04
  number of canonical orbitals.....          640
  end of program onee
   
 Time(onee)  user:      12.215  user+sys:      12.215  wallclock:       2.440
  
  start of program hfig
  
  initial wavefunction generated automatically from atomic wavefunctions
  Only one state below 0.010000
  Skip d-d repulsion considerations 
 
  Irreducible     Total no   No of occupied orbitals 
  representation  orbitals   Shell_1  Shell_2    ...
  No Symm          640        152
  ------------------------
  Orbital occupation/shell    1.000
 
  end of program hfig
   
 Time(hfig)  user:       2.559  user+sys:       2.559  wallclock:       1.121
  
  start of program probe
  
  end of program probe
   
 Time(probe)  user:       1.447  user+sys:       1.447  wallclock:       0.445
  
  start of program grid
  
   grid     grid set  grid #  grid sym
  ------    --------  ------  --------
  coarse        0        0        1
  medium        2        1        1
  fine          0        0        1
  ultrafine     4        2        1
  charge       -1        3        1
  gradient      4        2        1
  density       0        0        1
  DFT-fine    -11        4        1
  DFT-med.    -10        5        1
  DFT-grad    -12        6        1
  DFT-der2     -8        7        1
  DFT-cphf     -9        8        1
  LMP2-enrg     4        2        1
  LMP2-grad     2        1        1
  DFT-cphf2   -15        9        1
  PBF-dens      0        0        1
  plotting      0        0        1
  Rel-grad    -17        0        1
  
  number of gridpoints: 
     atom           P1         Pd2         C73         C74         C75         C76         C77
  grid # 1         614         355          77          92          93          99          94
  grid # 2         430         304         331         319         306         382         316
  grid # 3           9         213          27          18           7           7          13
  grid # 4        8582        8582        8582        8582        8582        8582        8582
  grid # 5        1192        1192        1192        1192        1192        1192        1192
  grid # 6        9488        9488        6164        6164        6164        6164        6164
  grid # 7       23054       32756       14018       14018       14018       14018       14018
  grid # 8         724        1144         750         750         750         750         750
  grid # 9         380        2168         406         406         406         406         406
   
  number of gridpoints: 
     atom          C78         F79         H80         H82         H83         H14          C3
  grid # 1          92         584         113          92         114         108          93
  grid # 2         319         566         462         384         463         435         380
  grid # 3          19         358         366          70         393         149          10
  grid # 4        8582        8582        8582        8582        8582        8582        8582
  grid # 5        1192        1192        1192        1192        1192        1192        1192
  grid # 6        6164        6164        6164        6164        6164        6164        6164
  grid # 7       14018       23160       15170       15170       15170       15170       14018
  grid # 8         750         778         792         792         792         792         750
  grid # 9         406         424         420         420         420         420         406
   
  number of gridpoints: 
     atom           C4          C5          C6          C7          C8          C9         C10
  grid # 1          88          87          97          98          95          95          96
  grid # 2         366         367         356         360         325         323         318
  grid # 3           6           6           7          13          22          27          21
  grid # 4        8582        8582        8582        8582        8582        8582        8582
  grid # 5        1192        1192        1192        1192        1192        1192        1192
  grid # 6        6164        6164        6164        6164        6164        6164        6164
  grid # 7       14018       14018       14018       14018       14018       14018       14018
  grid # 8         750         750         750         750         750         750         750
  grid # 9         406         406         406         406         406         406         406
   
  number of gridpoints: 
     atom          C11         C12         C13         C14         C15         C16         C17
  grid # 1          94          98          95          96          95          94          79
  grid # 2         319         355         325         323         323         322         240
  grid # 3          11          11          23          44          29          12           6
  grid # 4        8582        8582        8582        8582        8582        8582        8582
  grid # 5        1192        1192        1192        1192        1192        1192        1192
  grid # 6        6164        6164        6164        6164        6164        6164        6164
  grid # 7       14018       14018       14018       14018       14018       14018       14018
  grid # 8         750         750         750         750         750         750         750
  grid # 9         406         406         406         406         406         406         406
   
  number of gridpoints: 
     atom          C18         C19         C20         C21         C22         C23         H24
  grid # 1          80          80          78          81          81          81         111
  grid # 2         235         237         241         235         237         234         450
  grid # 3           6           6           6           6           6           6         234
  grid # 4        8582        8582        8582        8582        8582        8582        8582
  grid # 5        1192        1192        1192        1192        1192        1192        1192
  grid # 6        6164        6164        6164        6164        6164        6164        6164
  grid # 7       14018       14018       14018       14018       14018       14018       15170
  grid # 8         750         750         750         750         750         750         792
  grid # 9         406         406         406         406         406         406         420
   
  number of gridpoints: 
     atom          H25         H26         H27         H28         H29         H30         H31
  grid # 1         116         117          90         115         118         118         104
  grid # 2         464         458         386         457         468         466         427
  grid # 3         334         339         150         313         426         418         118
  grid # 4        8582        8582        8582        8582        8582        8582        8582
  grid # 5        1192        1192        1192        1192        1192        1192        1192
  grid # 6        6164        6164        6164        6164        6164        6164        6164
  grid # 7       15170       15170       15170       15170       15170       15170       15170
  grid # 8         792         792         792         792         792         792         792
  grid # 9         420         420         420         420         420         420         420
   
  number of gridpoints: 
     atom          H32         H33         H34         H35         H36         H37         H38
  grid # 1          88         107         101         106          96         107         105
  grid # 2         384         446         425         445         401         442         441
  grid # 3          67         267         173         198          37         247         213
  grid # 4        8582        8582        8582        8582        8582        8582        8582
  grid # 5        1192        1192        1192        1192        1192        1192        1192
  grid # 6        6164        6164        6164        6164        6164        6164        6164
  grid # 7       15170       15170       15170       15170       15170       15170       15170
  grid # 8         792         792         792         792         792         792         792
  grid # 9         420         420         420         420         420         420         420
   
  number of gridpoints: 
     atom          H39         H40         H41         H42         H43         H44         H45
  grid # 1         109          99         102          91         109         103         109
  grid # 2         446         411         430         392         447         432         446
  grid # 3         256          63         152          50         268         187         264
  grid # 4        8582        8582        8582        8582        8582        8582        8582
  grid # 5        1192        1192        1192        1192        1192        1192        1192
  grid # 6        6164        6164        6164        6164        6164        6164        6164
  grid # 7       15170       15170       15170       15170       15170       15170       15170
  grid # 8         792         792         792         792         792         792         792
  grid # 9         420         420         420         420         420         420         420
   
  number of gridpoints: 
     atom          H46         H47         H48         H49         H50         H51         H52
  grid # 1          99          97         107         108         108          95         108
  grid # 2         409         425         444         446         442         396         446
  grid # 3         155          48         239         244         261          36         232
  grid # 4        8582        8582        8582        8582        8582        8582        8582
  grid # 5        1192        1192        1192        1192        1192        1192        1192
  grid # 6        6164        6164        6164        6164        6164        6164        6164
  grid # 7       15170       15170       15170       15170       15170       15170       15170
  grid # 8         792         792         792         792         792         792         792
  grid # 9         420         420         420         420         420         420         420
   
  number of gridpoints: 
     atom         N104        H105        C107        C108        C109        C110        C111
  grid # 1         103         103          92          96          95          95          95
  grid # 2         376         412         345         324         326         323         324
  grid # 3           6          57           7          34          17           7          21
  grid # 4        8582        8582        8582        8582        8582        8582        8582
  grid # 5        1192        1192        1192        1192        1192        1192        1192
  grid # 6        6164        6164        6164        6164        6164        6164        6164
  grid # 7       14142       15170       14018       14018       14018       14018       14018
  grid # 8         778         792         750         750         750         750         750
  grid # 9         416         420         406         406         406         406         406
   
  number of gridpoints: 
     atom         C112        H113        H114        H115        H116        H117       Na119
  grid # 1          96         114         107         118         117         118         707
  grid # 2         327         455         446         466         466         466         681
  grid # 3          30         278         136         400         403         425         306
  grid # 4        8582        8582        8582        8582        8582        8582        8582
  grid # 5        1192        1192        1192        1192        1192        1192        1192
  grid # 6        6164        6164        6164        6164        6164        6164        9488
  grid # 7       14018       15170       15170       15170       15170       15170       21102
  grid # 8         750         792         792         792         792         792         642
  grid # 9         406         420         420         420         420         420         338
   
  number of gridpoints: 
     atom          Br3       total
  grid # 1         485        9992
  grid # 2         471       30218
  grid # 3         236       10285
  grid # 4        8582      669396
  grid # 5        1192       92976
  grid # 6        9488      494088
  grid # 7       11604     1180042
  grid # 8         714       60418
  grid # 9         360       33864
   
  end of program grid
   
 Time(grid)  user:     350.065  user+sys:     350.065  wallclock:      24.650
  
  start of program rwr
  
  end of program rwr
   
 Time(rwr)  user:      59.760  user+sys:      59.760  wallclock:      15.049
  
  start of program scf
  
 number of electrons..........        304
 number of alpha electrons....        152
 number of beta electrons.....        152
 number of orbitals, total....        640
 number of doubly-occ'd orbs..        152
 number of open shell orbs....          0
 number of occupied orbitals..        152
 number of virtual orbitals...        488
 number of hamiltonians.......          1
 number of shells.............          1
 SCF type: DFT=Becke_3_Parameter/HF+Slater+Becke88+PW91+PW-GGAIIC (B3PW91-D3)
 Energy computed using pseudospectral method.
 Convergence Criterion:
    Energy (econv):       1.00E-05
    RMS density (dconv):  5.00E-06
  
       i  u  d  i  g                   
       t  p  i  c  r                                 RMS    maximum
       e  d  i  u  i                       energy  density   DIIS  
       r  t  s  t  d       total energy    change  change    error 
  
etot    1  N  N  5  M   -2073.93919254318           2.1E-03  2.0E-01
etot    2  Y  Y  6  M   -2077.16197213806  3.2E+00  3.4E-03  1.2E-01
etot    3  Y  Y  6  M   -2078.00426557084  8.4E-01  1.5E-03  6.2E-02
etot    4  N  Y  2  U   -2078.40140149153  4.0E-01  1.1E-03  3.8E-02
etot    5  Y  Y  6  M   -2078.52122074778  1.2E-01  7.8E-04  2.4E-02
etot    6  N  Y  2  U   -2078.53536917453  1.4E-02  7.4E-04  1.2E-02
etot    7  Y  Y  6  M   -2078.54985106390  1.4E-02  1.1E-04  4.9E-03
etot    8  N  Y  2  U   -2078.55594161922  6.1E-03  4.6E-05  1.5E-03
etot    9  N  Y  2  U   -2078.55634118902  4.0E-04  1.8E-05  3.0E-04
etot   10  N  Y  2  U   -2078.55637080626  3.0E-05  8.3E-06  2.9E-04
etot   11  N  Y  2  U   -2078.55637844239  7.6E-06  2.8E-06  6.5E-05
etot   12  N  N  2  U   -2078.55637949514  1.1E-06  0.0E+00  0.0E+00
 
  Computing the dispersion energy correction and its gradients...
  
  
 Energy components, in hartrees:
   (A)  Nuclear repulsion............    5525.40565319666
   (E)  Total one-electron terms.....  -13904.69672707434
   (F)    Electron-nuclear...........  -15883.58838823432
   (H)    Kinetic....................    1978.89166115997
   (I)  Total two-electron terms.....    6300.73469438254
   (J)    Coulomb....................    6564.66098488796
   (K)    Exchange+Correlation.......    -263.92629050542
   (L)  Electronic energy............   -7603.96203269180  (E+I)
   (N0) D3 correction................      -0.16757898123
   (N)  Total energy.................   -2078.72395847637  (A+L+N0)
   (O)  Gas phase energy.............   -2078.72395847637
  
 SCFE: SCF energy: DFT(b3pw91-d3)     -2078.72395847637 hartrees   iterations:  12
  
 
 HOMO energy:    -0.17956
 LUMO energy:    -0.05527
 
  Orbital energies (hartrees): 
   -77.07457   -38.47013   -24.67505   -14.28725   -10.24115   -10.20254
   -10.20119   -10.19749   -10.19729   -10.19622   -10.19091   -10.18999
   -10.18910   -10.18846   -10.18725   -10.18558   -10.18197   -10.18163
   -10.17964   -10.17658   -10.17651   -10.16702   -10.16637   -10.16578
   -10.16419   -10.16076   -10.15911   -10.15872   -10.15355   -10.15215
   -10.15075   -10.14924   -10.14637   -10.14553   -10.14354   -10.14147
   -10.13688    -6.57547    -4.73364    -4.73265    -4.73036    -3.33152
    -2.23140    -2.06436    -2.06135    -2.03093    -1.20738    -1.16024
    -1.15858    -1.15797    -0.88802    -0.87768    -0.86376    -0.85430
    -0.83153    -0.81418    -0.80831    -0.79391    -0.78085    -0.76734
    -0.75236    -0.74083    -0.73297    -0.73165    -0.71243    -0.70030
    -0.69372    -0.68191    -0.68004    -0.67489    -0.65993    -0.64036
    -0.63696    -0.62568    -0.61019    -0.60024    -0.59418    -0.59154
    -0.58310    -0.57231    -0.55165    -0.54425    -0.53593    -0.52452
    -0.50489    -0.50109    -0.48623    -0.47867    -0.47684    -0.47463
    -0.46684    -0.46533    -0.46255    -0.45764    -0.45476    -0.45057
    -0.44876    -0.44072    -0.43964    -0.43863    -0.43310    -0.43116
    -0.42240    -0.41770    -0.41585    -0.41409    -0.41034    -0.40337
    -0.40268    -0.39870    -0.39053    -0.38673    -0.38631    -0.38247
    -0.38093    -0.37478    -0.37281    -0.36845    -0.36503    -0.36077
    -0.35687    -0.35415    -0.35015    -0.34843    -0.34188    -0.34142
    -0.33862    -0.32990    -0.32382    -0.32220    -0.32036    -0.31838
    -0.31156    -0.30827    -0.30019    -0.29301    -0.27693    -0.27590
    -0.26726    -0.26507    -0.26259    -0.25997    -0.25187    -0.24579
    -0.23955    -0.23817    -0.21657    -0.21422    -0.20868    -0.20539
    -0.19506    -0.17956    -0.05527    -0.03572    -0.02996    -0.02408
    -0.02201    -0.00848    -0.00253     0.00629     0.01372     0.02873
 
  end of program scf
   
 Time(scf)  user:     693.757  user+sys:     693.757  wallclock:      67.323
  
  start of program der1a
  
  end of program der1a
   
 Time(der1a)  user:      33.981  user+sys:      33.981  wallclock:       3.006
  
  start of program rwr
  
  end of program rwr
   
 Time(rwr)  user:      40.219  user+sys:      40.219  wallclock:      16.866
  
  start of program der1b
  
   
  forces (hartrees/bohr) : total     
   
 atom  label           x              y              z
 ---- --------   -------------  -------------  -------------
    1 P1          1.646507E-02  -9.026171E-03   1.393068E-02
    2 Pd2        -8.700128E-03   8.602567E-03   8.176221E-03
    3 C73         2.192719E-03  -9.784366E-04   2.657202E-04
    4 C74        -6.002431E-05   2.607134E-04   1.007768E-03
    5 C75         6.246286E-03  -6.600986E-03   1.430704E-02
    6 C76        -2.235473E-03  -4.621105E-03   1.060611E-02
    7 C77         1.826044E-02   1.127949E-02   5.442987E-03
    8 C78         1.133044E-03   5.685745E-04   4.536809E-03
    9 F79        -1.969961E-03   3.973501E-04   7.175278E-05
   10 H80        -3.284154E-04  -4.453784E-04  -5.322446E-05
   11 H82         3.897528E-02   3.422211E-02  -4.801982E-03
   12 H83         2.778932E-04   1.853147E-04  -5.802101E-04
   13 H14        -3.338188E-05  -3.812206E-04   5.445531E-03
   14 C3          4.406206E-03  -2.509126E-03  -1.303944E-03
   15 C4         -2.585470E-03   9.954234E-03  -6.976582E-03
   16 C5         -2.935673E-03  -1.011681E-05  -6.949049E-03
   17 C6         -6.553530E-03  -7.819464E-03   7.384187E-03
   18 C7          3.319053E-03   5.301300E-04  -7.945761E-03
   19 C8          3.235106E-03   6.209899E-04   6.652442E-03
   20 C9         -4.890703E-03   5.845242E-03   1.732155E-03
   21 C10         5.115478E-03   1.512005E-03  -6.219170E-03
   22 C11        -3.249381E-02  -2.549388E-02   2.182321E-03
   23 C12         6.058120E-03   2.047950E-03  -1.527215E-03
   24 C13         1.028790E-04  -1.867668E-05   1.828000E-04
   25 C14        -2.294733E-05   1.253189E-03   1.859538E-04
   26 C15         5.643208E-04   6.519762E-04   1.603495E-04
   27 C16         8.926907E-04  -1.220318E-03   2.159460E-03
   28 C17         1.247163E-02   1.443111E-03  -3.160047E-03
   29 C18        -4.780106E-03   4.313258E-03  -6.807098E-03
   30 C19        -2.212246E-03  -3.041884E-03   2.654919E-03
   31 C20        -4.151947E-03   4.446562E-03  -8.737890E-03
   32 C21        -1.995496E-02   5.641059E-03   8.230816E-04
   33 C22         4.443765E-03  -3.508940E-03  -4.480186E-03
   34 C23        -2.052283E-03  -6.179078E-03   7.368285E-03
   35 H24        -1.733255E-03  -1.275733E-03  -1.355507E-03
   36 H25        -2.023065E-04  -1.881740E-03   8.996809E-04
   37 H26         6.583073E-04  -1.602608E-03  -1.505445E-04
   38 H27        -3.796030E-02  -2.692537E-02   1.942343E-03
   39 H28        -1.958654E-04   6.692198E-04  -1.225612E-04
   40 H29        -4.763191E-06   3.736322E-04  -1.828293E-05
   41 H30         1.204430E-05  -9.725524E-05   2.983039E-04
   42 H31        -5.995440E-04   3.271153E-03  -7.871801E-04
   43 H32         3.312572E-02  -1.330804E-02  -6.779293E-04
   44 H33         1.882339E-03  -1.867407E-03  -7.817327E-04
   45 H34         5.397915E-04  -2.567826E-04  -1.806461E-03
   46 H35        -1.246955E-03   2.096195E-03  -1.544190E-03
   47 H36        -3.033542E-03   5.997190E-03  -2.105392E-02
   48 H37        -3.251324E-04   6.914663E-04  -9.292685E-04
   49 H38        -1.842433E-03  -1.005885E-03   7.067217E-04
   50 H39        -1.132237E-03   1.518761E-03  -8.250036E-04
   51 H40        -9.246700E-04   6.345230E-04  -1.069914E-02
   52 H41        -5.496817E-03   3.091752E-03   8.540860E-04
   53 H42         3.730091E-03   4.693049E-03  -1.882715E-02
   54 H43        -5.534324E-04   1.572153E-03   1.288863E-03
   55 H44        -1.046686E-03   4.183647E-06  -1.269200E-03
   56 H45        -2.419690E-03  -1.217422E-03   7.966872E-04
   57 H46        -1.893026E-02   7.331064E-03   2.593885E-03
   58 H47        -1.325518E-04   3.159784E-04  -1.228599E-04
   59 H48         3.659607E-03   1.332633E-03   1.628480E-03
   60 H49         4.138072E-04   3.178979E-04   8.117580E-04
   61 H50         1.399864E-03  -2.320221E-03  -4.235178E-04
   62 H51        -5.165365E-03  -4.452808E-03   1.743267E-02
   63 H52         1.876021E-03   1.748779E-03  -1.402883E-03
   64 N104        5.274538E-03   1.503926E-03  -6.991191E-04
   65 H105       -1.843426E-03   1.696313E-03   2.976546E-03
   66 C107       -3.117762E-04  -4.012389E-04  -2.734931E-03
   67 C108       -2.523708E-04  -1.575783E-03  -1.252282E-03
   68 C109        9.227340E-04  -4.627758E-05   8.338914E-04
   69 C110        1.033345E-04   5.168285E-04  -1.063551E-03
   70 C111        3.142757E-04   2.644259E-04   2.764818E-04
   71 C112       -5.584706E-04   3.861613E-04   6.933185E-04
   72 H113       -1.012098E-04   4.720620E-04  -6.848275E-05
   73 H114       -3.004386E-04   2.927450E-04   3.071519E-04
   74 H115        2.388515E-04  -9.899577E-04   2.742754E-04
   75 H116       -5.145166E-04   8.688329E-05  -2.565248E-04
   76 H117       -3.345401E-04  -5.074402E-04  -1.180052E-04
   77 Na119       4.470647E-03   1.004622E-03  -1.397087E-02
   78 Br3         8.558245E-05  -3.346834E-03   1.144518E-02
 -------------   -------------  -------------  -------------
     total       -2.560634E-04   7.258408E-04  -1.166568E-03
   
  end of program der1b
   
 Time(der1b)  user:     208.764  user+sys:     208.764  wallclock:      18.766
  
  start of program geopt
  
 ----------------------------------------------------------------------------
  Geometry optimization step  1
  Total energy:     -2078.72395847637 hartrees
 ----------------------------------------------------------------------------
  
  
  Level shifts adjusted to satisfy step-size constraints
   Step size:    0.3002384
   Cos(theta):   0.7974301
   Final level shift:  -5.9970217E-01
  
  gradient maximum:        2.9728E-01 .  (  2.2500E-03 )
  gradient rms:            4.6091E-02 .  (  1.5000E-03 )
  displacement maximum:    5.9663E-02 .  (  9.0000E-03 )
  displacement rms:        1.2617E-02 .  (  6.0000E-03 )
  
  predicted energy change:  -9.2595E-02
  step size:     0.20422
  trust radius:  0.30000
  
  molecular structure not yet converged...
  
  center of mass moved by:
     x:     6.1507E-03     y:     4.7723E-02     z:     4.5278E-02
  
  new geometry: 
                                   angstroms
  atom               x                 y                 z
  P1            0.0257728319     -0.0161680575     -0.0171878778 
  Pd2           0.0267225107      0.0552458939      2.3390669221 
  C73           4.7600502534     -0.3767727159      2.8870491320 
  C74           4.1626165442      0.8721730454      2.9762362213 
  C75           2.7802873887      0.9696006475      2.8112304468 
  C76           2.0046852507     -0.1673308773      2.5482623992 
  C77           2.6309062724     -1.4139958340      2.5157847309 
  C78           4.0162510914     -1.5263316556      2.6724302874 
  F79           6.0991977997     -0.4753423868      3.0312454025 
  H80           4.7732289629      1.7484211438      3.1763089706 
  H82           2.0436465204     -2.3159519014      2.3779597388 
  H83           4.5146298243     -2.4915425896      2.6387478550 
  H14           2.3112711899      1.9438460617      2.9120372209 
  C3           -0.2728503557     -1.7876272187     -0.4713321042 
  C4            1.7327643009      0.4118767058     -0.7999251657 
  C5           -1.4435175978      0.9304881260     -0.8449426192 
  C6           -0.9750902616     -2.6056251865      1.9378851156 
  C7           -2.2524352966     -2.4265662884      2.5516038909 
  C8           -2.4243865976     -2.8317104152      3.8739784428 
  C9           -1.3844661255     -3.4019904716      4.6096393619 
  C10          -0.1290105356     -3.5416065586      4.0333715963 
  C11           0.0684698356     -3.1417822602      2.7144044090 
  C12          -0.8008729271     -2.7332116264      0.4466863186 
  C13          -1.1065152241     -4.0210352036     -0.0303525012 
  C14          -0.8974380266     -4.3946040091     -1.3506097831 
  C15          -0.3443734010     -3.4762680287     -2.2382747388 
  C16          -0.0390249048     -2.1965776789     -1.7975466656 
  C17           1.6672593308      0.6557564951     -2.3141746882 
  C18           2.1725094838      1.7331535099     -0.1489297069 
  C19           2.8269922356     -0.6409430166     -0.5887797460 
  C20          -2.5272447103     -0.1188158731     -1.1446882736 
  C21          -1.1975631589      1.6755546636     -2.1644616283 
  C22          -2.0205103086      1.9861923390      0.1115572031 
  C23          -3.4144173810     -1.8205916296      1.8202888184 
  H24          -3.3943860783     -2.6871090798      4.3454797707 
  H25          -1.5575355181     -3.7121913174      5.6374235955 
  H26           0.7016574892     -3.9500955029      4.6029098086 
  H27           1.0206626970     -3.3366427862      2.2351155303 
  H28          -1.5017754655     -4.7492783910      0.6741135267 
  H29          -1.1460338566     -5.4010623996     -1.6786695564 
  H30          -0.1510137669     -3.7526871604     -3.2721387222 
  H31           0.3873753139     -1.5027350754     -2.5102565062 
  H32           0.8268489856      1.2720918009     -2.6132886492 
  H33           2.5888458645      1.1638168978     -2.6287368024 
  H34           1.6162365662     -0.2859133493     -2.8696854954 
  H35           1.4363965805      2.5330914094     -0.2918533385 
  H36           2.3401345798      1.6078680831      0.9246131216 
  H37           3.1227700036      2.0570233393     -0.5942980254 
  H38           2.5708452388     -1.6101468505     -1.0298551287 
  H39           3.7378734730     -0.2881263692     -1.0914413144 
  H40           3.0685469229     -0.7865196451      0.4642323609 
  H41          -2.1673671971     -0.8923796605     -1.8299461624 
  H42          -2.8829275862     -0.6056190654     -0.2383035208 
  H43          -3.3848580403      0.3768957790     -1.6190011420 
  H44          -0.9595763997      1.0024839866     -2.9919430764 
  H45          -2.1274799716      2.1962431751     -2.4323598005 
  H46          -0.4279241274      2.4457557271     -2.0767294831 
  H47          -2.1045425640      1.6410953071      1.1404727156 
  H48          -1.4290586024      2.9059681735      0.1013646305 
  H49          -3.0308010533      2.2434246198     -0.2325608289 
  H50          -3.7175815063     -2.4289158430      0.9583577153 
  H51          -3.1517087901     -0.8265683155      1.4547793224 
  H52          -4.2786467731     -1.7057950671      2.4814452666 
  N104          0.0793876402      0.0931168641      4.4394606398 
  H105          0.6046038309     -0.7526054470      4.6634467807 
  C107          0.7103229280      1.1727759288      5.0590671796 
  C108          1.8866986454      3.3976093270      6.3678068673 
  C109          1.7943562049      1.0106476266      5.9481093697 
  C110          0.2418414374      2.4881651961      4.8316165170 
  C111          0.8219786328      3.5746493963      5.4802043210 
  C112          2.3694807209      2.1047056725      6.5870860703 
  H113          2.2008011404      0.0118479148      6.1043264114 
  H114         -0.5658187774      2.6310015796      4.1145817224 
  H115          0.4436099352      4.5756193296      5.2763107601 
  H116          3.2149397452      1.9467083368      7.2550011779 
  H117          2.3448437022      4.2505622538      6.8628466760 
  Na119        -1.9879011121      0.5242601207      5.7364251262 
  Br3          -3.2228002469      1.4617535971      3.4049518288 
   
 
  bond lengths (angstroms):
 
 P1      -Pd2     :   2.357337      P1      -C3      :   1.852968
 P1      -C4      :   1.926063      P1      -C5      :   1.933947
 Pd2     -C76     :   2.001409      Pd2     -N104    :   2.101395
 C73     -C74     :   1.387352      C73     -C78     :   1.385924
 C73     -F79     :   1.350491      C74     -C75     :   1.395548
 C74     -H80     :   1.086594      C75     -C76     :   1.401187
 C75     -H14     :   1.085952      C76     -C77     :   1.395486
 C77     -C78     :   1.398691      C77     -H82     :   1.085078
 C78     -H83     :   1.086806      C3      -C12     :   1.419752
 C3      -C16     :   1.407395      C4      -C17     :   1.535161
 C4      -C18     :   1.537187      C4      -C19     :   1.533084
 C5      -C20     :   1.537970      C5      -C21     :   1.535170
 C5      -C22     :   1.536985      C6      -C7      :   1.428399
 C6      -C11     :   1.406934      C6      -C12     :   1.506753
 C7      -C8      :   1.393694      C7      -C23     :   1.500743
 C8      -C9      :   1.395654      C8      -H24     :   1.088174
 C9      -C10     :   1.388433      C9      -H25     :   1.087436
 C10     -C11     :   1.392312      C10     -H26     :   1.086852
 C11     -H27     :   1.083679      C12     -C13     :   1.406937
 C13     -C14     :   1.387929      C13     -H28     :   1.087585
 C14     -C15     :   1.391823      C14     -H29     :   1.087374
 C15     -C16     :   1.387475      C15     -H30     :   1.087506
 C16     -H31     :   1.082215      C17     -H32     :   1.084264
 C17     -H33     :   1.098361      C17     -H34     :   1.094503
 C18     -H35     :   1.096444      C18     -H36     :   1.093750
 C18     -H37     :   1.098289      C19     -H38     :   1.095224
 C19     -H39     :   1.098569      C19     -H40     :   1.090126
 C20     -H41     :   1.094299      C20     -H42     :   1.088587
 C20     -H43     :   1.098273      C21     -H44     :   1.092880
 C21     -H45     :   1.098923      C21     -H46     :   1.092360
 C22     -H47     :   1.088495      C22     -H48     :   1.093575
 C22     -H49     :   1.097849      C23     -H50     :   1.097676
 C23     -H51     :   1.091190      C23     -H52     :   1.094166
 N104    -H105    :   1.020425      N104    -C107    :   1.395584
 N104    -Na119   :   2.478242      C107    -C109    :   1.411315
 C107    -C110    :   1.414729      C108    -C111    :   1.397430
 C108    -C112    :   1.397413      C108    -H117    :   1.087424
 C109    -C112    :   1.391410      C109    -H113    :   1.089588
 C110    -C111    :   1.392003      C110    -H114    :   1.089429
 C111    -H115    :   1.089347      C112    -H116    :   1.088979
 Na119   -Br3     :   2.799935
 
  bond angles:
 
 C3      -P1      -Pd2     : 105.902687  C4      -P1      -Pd2     : 113.522936
 C4      -P1      -C3      : 104.814388  C5      -P1      -Pd2     : 114.411919
 C5      -P1      -C3      : 103.923248  C5      -P1      -C4      : 112.991722
 C76     -Pd2     -P1      :  95.825853  N104    -Pd2     -P1      : 178.421779
 N104    -Pd2     -C76     :  82.689959  C78     -C73     -C74     : 121.705221
 F79     -C73     -C74     : 119.068455  F79     -C73     -C78     : 119.220232
 C75     -C74     -C73     : 118.802846  H80     -C74     -C73     : 119.723242
 H80     -C74     -C75     : 121.473238  C76     -C75     -C74     : 120.919466
 H14     -C75     -C74     : 118.650087  H14     -C75     -C76     : 120.417345
 C75     -C76     -Pd2     : 118.452351  C77     -C76     -Pd2     : 122.711414
 C77     -C76     -C75     : 118.740645  C78     -C77     -C76     : 120.904519
 H82     -C77     -C76     : 120.177253  H82     -C77     -C78     : 118.915199
 C77     -C78     -C73     : 118.834788  H83     -C78     -C73     : 119.692428
 H83     -C78     -C77     : 121.470141  C12     -C3      -P1      : 122.560127
 C16     -C3      -P1      : 118.814070  C16     -C3      -C12     : 118.526821
 C17     -C4      -P1      : 113.474780  C18     -C4      -P1      : 105.810119
 C18     -C4      -C17     : 107.060816  C19     -C4      -P1      : 115.085627
 C19     -C4      -C17     : 105.985935  C19     -C4      -C18     : 109.133360
 C20     -C5      -P1      : 106.546900  C21     -C5      -P1      : 118.929677
 C21     -C5      -C20     : 106.051414  C22     -C5      -P1      : 110.797414
 C22     -C5      -C20     : 108.988943  C22     -C5      -C21     : 105.170294
 C11     -C6      -C7      : 118.289245  C12     -C6      -C7      : 122.631344
 C12     -C6      -C11     : 115.353079  C8      -C7      -C6      : 118.787222
 C23     -C7      -C6      : 122.251505  C23     -C7      -C8      : 118.961128
 C9      -C8      -C7      : 121.802060  H24     -C8      -C7      : 118.847046
 H24     -C8      -C9      : 119.347093  C10     -C9      -C8      : 119.739850
 H25     -C9      -C8      : 119.746658  H25     -C9      -C10     : 120.497926
 C11     -C10     -C9      : 119.509012  H26     -C10     -C9      : 120.756194
 H26     -C10     -C11     : 119.732231  C10     -C11     -C6      : 121.808269
 H27     -C11     -C6      : 118.434256  H27     -C11     -C10     : 119.470239
 C6      -C12     -C3      : 128.795002  C13     -C12     -C3      : 118.111521
 C13     -C12     -C6      : 112.827076  C14     -C13     -C12     : 122.423544
 H28     -C13     -C12     : 118.179573  H28     -C13     -C14     : 119.384875
 C15     -C14     -C13     : 119.271187  H29     -C14     -C13     : 120.110990
 H29     -C14     -C15     : 120.606600  C16     -C15     -C14     : 119.565329
 H30     -C15     -C14     : 120.614349  H30     -C15     -C16     : 119.820296
 C15     -C16     -C3      : 122.056942  H31     -C16     -C3      : 119.983064
 H31     -C16     -C15     : 117.959373  H32     -C17     -C4      : 113.296353
 H33     -C17     -C4      : 108.673370  H33     -C17     -H32     : 107.963231
 H34     -C17     -C4      : 111.465563  H34     -C17     -H32     : 108.234865
 H34     -C17     -H33     : 106.961476  H35     -C18     -C4      : 112.323671
 H36     -C18     -C4      : 111.165224  H36     -C18     -H35     : 108.324922
 H37     -C18     -C4      : 109.223136  H37     -C18     -H35     : 108.232649
 H37     -C18     -H36     : 107.409332  H38     -C19     -C4      : 112.663736
 H39     -C19     -C4      : 107.952751  H39     -C19     -H38     : 107.088848
 H40     -C19     -C4      : 112.513313  H40     -C19     -H38     : 108.824050
 H40     -C19     -H39     : 107.526293  H41     -C20     -C5      : 111.876499
 H42     -C20     -C5      : 111.904489  H42     -C20     -H41     : 108.223822
 H43     -C20     -C5      : 109.054512  H43     -C20     -H41     : 107.783831
 H43     -C20     -H42     : 107.835584  H44     -C21     -C5      : 112.754508
 H45     -C21     -C5      : 107.693338  H45     -C21     -H44     : 106.947700
 H46     -C21     -C5      : 112.708678  H46     -C21     -H44     : 109.975611
 H46     -C21     -H45     : 106.362216  H47     -C22     -C5      : 113.545412
 H48     -C22     -C5      : 111.645897  H48     -C22     -H47     : 108.494743
 H49     -C22     -C5      : 108.139804  H49     -C22     -H47     : 107.429487
 H49     -C22     -H48     : 107.320603  H50     -C23     -C7      : 111.883199
 H51     -C23     -C7      : 110.160267  H51     -C23     -H50     : 107.957562
 H52     -C23     -C7      : 111.067553  H52     -C23     -H50     : 108.329359
 H52     -C23     -H51     : 107.276905  H105    -N104    -Pd2     : 102.554091
 C107    -N104    -Pd2     : 117.971829  C107    -N104    -H105    : 108.121164
 Na119   -N104    -Pd2     : 120.352616  Na119   -N104    -H105    : 117.300964
 Na119   -N104    -C107    :  90.583638  C109    -C107    -N104    : 122.551679
 C110    -C107    -N104    : 119.881914  C110    -C107    -C109    : 117.544798
 C112    -C108    -C111    : 118.692727  H117    -C108    -C111    : 120.716133
 H117    -C108    -C112    : 120.579020  C112    -C109    -C107    : 121.094132
 H113    -C109    -C107    : 118.825492  H113    -C109    -C112    : 120.049647
 C111    -C110    -C107    : 120.849963  H114    -C110    -C107    : 118.243536
 H114    -C110    -C111    : 120.884350  C110    -C111    -C108    : 120.970957
 H115    -C111    -C108    : 119.995747  H115    -C111    -C110    : 119.027504
 C109    -C112    -C108    : 120.838933  H116    -C112    -C108    : 119.914451
 H116    -C112    -C109    : 119.241391  Br3     -Na119   -N104    :  89.448818
 
  torsional angles:
 
 P1      -Pd2     -C76     -C75     : 100.809064
 P1      -Pd2     -C76     -C77     : -82.793885
 P1      -Pd2     -N104    -H105    : -32.084412
 P1      -Pd2     -N104    -C107    :  86.539488
 P1      -Pd2     -N104    -Na119   :-164.533849
 P1      -C3      -C12     -C6      : -12.195153
 P1      -C3      -C12     -C13     : 174.202578
 P1      -C3      -C16     -C15     :-174.568446
 P1      -C3      -C16     -H31     :   5.138764
 P1      -C4      -C17     -H32     :  43.997290
 P1      -C4      -C17     -H33     : 163.994973
 P1      -C4      -C17     -H34     : -78.373550
 P1      -C4      -C18     -H35     : -57.106191
 P1      -C4      -C18     -H36     :  64.457320
 P1      -C4      -C18     -H37     :-177.197095
 P1      -C4      -C19     -H38     :  61.120042
 P1      -C4      -C19     -H39     : 179.156725
 P1      -C4      -C19     -H40     : -62.355725
 P1      -C5      -C20     -H41     : -60.800688
 P1      -C5      -C20     -H42     :  60.845085
 P1      -C5      -C20     -H43     :-179.936954
 P1      -C5      -C21     -H44     :  65.871127
 P1      -C5      -C21     -H45     :-176.379930
 P1      -C5      -C21     -H46     : -59.376262
 P1      -C5      -C22     -H47     : -41.388851
 P1      -C5      -C22     -H48     :  81.650215
 P1      -C5      -C22     -H49     :-160.505189
 Pd2     -P1      -C3      -C12     :  17.407810
 Pd2     -P1      -C3      -C16     :-166.265449
 Pd2     -P1      -C4      -C17     :-167.839986
 Pd2     -P1      -C4      -C18     : -50.748671
 Pd2     -P1      -C4      -C19     :  69.827945
 Pd2     -P1      -C5      -C20     : -96.449821
 Pd2     -P1      -C5      -C21     : 143.960701
 Pd2     -P1      -C5      -C22     :  21.971147
 Pd2     -C76     -C75     -C74     : 179.519861
 Pd2     -C76     -C75     -H14     :   0.854359
 Pd2     -C76     -C77     -C78     :-179.694104
 Pd2     -C76     -C77     -H82     :  -0.334110
 Pd2     -N104    -C107    -C109    :-121.996089
 Pd2     -N104    -C107    -C110    :  59.737102
 Pd2     -N104    -Na119   -Br3     : -15.264519
 C73     -C74     -C75     -C76     :  -0.558283
 C73     -C74     -C75     -H14     : 178.130344
 C73     -C78     -C77     -C76     :   1.214840
 C73     -C78     -C77     -H82     :-178.153096
 C74     -C73     -C78     -C77     :   1.305113
 C74     -C73     -C78     -H83     :-178.112241
 C74     -C75     -C76     -C77     :   2.977156
 C75     -C74     -C73     -C78     :  -1.625871
 C75     -C74     -C73     -F79     : 179.279348
 C75     -C76     -Pd2     -N104    : -79.731123
 C75     -C76     -C77     -C78     :  -3.306961
 C75     -C76     -C77     -H82     : 176.053033
 C76     -Pd2     -P1      -C3      :  93.041094
 C76     -Pd2     -P1      -C4      : -21.413770
 C76     -Pd2     -P1      -C5      :-153.125843
 C76     -Pd2     -N104    -H105    : -51.994537
 C76     -Pd2     -N104    -C107    :  66.629363
 C76     -Pd2     -N104    -Na119   : 175.556026
 C76     -C75     -C74     -H80     : 179.741208
 C76     -C77     -C78     -H83     :-179.378590
 C77     -C76     -Pd2     -N104    :  96.665929
 C77     -C76     -C75     -H14     :-175.688347
 C77     -C78     -C73     -F79     :-179.601444
 C78     -C73     -C74     -H80     : 178.079999
 F79     -C73     -C74     -H80     :  -1.014782
 F79     -C73     -C78     -H83     :   0.981202
 H80     -C74     -C75     -H14     :  -1.570165
 H82     -C77     -C78     -H83     :   1.253474
 C3      -P1      -Pd2     -N104    :  73.192762
 C3      -P1      -C4      -C17     :  77.057581
 C3      -P1      -C4      -C18     :-165.851104
 C3      -P1      -C4      -C19     : -45.274488
 C3      -P1      -C5      -C20     :  18.544709
 C3      -P1      -C5      -C21     :-101.044769
 C3      -P1      -C5      -C22     : 136.965677
 C3      -C12     -C6      -C7      : 106.740648
 C3      -C12     -C6      -C11     : -95.421657
 C3      -C12     -C13     -C14     :   0.671753
 C3      -C12     -C13     -H28     : 179.402311
 C3      -C16     -C15     -C14     :  -0.115316
 C3      -C16     -C15     -H30     : 179.826609
 C4      -P1      -Pd2     -N104    : -41.262102
 C4      -P1      -C3      -C12     : 137.713976
 C4      -P1      -C3      -C16     : -45.959284
 C4      -P1      -C5      -C20     : 131.583110
 C4      -P1      -C5      -C21     :  11.993633
 C4      -P1      -C5      -C22     :-109.995921
 C5      -P1      -Pd2     -N104    :-172.974175
 C5      -P1      -C3      -C12     :-103.481389
 C5      -P1      -C3      -C16     :  72.845352
 C5      -P1      -C4      -C17     : -35.436844
 C5      -P1      -C4      -C18     :  81.654472
 C5      -P1      -C4      -C19     :-157.768912
 C6      -C7      -C8      -C9      :   0.140445
 C6      -C7      -C8      -H24     : 179.426352
 C6      -C7      -C23     -H50     :  62.796254
 C6      -C7      -C23     -H51     : -57.296579
 C6      -C7      -C23     -H52     :-176.012338
 C6      -C11     -C10     -C9      :  -0.484126
 C6      -C11     -C10     -H26     :-179.906211
 C6      -C12     -C3      -C16     : 171.468037
 C6      -C12     -C13     -C14     :-173.921401
 C6      -C12     -C13     -H28     :   4.809158
 C7      -C6      -C11     -C10     :   2.415355
 C7      -C6      -C11     -H27     : 176.224309
 C7      -C6      -C12     -C13     : -79.380797
 C7      -C8      -C9      -C10     :   1.829518
 C7      -C8      -C9      -H25     :-179.598354
 C8      -C7      -C6      -C11     :  -2.208028
 C8      -C7      -C6      -C12     : 155.015558
 C8      -C7      -C23     -H50     :-117.063375
 C8      -C7      -C23     -H51     : 122.843792
 C8      -C7      -C23     -H52     :   4.128033
 C8      -C9      -C10     -C11     :  -1.651871
 C8      -C9      -C10     -H26     : 177.764161
 C9      -C8      -C7      -C23     :-179.995008
 C9      -C10     -C11     -H27     :-174.230591
 C10     -C9      -C8      -H24     :-177.452912
 C10     -C11     -C6      -C12     :-156.436701
 C11     -C6      -C7      -C23     : 177.932109
 C11     -C6      -C12     -C13     :  78.456899
 C11     -C10     -C9      -H25     : 179.786907
 C12     -C3      -C16     -C15     :   1.908022
 C12     -C3      -C16     -H31     :-178.384769
 C12     -C6      -C7      -C23     : -24.844305
 C12     -C6      -C11     -H27     :  17.372253
 C12     -C13     -C14     -C15     :   1.124300
 C12     -C13     -C14     -H29     : 179.913156
 C13     -C12     -C3      -C16     :  -2.134232
 C13     -C14     -C15     -C16     :  -1.402253
 C13     -C14     -C15     -H30     : 178.656293
 C14     -C15     -C16     -H31     :-179.828196
 C15     -C14     -C13     -H28     :-177.591501
 C16     -C15     -C14     -H29     : 179.815044
 C17     -C4      -C18     -H35     :  64.223710
 C17     -C4      -C18     -H36     :-174.212779
 C17     -C4      -C18     -H37     : -55.867195
 C17     -C4      -C19     -H38     : -65.153048
 C17     -C4      -C19     -H39     :  52.883636
 C17     -C4      -C19     -H40     : 171.371186
 C18     -C4      -C17     -H32     : -72.361242
[...]
    C14      Y     0.05324  -0.00006   0.00001   0.00326  -0.00006  -0.00000
    C14      Z     0.02836  -0.00004   0.00001   0.00056  -0.00010  -0.00000
    C15      X     0.00947  -0.00001  -0.00000   0.00532  -0.00000  -0.00000
    C15      Y    -0.00495   0.00000  -0.00000   0.00125  -0.00001   0.00000
    C15      Z     0.03531  -0.00003  -0.00000   0.01555   0.00000   0.00000
    C16      X     0.00042  -0.00001   0.00001  -0.01105  -0.00001  -0.00000
    C16      Y     0.00619  -0.00006   0.00004  -0.06796  -0.00003  -0.00002
    C16      Z    -0.00585   0.00005  -0.00003   0.04309   0.00002   0.00000
    C17      X    -0.00035   0.00008   0.00002   0.00113  -0.00001  -0.00000
    C17      Y     0.00019  -0.00024  -0.00008   0.00077  -0.00002   0.00000
    C17      Z    -0.00015   0.00009   0.00003   0.00042  -0.00002   0.00000
    C18      X    -0.00000   0.00019  -0.00012  -0.00001   0.00004   0.00000
    C18      Y    -0.00003  -0.00016  -0.00013   0.00000   0.00001  -0.00000
    C18      Z     0.00008   0.00069  -0.00221   0.00007  -0.00003  -0.00001
    C19      X    -0.00004  -0.00028  -0.00002  -0.00003   0.00004   0.00000
    C19      Y    -0.00001  -0.00033  -0.00004   0.00004  -0.00006   0.00000
    C19      Z    -0.00001  -0.00182   0.00001   0.00014  -0.00035  -0.00000
    C20      X    -0.00004  -0.00001   0.00001   0.00031   0.00000  -0.00000
    C20      Y    -0.00024  -0.00004   0.00001   0.00081   0.00001  -0.00000
    C20      Z    -0.00009   0.00005  -0.00010   0.00089   0.00000   0.00001
    C21      X    -0.00029  -0.00002  -0.00008   0.00064  -0.00001   0.00000
    C21      Y    -0.00043  -0.00005  -0.00002   0.00088   0.00002   0.00000
    C21      Z    -0.00036  -0.00003  -0.00002   0.00123   0.00001  -0.00000
    C22      X     0.00001  -0.00029  -0.00126  -0.00003  -0.00000  -0.00000
    C22      Y    -0.00002  -0.00002  -0.00018  -0.00005  -0.00001  -0.00000
    C22      Z    -0.00002   0.00009   0.00055   0.00014   0.00002   0.00002
    C23      X     0.00007   0.00003  -0.00001   0.00003  -0.00004   0.00001
    C23      Y     0.00050  -0.00003   0.00003   0.00005   0.00005  -0.00002
    C23      Z    -0.00002  -0.00003   0.00001  -0.00003  -0.00011   0.00001
    H24      X    -0.00152   0.00082  -0.00016  -0.00052   0.00734   0.00008
    H24      Y    -0.00024   0.00005   0.00000  -0.00008   0.00092  -0.00004
    H24      Z     0.00126  -0.00050   0.00010   0.00045  -0.00538  -0.00003
    H25      X     0.00030  -0.00092   0.00011   0.00007  -0.00063  -0.00011
    H25      Y    -0.00055   0.00185  -0.00020  -0.00014   0.00290   0.00016
    H25      Z     0.00240  -0.00777   0.00088   0.00053  -0.01251  -0.00033
    H26      X     0.00395  -0.02109   0.00157   0.00084  -0.10385   0.00120
    H26      Y    -0.00066   0.00057   0.00022  -0.00013   0.01768  -0.00054
    H26      Z     0.00153  -0.00608   0.00030   0.00035  -0.04210   0.00028
    H27      X    -0.00254  -0.00520   0.00155  -0.00005  -0.74249   0.00003
    H27      Y    -0.00007  -0.00065   0.00017  -0.00003  -0.06567   0.00006
    H27      Z     0.00189   0.00306  -0.00098  -0.00001   0.58402  -0.00002
    H28      X    -0.05772   0.00004   0.00004  -0.00241   0.00049  -0.00001
    H28      Y    -0.38046   0.00024   0.00023  -0.01655   0.00228  -0.00006
    H28      Z     0.24574  -0.00017  -0.00012   0.01083  -0.00162   0.00002
    H29      X    -0.28183   0.00035  -0.00005  -0.01252   0.00058   0.00000
    H29      Y    -0.58823   0.00073  -0.00010  -0.02708   0.00109   0.00000
    H29      Z    -0.31083   0.00039  -0.00006  -0.01274   0.00067   0.00000
    H30      X    -0.11174   0.00013   0.00001  -0.04716   0.00001  -0.00002
    H30      Y     0.02728  -0.00002   0.00000   0.00667  -0.00002  -0.00001
    H30      Z    -0.38468   0.00041   0.00004  -0.15749   0.00004  -0.00004
    H31      X    -0.01364   0.00015  -0.00009   0.12781   0.00006   0.00002
    H31      Y    -0.08864   0.00086  -0.00049   0.78389   0.00022   0.00005
    H31      Z     0.05919  -0.00057   0.00030  -0.49913  -0.00004  -0.00003
    H32      X     0.00213  -0.00149  -0.00034  -0.00429   0.00022   0.00000
    H32      Y    -0.00361   0.00244   0.00056   0.00620  -0.00033  -0.00000
    H32      Z     0.00228  -0.00183  -0.00035  -0.00342   0.00040  -0.00000
    H33      X     0.00239  -0.00061  -0.00000  -0.00658   0.00009  -0.00001
    H33      Y    -0.00000  -0.00005  -0.00001  -0.00021   0.00000   0.00000
    H33      Z    -0.00072   0.00040  -0.00002   0.00144  -0.00012   0.00001
    H34      X     0.00018   0.00071   0.00030  -0.00684   0.00012  -0.00002
    H34      Y     0.00124   0.00100   0.00055  -0.01509   0.00022  -0.00003
    H34      Z     0.00038   0.00035   0.00018  -0.00339   0.00011  -0.00001
    H35      X    -0.00024  -0.00150   0.00138  -0.00004   0.00008   0.00000
    H35      Y     0.00042   0.00336  -0.00301   0.00005  -0.00065  -0.00001
    H35      Z    -0.00021  -0.00155   0.00079   0.00004   0.00019  -0.00001
    H36      X    -0.00010  -0.00079   0.00389  -0.00028   0.00001  -0.00000
    H36      Y    -0.00011  -0.00116   0.00328  -0.00035   0.00007  -0.00000
    H36      Z    -0.00070  -0.00725   0.02448  -0.00124   0.00044   0.00021
    H37      X     0.00048  -0.00002  -0.00357   0.00069  -0.00018  -0.00002
    H37      Y    -0.00004  -0.00006   0.00083   0.00003   0.00012  -0.00000
    H37      Z    -0.00020   0.00021   0.00149  -0.00019   0.00005   0.00000
    H38      X    -0.00001   0.00194   0.00019  -0.00031   0.00425  -0.00004
    H38      Y     0.00026   0.00285   0.00036  -0.00033   0.00767  -0.00006
    H38      Z     0.00004   0.00011   0.00007   0.00004  -0.00339  -0.00003
    H39      X     0.00057  -0.00226   0.00009   0.00078   0.00133  -0.00002
    H39      Y    -0.00004   0.00011  -0.00001  -0.00002  -0.00045   0.00000
    H39      Z    -0.00025   0.00052  -0.00004  -0.00032  -0.00078   0.00001
    H40      X     0.00004   0.00341  -0.00006  -0.00033   0.00119   0.00002
    H40      Y     0.00003   0.00172   0.00007  -0.00013   0.00300   0.00003
    H40      Z     0.00027   0.02261  -0.00021  -0.00163  -0.00249   0.00002
    H41      X     0.00101   0.00008   0.00022  -0.00484  -0.00005  -0.00002
    H41      Y     0.00139   0.00012   0.00039  -0.00796  -0.00008  -0.00002
    H41      Z     0.00185   0.00016   0.00039  -0.00985  -0.00012  -0.00001
    H42      X     0.00023   0.00021  -0.00027   0.00028  -0.00001   0.00008
    H42      Y     0.00020   0.00027  -0.00037   0.00035   0.00001   0.00008
    H42      Z    -0.00053  -0.00072   0.00095  -0.00170   0.00008  -0.00023
    H43      X    -0.00066  -0.00014   0.00003   0.00103   0.00003  -0.00000
    H43      Y     0.00142   0.00021  -0.00005  -0.00275  -0.00007   0.00001
    H43      Z    -0.00013  -0.00003   0.00000   0.00002   0.00002   0.00000
    H44      X     0.00190   0.00019   0.00012  -0.00762  -0.00005  -0.00000
    H44      Y     0.00560   0.00041   0.00025  -0.02449  -0.00009  -0.00002
    H44      Z     0.00518   0.00045   0.00024  -0.01816  -0.00011  -0.00002
    H45      X    -0.00072  -0.00010   0.00006   0.00105   0.00006   0.00001
    H45      Y     0.00092   0.00012  -0.00013   0.00003  -0.00005  -0.00000
    H45      Z    -0.00030  -0.00001  -0.00001   0.00087  -0.00002  -0.00000
    H46      X     0.00249   0.00023   0.00083  -0.00376   0.00006  -0.00003
    H46      Y     0.00042   0.00000   0.00016   0.00030   0.00004  -0.00001
    H46      Z    -0.00036  -0.00005  -0.00017   0.00136  -0.00001   0.00001
    H47      X    -0.00004   0.00031   0.00229   0.00054   0.00011   0.00015
    H47      Y    -0.00007   0.00035   0.00163   0.00045   0.00004   0.00001
    H47      Z     0.00011  -0.00102  -0.00582  -0.00100  -0.00024  -0.00024
    H48      X     0.00012   0.00319   0.01385  -0.00069  -0.00003  -0.00007
    H48      Y     0.00001   0.00056   0.00241  -0.00025   0.00000  -0.00004
    H48      Z     0.00002   0.00015   0.00127  -0.00009   0.00003   0.00004
    H49      X    -0.00020   0.00027   0.00076  -0.00014  -0.00003  -0.00005
    H49      Y     0.00046  -0.00046  -0.00135   0.00033   0.00007   0.00011
    H49      Z    -0.00009   0.00024   0.00056  -0.00019  -0.00005  -0.00009
    H50      X    -0.00184   0.00007  -0.00008  -0.00018   0.00040   0.00003
    H50      Y    -0.00399   0.00024  -0.00024  -0.00038   0.00033   0.00009
    H50      Z    -0.00167   0.00011  -0.00011  -0.00022   0.00017   0.00002
    H51      X     0.00028  -0.00003  -0.00001   0.00010   0.00015   0.00002
    H51      Y    -0.00198   0.00008  -0.00009  -0.00031  -0.00080   0.00017
    H51      Z     0.00197  -0.00014   0.00014   0.00023   0.00076  -0.00021
    H52      X     0.00017  -0.00037   0.00015  -0.00025   0.00040  -0.00005
    H52      Y    -0.00035   0.00011  -0.00002   0.00004  -0.00003  -0.00001
    H52      Z    -0.00041   0.00043  -0.00018   0.00029   0.00005   0.00007
    N104     X    -0.00000   0.00013  -0.00003  -0.00001  -0.00000   0.04298
    N104     Y     0.00001  -0.00013   0.00008   0.00001  -0.00003  -0.05151
    N104     Z     0.00002   0.00003   0.00003   0.00002  -0.00000   0.01290
    H105     X     0.00001  -0.00108   0.00077   0.00002   0.00006  -0.62630
    H105     Y    -0.00003   0.00181  -0.00085  -0.00009   0.00028   0.70576
    H105     Z     0.00001  -0.00180   0.00048   0.00004  -0.00000  -0.19209
    C107     X    -0.00001  -0.00004   0.00001  -0.00001   0.00000   0.00266
    C107     Y    -0.00002  -0.00001  -0.00009  -0.00002   0.00000  -0.00005
    C107     Z    -0.00001  -0.00002  -0.00004  -0.00002   0.00000   0.00126
    C108     X    -0.00003   0.00003   0.00011  -0.00000  -0.00000   0.00001
    C108     Y    -0.00008   0.00007   0.00014  -0.00001  -0.00000   0.00015
    C108     Z    -0.00004   0.00003   0.00007  -0.00001  -0.00000   0.00004
    C109     X    -0.00001   0.00017   0.00018   0.00001   0.00000  -0.00006
    C109     Y     0.00003  -0.00024  -0.00027   0.00001  -0.00001   0.00074
    C109     Z     0.00000   0.00004   0.00009   0.00001   0.00000   0.00020
    C110     X     0.00000   0.00002  -0.00003  -0.00001  -0.00001  -0.00048
    C110     Y     0.00001   0.00001   0.00003   0.00001  -0.00000   0.00048
    C110     Z     0.00001   0.00000  -0.00005  -0.00000  -0.00000  -0.00033
    C111     X     0.00003  -0.00002  -0.00004   0.00001   0.00000   0.00006
    C111     Y    -0.00006   0.00004   0.00005  -0.00002  -0.00000  -0.00007
    C111     Z     0.00001  -0.00003  -0.00009   0.00000   0.00000   0.00011
    C112     X    -0.00007   0.00009   0.00004  -0.00002  -0.00000  -0.00011
    C112     Y    -0.00000   0.00001  -0.00002  -0.00000   0.00000  -0.00015
    C112     Z    -0.00005   0.00007   0.00002  -0.00001  -0.00000  -0.00003
    H113     X     0.00014  -0.00167  -0.00204  -0.00000  -0.00005  -0.00172
    H113     Y    -0.00024   0.00248   0.00336  -0.00001   0.00009  -0.00083
    H113     Z     0.00003  -0.00037  -0.00067  -0.00001  -0.00003  -0.00223
    H114     X    -0.00006  -0.00025   0.00047   0.00010   0.00010   0.00093
    H114     Y    -0.00002   0.00004  -0.00000  -0.00001   0.00000   0.00098
    H114     Z    -0.00007  -0.00015   0.00035   0.00006   0.00006   0.00052
    H115     X    -0.00035   0.00019   0.00030  -0.00013  -0.00003  -0.00018
    H115     Y     0.00060  -0.00034  -0.00057   0.00023   0.00005  -0.00066
    H115     Z    -0.00014   0.00010   0.00017  -0.00005  -0.00001  -0.00023
    H116     X     0.00082  -0.00104  -0.00031   0.00020  -0.00001   0.00019
    H116     Y    -0.00001  -0.00003   0.00002   0.00000  -0.00000  -0.00002
    H116     Z     0.00056  -0.00071  -0.00024   0.00014  -0.00001   0.00014
    H117     X     0.00032  -0.00026  -0.00049   0.00006   0.00001  -0.00021
    H117     Y     0.00086  -0.00063  -0.00118   0.00017   0.00004  -0.00053
    H117     Z     0.00041  -0.00030  -0.00054   0.00008   0.00002  -0.00053
    Na119    X     0.00000   0.00000  -0.00000   0.00000   0.00000   0.00001
    Na119    Y    -0.00000  -0.00000  -0.00000  -0.00000   0.00000  -0.00008
    Na119    Z    -0.00000   0.00001  -0.00000  -0.00000   0.00000   0.00005
    Br3      X    -0.00000   0.00001  -0.00001  -0.00000  -0.00000   0.00000
    Br3      Y    -0.00000  -0.00000   0.00000   0.00000  -0.00000  -0.00000
    Br3      Z     0.00000  -0.00000   0.00000  -0.00000  -0.00000   0.00000
  
  Number of imaginary frequencies:   0
   
  Writing vibrational animation data to L_Ar_Br_N_Na_N_trans_PL154.vib
  Writing IR vibrational spectrum data to L_Ar_Br_N_Na_N_trans_PL154_vib.spm
  rotational symmetry number:  1

  rotational temperatures (K):      0.005042      0.003614      0.003013
   
  The Quasi-Harmonic approximation will be applied to compute
  vibrational constributions to thermodynamic properties.
  Frequencies will be adjusted to a minimum value of  100.00 cm^-1.

  vibrational temperatures:
       mode:      1        2        3        4        5        6
  temp. (K):   143.88   143.88   143.88   143.88   143.88   143.88
   
       mode:      7        8        9       10       11       12
  temp. (K):   143.88   143.88   143.88   143.88   143.88   143.88
   
       mode:     13       14       15       16       17       18
  temp. (K):   143.88   146.86   161.07   166.92   173.62   177.34
   
       mode:     19       20       21       22       23       24
  temp. (K):   189.06   205.47   219.44   223.02   229.96   249.81
   
       mode:     25       26       27       28       29       30
  temp. (K):   253.59   263.58   267.57   276.77   298.66   304.79
   
       mode:     31       32       33       34       35       36
  temp. (K):   313.83   324.81   335.68   341.79   354.00   365.86
   
       mode:     37       38       39       40       41       42
  temp. (K):   375.02   386.45   390.52   415.13   440.49   452.79
   
       mode:     43       44       45       46       47       48
  temp. (K):   458.36   478.80   501.87   507.84   526.71   529.38
   
       mode:     49       50       51       52       53       54
  temp. (K):   565.42   573.70   580.08   590.42   598.61   605.13
   
       mode:     55       56       57       58       59       60
  temp. (K):   613.28   615.75   622.58   632.54   670.62   703.48
   
       mode:     61       62       63       64       65       66
  temp. (K):   713.41   735.92   747.79   763.31   781.19   795.77
   
       mode:     67       68       69       70       71       72
  temp. (K):   819.70   823.07   835.76   840.50   844.74   865.96
   
       mode:     73       74       75       76       77       78
  temp. (K):   909.48   914.45   916.06   989.93  1024.24  1034.27
   
       mode:     79       80       81       82       83       84
  temp. (K):  1070.70  1087.55  1106.56  1122.75  1131.91  1147.23
   
       mode:     85       86       87       88       89       90
  temp. (K):  1185.73  1187.68  1196.07  1197.16  1197.62  1200.77
   
       mode:     91       92       93       94       95       96
  temp. (K):  1206.03  1210.12  1277.82  1300.90  1307.83  1314.78
   
       mode:     97       98       99      100      101      102
  temp. (K):  1358.66  1372.54  1377.21  1380.50  1384.80  1389.76
   
       mode:    103      104      105      106      107      108
  temp. (K):  1395.13  1412.96  1418.49  1422.64  1432.94  1440.08
   
       mode:    109      110      111      112      113      114
  temp. (K):  1444.66  1447.41  1467.99  1471.85  1475.14  1480.44
   
       mode:    115      116      117      118      119      120
  temp. (K):  1505.63  1519.25  1520.82  1525.21  1527.07  1537.86
   
       mode:    121      122      123      124      125      126
  temp. (K):  1538.68  1551.47  1567.03  1599.82  1600.56  1619.04
   
       mode:    127      128      129      130      131      132
  temp. (K):  1664.33  1675.33  1720.67  1724.52  1735.80  1738.18
   
       mode:    133      134      135      136      137      138
  temp. (K):  1741.71  1748.07  1751.53  1774.43  1777.99  1781.41
   
       mode:    139      140      141      142      143      144
  temp. (K):  1784.00  1794.53  1800.86  1837.34  1850.96  1859.80
   
       mode:    145      146      147      148      149      150
  temp. (K):  1873.28  1896.84  1908.94  1929.45  1937.49  1960.59
   
       mode:    151      152      153      154      155      156
  temp. (K):  1982.71  2003.00  2044.79  2051.99  2052.80  2054.60
   
       mode:    157      158      159      160      161      162
  temp. (K):  2063.98  2072.10  2096.98  2110.59  2114.48  2140.36
   
       mode:    163      164      165      166      167      168
  temp. (K):  2160.86  2164.24  2165.17  2171.02  2173.14  2174.82
   
       mode:    169      170      171      172      173      174
  temp. (K):  2179.15  2181.56  2186.50  2189.43  2197.53  2199.91
   
       mode:    175      176      177      178      179      180
  temp. (K):  2204.88  2209.71  2213.81  2217.34  2222.36  2230.38
   
       mode:    181      182      183      184      185      186
  temp. (K):  2243.76  2335.37  2352.99  2358.29  2360.41  2374.31
   
       mode:    187      188      189      190      191      192
  temp. (K):  2383.20  2387.59  2405.04  4371.42  4378.87  4380.71
   
       mode:    193      194      195      196      197      198
  temp. (K):  4385.44  4389.86  4394.04  4395.63  4476.32  4480.25
   
       mode:    199      200      201      202      203      204
  temp. (K):  4489.29  4496.79  4505.41  4507.42  4509.10  4513.12
   
       mode:    205      206      207      208      209      210
  temp. (K):  4545.86  4545.99  4550.00  4553.89  4563.51  4563.82
   
       mode:    211      212      213      214      215      216
  temp. (K):  4571.94  4579.46  4582.10  4584.55  4586.24  4595.87
   
       mode:    217      218      219      220      221      222
  temp. (K):  4597.06  4598.04  4599.95  4601.47  4605.41  4615.58
   
       mode:    223      224      225      226      227      228
  temp. (K):  4619.92  4634.05  4639.27  4670.97  4693.84  5011.13
   
   
  Thermodynamic properties calculated assuming an ideal gas

  In the table below, the units for temperature
  are kelvins, the units for U, H, and G are
  kcal/mol and the units for Cv and S are cal/(mol K)

  The zero point energy (ZPE):    405.015 kcal/mol
  is not included in U, H, or G in the table below
  
 
  =============================================================================
  Thermodynamic properties for P = 1.00E+00 atm, calculated at   1 temperatures


  T =   298.15 K, P = 1.00E+00 atm
   
                  U         Cv          S          H          G        ln(Q)
              =========  =========  =========  =========  =========  =========
  trans.          0.889      2.981     45.548      1.481    -12.099   20.42087
  rot.            0.889      2.981     37.712      0.889    -10.355   17.47757
  vib.           23.522    152.364    143.417     23.522    -19.238   32.46996
  elec.           0.000      0.000      0.000      0.000      0.000    0.00000
  ----------------------------------------------------------------------------
  total          25.299    158.325    226.678     25.892    -41.692   70.36839
   
   Total internal energy, Utot(SCFE + ZPE + U):   -2078.188505 hartrees
   Total enthalpy, Htot (Utot + nRT), with n=1:   -2078.187560 hartrees
    Total Gibbs free energy, Gtot (Htot - T*S):   -2078.295262 hartrees
   
  end of program freq
   
 Time(freq)  user:       0.839  user+sys:       0.839  wallclock:       0.466
  
  start of program post
  
  Writing input files for PBF
  end of program post
   
 Time(post)  user:       0.311  user+sys:       0.311  wallclock:       0.226

 Total cpu seconds     user:  140289.882   user+sys:  140289.882
  
 Total elapsed time:    17122 seconds

Job L_Ar_Br_N_Na_N_trans_PL154 completed on bp1-compute072 at Tue Dec  2 22:46:17 2025
