Job L_Ar_NaOtBu_Br_O_trans_PL154 started on bp1-compute129.data.bp.acrc.priv at Tue Nov 25 01:30:37 2025
jobid: bp1-compute129-0-692506b8

  +--------------------------------------------------------------------+
  |  Jaguar version 12.5, release 138                                  |
  |                                                                    |
  |  Copyright Schrodinger, Inc.                                       |
  |  All Rights Reserved.                                              |
  |                                                                    |
  |  The following have contributed to Jaguar (listed alphabetically): |
  |  Ty Balduf, Mike Beachy, Chandler Bennett, Art Bochevarov,         |
  |  Dale Braden, Yixiang Cao, Alan Chien, Chris Cortis,               |
  |  Rich Friesner, Jim Furness, Bill Goddard, Hod Greeley,            |
  |  Tom Hughes, Leif Jacobson, Jean-Marc Langlois, Daniel Levine,     |
  |  Rob Murphy, Dean Philipp, Tom Pollard, Murco Ringnalda,           |
  |  Daniel Mainz, Pablo Videla, Mark Watson, Haoyu Yu.                |
  |                                                                    |
  |  Use of this program should be acknowledged in publications as:    |
  |                                                                    |
  |  Jaguar, version 12.5, Schrodinger, Inc., New York, NY, 2024.      |
  |                                                                    |
  |  A. D. Bochevarov, E. Harder, T. F. Hughes, J. R. Greenwood,       |
  |  D. A. Braden, D. M. Philipp, D. Rinaldo, M. D. Halls,             |
  |  J. Zhang, R. A. Friesner, "Jaguar: A High-Performance Quantum     |
  |  Chemistry Software Program with Strengths in Life and Materials   |
  |  Sciences", Int. J. Quantum Chem., 2013, 113(18), 2110-2142.       |
  +--------------------------------------------------------------------+
  
  start of program pre
  
  Job name: L_Ar_NaOtBu_Br_O_trans_PL154
  Executables used: /software/local/apps/schrodinger2024-3/jaguar-v12.5/bin/Linux-x86_64
  Temporary files : /tmp/ar21627/L_Ar_NaOtBu_Br_O_trans_PL154#bp1-compute129-0-692506b8
  Basis file : using default basis file from /software/local/apps/schrodinger2024-3
  Maestro file (input):  L_Ar_NaOtBu_Br_O_trans_PL154.mae
  Maestro file (output): L_Ar_NaOtBu_Br_O_trans_PL154.01.mae
  
 Contents of input file: &gen and (if present) &atomic sections only
 ----------------Contents start----------------
&gen
dftname=b3pw91-d3
basis=6-31G*
numd=5
ip11=2
iaccg=3
isolv=2
igeopt=1
solvent=benzene
ifreq=1
&
&atomic
atom basis
Pd2 lacv3p*
Br117 lacv3p*
&
 -----------------Contents end-----------------
 
  PS calculation requested. Using PS version of 6-31g*
  basis set:               non_standard                    
  net molecular charge:    0
  multiplicity:            1
  
  Using up to  18 threads per process
  
  This run will use ECP on            2  atoms
  number of basis functions....          622
  
 Input geometry:
                                   angstroms
  atom               x                 y                 z
  P1            0.0000000000      0.0000000000      0.0000000000 
  Pd2           0.0000000000      0.0000000000      2.3445237584 
  C73           4.7572357902      0.0000000000      2.7436052540 
  C74           4.0575808254      1.1918968563      2.8730874310 
  C75           2.6674231186      1.1717673209      2.7514252920 
  C76           1.9902475203     -0.0251462719      2.4882976392 
  C77           2.7172986110     -1.2157585941      2.4159240563 
  C78           4.1106551384     -1.2081206031      2.5298064544 
  F79           6.1044741478      0.0154179422      2.8455838519 
  H80           4.5967496187      2.1145852591      3.0708126847 
  H82           2.2091765787     -2.1667951281      2.2856178753 
  H83           4.6901556477     -2.1252603511      2.4651972488 
  H14           2.1187039883      2.1004542291      2.8760092478 
  C3           -0.5298498920     -1.7037817860     -0.4819964896 
  C4            1.7592433014      0.2272633990     -0.7158354725 
  C5           -1.3022171992      1.1260422009     -0.8372580378 
  C6           -0.6663513714     -2.4445558171      1.9941379795 
  C7           -1.7605635011     -2.4850830443      2.9056985655 
  C8           -1.5098843490     -2.8300534063      4.2297393733 
  C9           -0.2208830543     -3.1281803474      4.6795264450 
  C10           0.8581710607     -3.0444801604      3.8104460328 
  C11           0.6364275016     -2.6965121256      2.4777687577 
  C12          -0.8928673247     -2.6181892234      0.5230812754 
  C13          -1.4093459036     -3.8732807739      0.1572122306 
  C14          -1.5562231279     -4.2426211486     -1.1731238026 
  C15          -1.1594046064     -3.3548416640     -2.1721361511 
  C16          -0.6537180624     -2.1076457537     -1.8253404856 
  C17           2.5315764937      1.2803197334      0.0922405963 
  C18           2.4437930806     -1.1423546359     -0.5633683634 
  C19           1.8221712544      0.6207877882     -2.1978277548 
  C20          -2.6086795742      0.7963133915     -0.0950153225 
  C21          -1.5219700018      0.8839048666     -2.3380863789 
  C22          -0.9736328950      2.6192360911     -0.6584591380 
  C23          -3.1578327164     -2.1709168844      2.4420795047 
  H24          -2.3381898626     -2.8518483157      4.9346701361 
  H25          -0.0640737510     -3.3981229041      5.7206697322 
  H26           1.8689027367     -3.2369090853      4.1595148906 
  H27           1.4579429385     -2.7253970101      1.7680209886 
  H28          -1.6755966249     -4.5722229490      0.9469881371 
  H29          -1.9571825799     -5.2211135503     -1.4269671155 
  H30          -1.2434882650     -3.6285225858     -3.2213935525 
  H31          -0.3548221671     -1.4415237156     -2.6230207086 
  H32           2.4041054808      1.1705445428      1.1708679834 
  H33           3.6018658286      1.1808349264     -0.1320845240 
  H34           2.2343987423      2.2951093691     -0.1884096603 
  H35           2.4592489477     -1.4868363219      0.4764421756 
  H36           1.9425290361     -1.9068838768     -1.1668321025 
  H37           3.4805359943     -1.0704569031     -0.9183255068 
  H38           1.3368879340      1.5806794676     -2.4023304455 
  H39           2.8787853866      0.7292178727     -2.4783864343 
  H40           1.3866736128     -0.1424150615     -2.8491765326 
  H41          -2.8758890334     -0.2615272499     -0.1992960746 
  H42          -2.5379086817      1.0350208966      0.9704304059 
  H43          -3.4266755446      1.3912488199     -0.5224943795 
  H44          -1.9793762914     -0.0866705923     -2.5443635876 
  H45          -2.2148002341      1.6518424948     -2.7081475092 
  H46          -0.5983121470      0.9782813390     -2.9196528325 
  H47          -0.6118243511      2.8682884364      0.3374232894 
  H48          -0.2413133251      2.9628650304     -1.3926429988 
  H49          -1.8946719551      3.1927295243     -0.8274778034 
  H50          -3.5181826687     -2.8957218907      1.7014455590 
  H51          -3.1885670579     -1.1841898473      1.9669752498 
  H52          -3.8591502829     -2.1641341696      3.2828723613 
  C104          0.9113302847      0.2084264440      5.5992584422 
  C105          0.1460327742      0.2142543160      6.9468817839 
  C106          1.8447473505     -1.0141048875      5.6185465229 
  C107          1.7531681632      1.4914771723      5.5403733731 
  H108          0.8287383333      0.1390091022      7.8017830574 
  H109         -0.4129727125      1.1545830757      7.0903562966 
  H110         -0.5434524983     -0.6392318110      7.0027107705 
  H111          2.3574451238      1.6226094471      6.4480640846 
  H112          2.4281539927      1.4641835517      4.6839368664 
  H113          1.0932521080      2.3613357540      5.4293845915 
  H114          2.5209477434     -0.9793790144      6.4833757626 
  H115          1.2698102149     -1.9445912073      5.6717539596 
  H116          2.4527108199     -1.0463148878      4.7150975306 
  Br117        -2.8184944330      0.5229487152      2.8290315090 
  O118         -0.0504589666      0.1669074788      4.5706869245 
  Na119        -2.0473783534      0.8693040437      5.3894623747 
   
  principal moments of inertia:
        amu*angstrom^2:              4782.05267              5389.42407              6907.24053
                g*cm^2:          7.94078429E-37          8.94934810E-37          1.14697413E-36
   
  rotational constants:
               cm^(-1):      0.00352519      0.00312791      0.00244057
                   GHz:      0.10568244      0.09377236      0.07316656
   
  Molecular weight:     688.11 amu
   
  Stoichiometry: NaPdC31PH42BrOF
  Molecular Point Group: C1      
  Point Group used: C1
  
 
Number of optimization coordinates:   255
Number of independent coordinates:    255
Number of non-redundant coordinates:  231
Number of frozen coordinates:           0
Number of harmonic constraints:         0
 
Number of geometric degrees of freedom:   231
Maximum geometric degrees of freedom:     231
 " " " " " excluding dummy atoms:         231
 
 
  bond lengths (angstroms):
 
 P1      -Pd2     :   2.344524      P1      -C3      :   1.848225
 P1      -C4      :   1.912853      P1      -C5      :   1.914352
 Pd2     -C76     :   1.995592      Pd2     -O118    :   2.232982
 C73     -C74     :   1.388129      C73     -C78     :   1.386842
 C73     -F79     :   1.351180      C74     -C75     :   1.395616
 C74     -H80     :   1.086808      C75     -C76     :   1.400145
 C75     -H14     :   1.085851      C76     -C77     :   1.396925
 C77     -C78     :   1.398024      C77     -H82     :   1.086111
 C78     -H83     :   1.086803      C3      -C12     :   1.406451
 C3      -C16     :   1.408198      C4      -C17     :   1.535713
 C4      -C18     :   1.538736      C4      -C19     :   1.534641
 C5      -C20     :   1.538340      C5      -C21     :   1.536036
 C5      -C22     :   1.539339      C6      -C7      :   1.424740
 C6      -C11     :   1.412308      C6      -C12     :   1.498488
 C7      -C8      :   1.391017      C7      -C23     :   1.505325
 C8      -C9      :   1.397395      C8      -H24     :   1.087884
 C9      -C10     :   1.388043      C9      -H25     :   1.086940
 C10     -C11     :   1.395092      C10     -H26     :   1.086488
 C11     -H27     :   1.086031      C12     -C13     :   1.405655
 C13     -C14     :   1.388445      C13     -H28     :   1.087730
 C14     -C15     :   1.394146      C14     -H29     :   1.087498
 C15     -C16     :   1.389778      C15     -H30     :   1.087618
 C16     -H31     :   1.081365      C17     -H32     :   1.091667
 C17     -H33     :   1.098061      C17     -H34     :   1.094019
 C18     -H35     :   1.095496      C18     -H36     :   1.095417
 C18     -H37     :   1.098180      C19     -H38     :   1.094858
 C19     -H39     :   1.098592      C19     -H40     :   1.093797
 C20     -H41     :   1.096039      C20     -H42     :   1.094150
 C20     -H43     :   1.098091      C21     -H44     :   1.092606
 C21     -H45     :   1.098493      C21     -H46     :   1.095568
 C22     -H47     :   1.088446      C22     -H48     :   1.092428
 C22     -H49     :   1.098078      C23     -H50     :   1.097148
 C23     -H51     :   1.095582      C23     -H52     :   1.094909
 C104    -C105    :   1.549775      C104    -C106    :   1.538253
 C104    -C107    :   1.535701      C104    -O118    :   1.408802
 C105    -H108    :   1.096633      C105    -H109    :   1.103309
 C105    -H110    :   1.098611      C106    -H114    :   1.098354
 C106    -H115    :   1.095075      C106    -H116    :   1.089439
 C107    -H111    :   1.098294      C107    -H112    :   1.090795
 C107    -H113    :   1.097480      Br117   -Na119   :   2.696366
 O118    -Na119   :   2.269679
 
  bond angles:
 
 C3      -P1      -Pd2     : 105.116879  C4      -P1      -Pd2     : 111.976360
 C4      -P1      -C3      : 105.997112  C5      -P1      -Pd2     : 115.935469
 C5      -P1      -C3      : 103.483848  C5      -P1      -C4      : 113.082669
 C76     -Pd2     -P1      :  94.131495  O118    -Pd2     -P1      : 175.521354
 O118    -Pd2     -C76     :  87.228826  C78     -C73     -C74     : 121.828164
 F79     -C73     -C74     : 119.059610  F79     -C73     -C78     : 119.106877
 C75     -C74     -C73     : 118.786040  H80     -C74     -C73     : 119.728669
 H80     -C74     -C75     : 121.484486  C76     -C75     -C74     : 120.694982
 H14     -C75     -C74     : 118.752119  H14     -C75     -C76     : 120.549209
 C75     -C76     -Pd2     : 119.020278  C77     -C76     -Pd2     : 121.740892
 C77     -C76     -C75     : 119.118121  C78     -C77     -C76     : 120.653911
 H82     -C77     -C76     : 120.599563  H82     -C77     -C78     : 118.739707
 C77     -C78     -C73     : 118.815189  H83     -C78     -C73     : 119.716090
 H83     -C78     -C77     : 121.465334  C12     -C3      -P1      : 119.141717
 C16     -C3      -P1      : 122.573192  C16     -C3      -C12     : 118.199564
 C17     -C4      -P1      : 110.309113  C18     -C4      -P1      : 105.445492
 C18     -C4      -C17     : 109.540519  C19     -C4      -P1      : 115.439866
 C19     -C4      -C17     : 108.160519  C19     -C4      -C18     : 107.799614
 C20     -C5      -P1      : 103.922197  C21     -C5      -P1      : 115.589968
 C21     -C5      -C20     : 108.430129  C22     -C5      -P1      : 111.998033
 C22     -C5      -C20     : 109.460384  C22     -C5      -C21     : 107.273978
 C11     -C6      -C7      : 118.965046  C12     -C6      -C7      : 120.577640
 C12     -C6      -C11     : 117.061044  C8      -C7      -C6      : 118.532126
 C23     -C7      -C6      : 120.656497  C23     -C7      -C8      : 120.809915
 C9      -C8      -C7      : 121.703300  H24     -C8      -C7      : 118.982294
 H24     -C8      -C9      : 119.306885  C10     -C9      -C8      : 120.178395
 H25     -C9      -C8      : 119.628511  H25     -C9      -C10     : 120.169683
 C11     -C10     -C9      : 119.313298  H26     -C10     -C9      : 120.753608
 H26     -C10     -C11     : 119.930329  C10     -C11     -C6      : 121.213983
 H27     -C11     -C6      : 118.602223  H27     -C11     -C10     : 119.829472
 C6      -C12     -C3      : 125.957636  C13     -C12     -C3      : 119.297593
 C13     -C12     -C6      : 114.489202  C14     -C13     -C12     : 121.720509
 H28     -C13     -C12     : 118.339460  H28     -C13     -C14     : 119.925002
 C15     -C14     -C13     : 119.149091  H29     -C14     -C13     : 120.132406
 H29     -C14     -C15     : 120.706635  C16     -C15     -C14     : 119.750047
 H30     -C15     -C14     : 120.601246  H30     -C15     -C16     : 119.648619
 C15     -C16     -C3      : 121.831192  H31     -C16     -C3      : 120.179341
 H31     -C16     -C15     : 117.989254  H32     -C17     -C4      : 113.093147
 H33     -C17     -C4      : 108.697611  H33     -C17     -H32     : 107.851764
 H34     -C17     -C4      : 111.374170  H34     -C17     -H32     : 108.362252
 H34     -C17     -H33     : 107.241519  H35     -C18     -C4      : 112.347178
 H36     -C18     -C4      : 111.288452  H36     -C18     -H35     : 108.052256
 H37     -C18     -C4      : 109.249860  H37     -C18     -H35     : 108.304136
 H37     -C18     -H36     : 107.435457  H38     -C19     -C4      : 112.769134
 H39     -C19     -C4      : 108.141597  H39     -C19     -H38     : 106.981867
 H40     -C19     -C4      : 112.322148  H40     -C19     -H38     : 108.907169
 H40     -C19     -H39     : 107.441342  H41     -C20     -C5      : 111.593065
 H42     -C20     -C5      : 111.601215  H42     -C20     -H41     : 108.601239
 H43     -C20     -C5      : 109.188746  H43     -C20     -H41     : 107.713668
 H43     -C20     -H42     : 108.002701  H44     -C21     -C5      : 112.605900
 H45     -C21     -C5      : 108.010392  H45     -C21     -H44     : 107.059461
 H46     -C21     -C5      : 112.610995  H46     -C21     -H44     : 109.223370
 H46     -C21     -H45     : 107.019209  H47     -C22     -C5      : 113.527291
 H48     -C22     -C5      : 111.725293  H48     -C22     -H47     : 108.669241
 H49     -C22     -C5      : 108.040699  H49     -C22     -H47     : 107.466305
 H49     -C22     -H48     : 107.130636  H50     -C23     -C7      : 112.018031
 H51     -C23     -C7      : 110.338499  H51     -C23     -H50     : 107.039687
 H52     -C23     -C7      : 111.059327  H52     -C23     -H50     : 108.185718
 H52     -C23     -H51     : 108.026725  C106    -C104    -C105    : 106.961678
 C107    -C104    -C105    : 107.511529  C107    -C104    -C106    : 109.380883
 O118    -C104    -C105    : 107.328804  O118    -C104    -C106    : 113.578010
 O118    -C104    -C107    : 111.769213  H108    -C105    -C104    : 111.728155
 H109    -C105    -C104    : 111.498629  H109    -C105    -H108    : 105.814572
 H110    -C105    -C104    : 110.559683  H110    -C105    -H108    : 107.324764
 H110    -C105    -H109    : 109.726413  H114    -C106    -C104    : 110.997273
 H115    -C106    -C104    : 110.936158  H115    -C106    -H114    : 108.169870
 H116    -C106    -C104    : 110.592976  H116    -C106    -H114    : 108.079355
 H116    -C106    -H115    : 107.948374  H111    -C107    -C104    : 111.695232
 H112    -C107    -C104    : 110.390348  H112    -C107    -H111    : 108.144566
 H113    -C107    -C104    : 109.661201  H113    -C107    -H111    : 108.649653
 H113    -C107    -H112    : 108.210913  C104    -O118    -Pd2     : 135.614551
 Na119   -O118    -Pd2     : 113.744375  Na119   -O118    -C104    : 109.156817
 O118    -Na119   -Br117   :  82.490227
 
  torsional angles:
 
 P1      -Pd2     -C76     -C75     : 100.101839
 P1      -Pd2     -C76     -C77     : -83.928870
 P1      -Pd2     -O118    -C104    :-108.836942
 P1      -Pd2     -O118    -Na119   :  55.308245
 P1      -C3      -C12     -C6      : -11.775548
 P1      -C3      -C12     -C13     : 174.368736
 P1      -C3      -C16     -C15     :-174.533115
 P1      -C3      -C16     -H31     :   5.295278
 P1      -C4      -C17     -H32     :  43.552166
 P1      -C4      -C17     -H33     : 163.296794
 P1      -C4      -C17     -H34     : -78.767419
 P1      -C4      -C18     -H35     : -57.359164
 P1      -C4      -C18     -H36     :  63.957422
 P1      -C4      -C18     -H37     :-177.573173
 P1      -C4      -C19     -H38     :  61.302592
 P1      -C4      -C19     -H39     : 179.391947
 P1      -C4      -C19     -H40     : -62.216965
 P1      -C5      -C20     -H41     : -60.179300
 P1      -C5      -C20     -H42     :  61.534829
 P1      -C5      -C20     -H43     :-179.140365
 P1      -C5      -C21     -H44     :  67.308346
 P1      -C5      -C21     -H45     :-174.688135
 P1      -C5      -C21     -H46     : -56.731252
 P1      -C5      -C22     -H47     : -41.038724
 P1      -C5      -C22     -H48     :  82.280505
 P1      -C5      -C22     -H49     :-160.122597
 Pd2     -P1      -C3      -C12     :   3.505128
 Pd2     -P1      -C3      -C16     :-179.920365
 Pd2     -P1      -C4      -C17     : -41.028675
 Pd2     -P1      -C4      -C18     :  77.152704
 Pd2     -P1      -C4      -C19     :-163.990076
 Pd2     -P1      -C5      -C20     : -47.675647
 Pd2     -P1      -C5      -C21     :-166.351595
 Pd2     -P1      -C5      -C22     :  70.380189
 Pd2     -C76     -C75     -C74     : 179.318330
 Pd2     -C76     -C75     -H14     :   0.025842
 Pd2     -C76     -C77     -C78     :-179.501083
 Pd2     -C76     -C77     -H82     :  -0.463083
 Pd2     -O118    -C104    -C105    :-175.295038
 Pd2     -O118    -C104    -C106    : -57.285794
 Pd2     -O118    -C104    -C107    :  67.058614
 Pd2     -O118    -Na119   -Br117   :   8.640493
 C73     -C74     -C75     -C76     :  -0.726754
 C73     -C74     -C75     -H14     : 178.578256
 C73     -C78     -C77     -C76     :   1.310696
 C73     -C78     -C77     -H82     :-177.744934
 C74     -C73     -C78     -C77     :   1.291073
 C74     -C73     -C78     -H83     :-178.049371
 C74     -C75     -C76     -C77     :   3.241909
 C75     -C74     -C73     -C78     :  -1.578611
 C75     -C74     -C73     -F79     : 179.270542
 C75     -C76     -Pd2     -O118    : -75.623244
 C75     -C76     -C77     -C78     :  -3.535626
 C75     -C76     -C77     -H82     : 175.502373
 C76     -Pd2     -P1      -C3      : 106.551010
 C76     -Pd2     -P1      -C4      :  -8.084724
 C76     -Pd2     -P1      -C5      :-139.873530
 C76     -Pd2     -O118    -C104    :  -1.034614
 C76     -Pd2     -O118    -Na119   : 163.110573
 C76     -C75     -C74     -H80     : 179.600812
 C76     -C77     -C78     -H83     :-179.360874
 C77     -C76     -Pd2     -O118    : 100.346048
 C77     -C76     -C75     -H14     :-176.050579
 C77     -C78     -C73     -F79     :-179.558469
 C78     -C73     -C74     -H80     : 178.099709
 F79     -C73     -C74     -H80     :  -1.051138
 F79     -C73     -C78     -H83     :   1.101086
 H80     -C74     -C75     -H14     :  -1.094178
 H82     -C77     -C78     -H83     :   1.583497
 C3      -P1      -Pd2     -O118    :-145.904152
 C3      -P1      -C4      -C17     :-155.123312
 C3      -P1      -C4      -C18     : -36.941932
 C3      -P1      -C4      -C19     :  81.915287
 C3      -P1      -C5      -C20     :  66.832960
 C3      -P1      -C5      -C21     : -51.842988
 C3      -P1      -C5      -C22     :-175.111203
 C3      -C12     -C6      -C7      : 122.577969
 C3      -C12     -C6      -C11     : -78.434046
 C3      -C12     -C13     -C14     :   0.802333
 C3      -C12     -C13     -H28     : 179.390414
 C3      -C16     -C15     -C14     :  -0.153059
 C3      -C16     -C15     -H30     : 179.740032
 C4      -P1      -Pd2     -O118    :  99.460114
 C4      -P1      -C3      -C12     : 122.236219
 C4      -P1      -C3      -C16     : -61.189274
 C4      -P1      -C5      -C20     :-178.946272
 C4      -P1      -C5      -C21     :  62.377780
 C4      -P1      -C5      -C22     : -60.890436
 C5      -P1      -Pd2     -O118    : -32.328692
 C5      -P1      -C3      -C12     :-118.544297
 C5      -P1      -C3      -C16     :  58.030210
 C5      -P1      -C4      -C17     :  92.179819
 C5      -P1      -C4      -C18     :-149.638802
 C5      -P1      -C4      -C19     : -30.781582
 C6      -C7      -C8      -C9      :   0.290054
 C6      -C7      -C8      -H24     : 179.285148
 C6      -C7      -C23     -H50     :  63.806142
 C6      -C7      -C23     -H51     : -55.337607
 C6      -C7      -C23     -H52     :-175.098870
 C6      -C11     -C10     -C9      :  -0.796455
 C6      -C11     -C10     -H26     : 179.803905
 C6      -C12     -C3      -C16     : 171.499735
 C6      -C12     -C13     -C14     :-173.734714
 C6      -C12     -C13     -H28     :   4.853366
 C7      -C6      -C11     -C10     :   3.084391
 C7      -C6      -C11     -H27     : 176.237356
 C7      -C6      -C12     -C13     : -63.309167
 C7      -C8      -C9      -C10     :   2.033696
 C7      -C8      -C9      -H25     :-179.723080
 C8      -C7      -C6      -C11     :  -2.787609
 C8      -C7      -C6      -C12     : 155.807276
 C8      -C7      -C23     -H50     :-115.747407
 C8      -C7      -C23     -H51     : 125.108844
 C8      -C7      -C23     -H52     :   5.347581
 C8      -C9      -C10     -C11     :  -1.767401
 C8      -C9      -C10     -H26     : 177.627168
 C9      -C8      -C7      -C23     : 179.852907
 C9      -C10     -C11     -H27     :-173.866501
 C10     -C9      -C8      -H24     :-176.958218
 C10     -C11     -C6      -C12     :-156.254702
 C11     -C6      -C7      -C23     : 177.648842
 C11     -C6      -C12     -C13     :  95.678818
 C11     -C10     -C9      -H25     : 179.998945
 C12     -C3      -C16     -C15     :   2.072092
 C12     -C3      -C16     -H31     :-178.099515
 C12     -C6      -C7      -C23     : -23.756272
 C12     -C6      -C11     -H27     :  16.898263
 C12     -C13     -C14     -C15     :   1.141261
 C12     -C13     -C14     -H29     : 179.897071
 C13     -C12     -C3      -C16     :  -2.355980
 C13     -C14     -C15     -C16     :  -1.459920
 C13     -C14     -C15     -H30     : 178.648025
 C14     -C15     -C16     -H31     :-179.985063
 C15     -C14     -C13     -H28     :-177.424868
 C16     -C15     -C14     -H29     : 179.791615
 C17     -C4      -C18     -H35     :  61.336658
 C17     -C4      -C18     -H36     :-177.346757
 C17     -C4      -C18     -H37     : -58.877352
 C17     -C4      -C19     -H38     : -62.790386
 C17     -C4      -C19     -H39     :  55.298969
 C17     -C4      -C19     -H40     : 173.690056
 C18     -C4      -C17     -H32     : -72.085679
 C18     -C4      -C17     -H33     :  47.658949
 C18     -C4      -C17     -H34     : 165.594736
 C18     -C4      -C19     -H38     : 178.849063
 C18     -C4      -C19     -H39     : -63.061582
 C18     -C4      -C19     -H40     :  55.329506
 C19     -C4      -C17     -H32     : 170.669408
 C19     -C4      -C17     -H33     : -69.585964
 C19     -C4      -C17     -H34     :  48.349823
 C19     -C4      -C18     -H35     : 178.807936
 C19     -C4      -C18     -H36     : -59.875479
 C19     -C4      -C18     -H37     :  58.593926
 C20     -C5      -C21     -H44     : -48.845622
 C20     -C5      -C21     -H45     :  69.157897
 C20     -C5      -C21     -H46     :-172.885220
 C20     -C5      -C22     -H47     :  73.667372
 C20     -C5      -C22     -H48     :-163.013399
 C20     -C5      -C22     -H49     : -45.416501
 C21     -C5      -C20     -H41     :  63.301952
 C21     -C5      -C20     -H42     :-174.983920
 C21     -C5      -C20     -H43     : -55.659114
 C21     -C5      -C22     -H47     :-168.879784
 C21     -C5      -C22     -H48     : -45.560555
 C21     -C5      -C22     -H49     :  72.036343
 C22     -C5      -C20     -H41     :-179.973221
 C22     -C5      -C20     -H42     : -58.259093
 C22     -C5      -C20     -H43     :  61.065713
 C22     -C5      -C21     -H44     :-166.969553
 C22     -C5      -C21     -H45     : -48.966034
 C22     -C5      -C21     -H46     :  68.990849
 C23     -C7      -C8      -H24     :  -1.151999
 H24     -C8      -C9      -H25     :   1.285006
 H25     -C9      -C10     -H26     :  -0.606485
 H26     -C10     -C11     -H27     :   6.733859
 H28     -C13     -C14     -H29     :   1.330941
 H29     -C14     -C15     -H30     :  -0.100440
 H30     -C15     -C16     -H31     :  -0.091972
 C104    -O118    -Na119   -Br117   : 176.968913
 C105    -C104    -C106    -H114    : -57.079247
 C105    -C104    -C106    -H115    :  63.216639
 C105    -C104    -C106    -H116    :-177.033412
 C105    -C104    -C107    -H111    :  50.916845
 C105    -C104    -C107    -H112    : 171.277752
 C105    -C104    -C107    -H113    : -69.588227
 C105    -C104    -O118    -Na119   :  20.056135
 C106    -C104    -C105    -H108    :  51.751669
 C106    -C104    -C105    -H109    : 169.933730
 C106    -C104    -C105    -H110    : -67.710112
 C106    -C104    -C107    -H111    : -64.886196
 C106    -C104    -C107    -H112    :  55.474712
 C106    -C104    -C107    -H113    : 174.608733
 C106    -C104    -O118    -Na119   : 138.065379
 C107    -C104    -C105    -H108    : -65.637459
 C107    -C104    -C105    -H109    :  52.544602
 C107    -C104    -C105    -H110    : 174.900761
 C107    -C104    -C106    -H114    :  59.073900
 C107    -C104    -C106    -H115    : 179.369786
 C107    -C104    -C106    -H116    : -60.880265
 C107    -C104    -O118    -Na119   : -97.590213
 H108    -C105    -C104    -O118    : 173.976099
 H109    -C105    -C104    -O118    : -67.841841
 H110    -C105    -C104    -O118    :  54.514318
 H111    -C107    -C104    -O118    : 168.453485
 H112    -C107    -C104    -O118    : -71.185607
 H113    -C107    -C104    -O118    :  47.948414
 H114    -C106    -C104    -O118    :-175.300473
 H115    -C106    -C104    -O118    : -55.004587
 H116    -C106    -C104    -O118    :  64.745363
 
  nuclear repulsion energy.......          5383.575919470 hartrees
  
  Detected an organometallic with only one TM atom. 
  
  Oxidation state on metal       2 is     2
  Formal multiplet on metal      2 is     1
  Formal charge on ligand        3 is    -1
  Formal multiplet on ligand     3 is     1
  Formal charge on ligand        4 is    -1
  Formal multiplet on ligand     4 is     1
  
 
  Will use High-Quality Initial guess for organometallics
       including d-d repulsion (iguess=30)
 
 Non-default options chosen:
   SCF calculation type: DFT(b3pw91-d3)              
   DFT=Becke_3_Parameter/HF+Slater+Becke88+PW91+PW-GGAIIC (B3PW91-D3)
   Geometry will be optimized in redundant internal coordinates
   Solvation energy will be computed using PBF
     -solute cavity energy will not be included
     -surface area terms will not be included
   Vibrational frequencies and related properties will be computed
      from analytic second derivatives
   IR intensities will be computed
   Thermochemical properties will be computed
   Maximum number of geometry steps: 100
   Scaling standard convergence criteria by a factor of   5.00
   Solvent: benzene                                                         
   Internal dielectric constant:    1.000
   Continuum dielectric constant:   2.283
   Solvent probe molecule radius:   2.600
  
 Non-default print settings:
     11=  2
  
 Temporary integer options set:
     21= -1  73=  2
  
  atom       vdw   vdw2    cov     mass  grid  daf  charge   basis
  P1        2.147  2.074  1.060   30.974    Y    Y      Y    ps_6-31g*
  Pd2       1.450  1.450  1.280  105.903    Y    Y      Y    lacv3p*
  C73       1.949  1.900  0.770   12.000    Y    Y      Y    ps_6-31g*
  C74       1.949  1.900  0.770   12.000    Y    Y      Y    ps_6-31g*
  C75       1.949  1.900  0.770   12.000    Y    Y      Y    ps_6-31g*
  C76       1.949  1.900  0.770   12.000    Y    Y      Y    ps_6-31g*
  C77       1.949  1.900  0.770   12.000    Y    Y      Y    ps_6-31g*
  C78       1.949  1.900  0.770   12.000    Y    Y      Y    ps_6-31g*
  F79       1.736  1.682  0.720   18.998    Y    Y      Y    ps_6-31g*
  H80       1.597  1.150  0.320    1.008    Y    Y      Y    ps_6-31g*
  H82       1.597  1.150  0.320    1.008    Y    Y      Y    ps_6-31g*
  H83       1.597  1.150  0.320    1.008    Y    Y      Y    ps_6-31g*
  H14       1.597  1.150  0.320    1.008    Y    Y      Y    ps_6-31g*
  C3        1.949  1.900  0.770   12.000    Y    Y      Y    ps_6-31g*
  C4        1.949  1.900  0.770   12.000    Y    Y      Y    ps_6-31g*
  C5        1.949  1.900  0.770   12.000    Y    Y      Y    ps_6-31g*
  C6        1.949  1.900  0.770   12.000    Y    Y      Y    ps_6-31g*
  C7        1.949  1.900  0.770   12.000    Y    Y      Y    ps_6-31g*
  C8        1.949  1.900  0.770   12.000    Y    Y      Y    ps_6-31g*
  C9        1.949  1.900  0.770   12.000    Y    Y      Y    ps_6-31g*
  C10       1.949  1.900  0.770   12.000    Y    Y      Y    ps_6-31g*
  C11       1.949  1.900  0.770   12.000    Y    Y      Y    ps_6-31g*
  C12       1.949  1.900  0.770   12.000    Y    Y      Y    ps_6-31g*
  C13       1.949  1.900  0.770   12.000    Y    Y      Y    ps_6-31g*
  C14       1.949  1.900  0.770   12.000    Y    Y      Y    ps_6-31g*
  C15       1.949  1.900  0.770   12.000    Y    Y      Y    ps_6-31g*
  C16       1.949  1.900  0.770   12.000    Y    Y      Y    ps_6-31g*
  C17       1.949  1.900  0.770   12.000    Y    Y      Y    ps_6-31g*
  C18       1.949  1.900  0.770   12.000    Y    Y      Y    ps_6-31g*
  C19       1.949  1.900  0.770   12.000    Y    Y      Y    ps_6-31g*
  C20       1.949  1.900  0.770   12.000    Y    Y      Y    ps_6-31g*
  C21       1.949  1.900  0.770   12.000    Y    Y      Y    ps_6-31g*
  C22       1.949  1.900  0.770   12.000    Y    Y      Y    ps_6-31g*
  C23       1.949  1.900  0.770   12.000    Y    Y      Y    ps_6-31g*
  H24       1.597  1.150  0.320    1.008    Y    Y      Y    ps_6-31g*
  H25       1.597  1.150  0.320    1.008    Y    Y      Y    ps_6-31g*
  H26       1.597  1.150  0.320    1.008    Y    Y      Y    ps_6-31g*
  H27       1.597  1.150  0.320    1.008    Y    Y      Y    ps_6-31g*
  H28       1.597  1.150  0.320    1.008    Y    Y      Y    ps_6-31g*
  H29       1.597  1.150  0.320    1.008    Y    Y      Y    ps_6-31g*
  H30       1.597  1.150  0.320    1.008    Y    Y      Y    ps_6-31g*
  H31       1.597  1.150  0.320    1.008    Y    Y      Y    ps_6-31g*
  H32       1.597  1.150  0.320    1.008    Y    Y      Y    ps_6-31g*
  H33       1.597  1.150  0.320    1.008    Y    Y      Y    ps_6-31g*
  H34       1.597  1.150  0.320    1.008    Y    Y      Y    ps_6-31g*
  H35       1.597  1.150  0.320    1.008    Y    Y      Y    ps_6-31g*
  H36       1.597  1.150  0.320    1.008    Y    Y      Y    ps_6-31g*
  H37       1.597  1.150  0.320    1.008    Y    Y      Y    ps_6-31g*
  H38       1.597  1.150  0.320    1.008    Y    Y      Y    ps_6-31g*
  H39       1.597  1.150  0.320    1.008    Y    Y      Y    ps_6-31g*
  H40       1.597  1.150  0.320    1.008    Y    Y      Y    ps_6-31g*
  H41       1.597  1.150  0.320    1.008    Y    Y      Y    ps_6-31g*
  H42       1.597  1.150  0.320    1.008    Y    Y      Y    ps_6-31g*
  H43       1.597  1.150  0.320    1.008    Y    Y      Y    ps_6-31g*
  H44       1.597  1.150  0.320    1.008    Y    Y      Y    ps_6-31g*
  H45       1.597  1.150  0.320    1.008    Y    Y      Y    ps_6-31g*
  H46       1.597  1.150  0.320    1.008    Y    Y      Y    ps_6-31g*
  H47       1.597  1.150  0.320    1.008    Y    Y      Y    ps_6-31g*
  H48       1.597  1.150  0.320    1.008    Y    Y      Y    ps_6-31g*
  H49       1.597  1.150  0.320    1.008    Y    Y      Y    ps_6-31g*
  H50       1.597  1.150  0.320    1.008    Y    Y      Y    ps_6-31g*
  H51       1.597  1.150  0.320    1.008    Y    Y      Y    ps_6-31g*
  H52       1.597  1.150  0.320    1.008    Y    Y      Y    ps_6-31g*
  C104      1.949  1.900  0.770   12.000    Y    Y      Y    ps_6-31g*
  C105      1.949  1.900  0.770   12.000    Y    Y      Y    ps_6-31g*
  C106      1.949  1.900  0.770   12.000    Y    Y      Y    ps_6-31g*
  C107      1.949  1.900  0.770   12.000    Y    Y      Y    ps_6-31g*
  H108      1.597  1.150  0.320    1.008    Y    Y      Y    ps_6-31g*
  H109      1.597  1.150  0.320    1.008    Y    Y      Y    ps_6-31g*
  H110      1.597  1.150  0.320    1.008    Y    Y      Y    ps_6-31g*
  H111      1.597  1.150  0.320    1.008    Y    Y      Y    ps_6-31g*
  H112      1.597  1.150  0.320    1.008    Y    Y      Y    ps_6-31g*
  H113      1.597  1.150  0.320    1.008    Y    Y      Y    ps_6-31g*
  H114      1.597  1.150  0.320    1.008    Y    Y      Y    ps_6-31g*
  H115      1.597  1.150  0.320    1.008    Y    Y      Y    ps_6-31g*
  H116      1.597  1.150  0.320    1.008    Y    Y      Y    ps_6-31g*
  Br117     2.095  2.095  1.140   78.918    Y    Y      Y    lav3p*
  O118      1.702  1.600  0.730   15.995    Y    Y      Y    ps_6-31g*
  Na119     2.308  1.492  1.540   22.990    Y    Y      Y    ps_6-31g*
 
  atom      formal  2spin      esp    mulk    frag
  P1           0       0        Y    0.000       0
  Pd2          2       0        Y    0.000       0
  C73         -1       0        Y    0.000       0
  C104        -1       0        Y    0.000       0
  
  end of program pre
   
 Time(pre)  user:       5.188  user+sys:       5.188  wallclock:       0.973
  
  start of program onee
  
  smallest eigenvalue of S:    3.922E-04
  number of canonical orbitals.....          619
  end of program onee
   
 Time(onee)  user:      11.259  user+sys:      11.259  wallclock:       1.880
  
  start of program hfig
  
  initial wavefunction generated automatically from atomic wavefunctions
  Only one state below 0.010000
  Skip d-d repulsion considerations 
 
  Irreducible     Total no   No of occupied orbitals 
  representation  orbitals   Shell_1  Shell_2    ...
  No Symm          619        148
  ------------------------
  Orbital occupation/shell    1.000
 
  end of program hfig
   
 Time(hfig)  user:       2.694  user+sys:       2.694  wallclock:       0.943
  
  start of program probe
  
  end of program probe
   
 Time(probe)  user:       1.426  user+sys:       1.426  wallclock:       0.332
  
  start of program grid
  
   grid     grid set  grid #  grid sym
  ------    --------  ------  --------
  coarse        0        0        1
  medium        2        1        1
  fine          0        0        1
  ultrafine     4        2        1
  charge       -1        3        1
  gradient      4        2        1
  density       0        0        1
  DFT-fine    -11        4        1
  DFT-med.    -10        5        1
  DFT-grad    -12        6        1
  DFT-der2     -8        7        1
  DFT-cphf     -9        8        1
  LMP2-enrg     4        2        1
  LMP2-grad     2        1        1
  DFT-cphf2   -15        9        1
  PBF-dens      0        0        1
  plotting      0        0        1
  Rel-grad    -17        0        1
  
  number of gridpoints: 
     atom           P1         Pd2         C73         C74         C75         C76         C77
  grid # 1         611         352          76          91          90          96          91
  grid # 2         429         302         329         315         284         368         307
  grid # 3           8         215          20           8           6           6           6
  grid # 4        8582        8582        8582        8582        8582        8582        8582
  grid # 5        1192        1192        1192        1192        1192        1192        1192
  grid # 6        9488        9488        6164        6164        6164        6164        6164
  grid # 7       23054       32756       14018       14018       14018       14018       14018
  grid # 8         724        1144         750         750         750         750         750
  grid # 9         380        2168         406         406         406         406         406
   
  number of gridpoints: 
     atom          C78         F79         H80         H82         H83         H14          C3
  grid # 1          92         584         112          83         113         106          93
  grid # 2         317         565         462         360         462         436         379
  grid # 3          12         352         366          33         367         165           8
  grid # 4        8582        8582        8582        8582        8582        8582        8582
  grid # 5        1192        1192        1192        1192        1192        1192        1192
  grid # 6        6164        6164        6164        6164        6164        6164        6164
  grid # 7       14018       23160       15170       15170       15170       15170       14018
  grid # 8         750         778         792         792         792         792         750
  grid # 9         406         424         420         420         420         420         406
   
  number of gridpoints: 
     atom           C4          C5          C6          C7          C8          C9         C10
  grid # 1          88          87          97          98          94          94          95
  grid # 2         366         367         358         360         326         321         321
  grid # 3           6           6           7          12          22          29          25
  grid # 4        8582        8582        8582        8582        8582        8582        8582
  grid # 5        1192        1192        1192        1192        1192        1192        1192
  grid # 6        6164        6164        6164        6164        6164        6164        6164
  grid # 7       14018       14018       14018       14018       14018       14018       14018
  grid # 8         750         750         750         750         750         750         750
  grid # 9         406         406         406         406         406         406         406
   
  number of gridpoints: 
     atom          C11         C12         C13         C14         C15         C16         C17
  grid # 1          92          98          95          97          95          94          79
  grid # 2         317         356         325         324         324         322         240
  grid # 3          15          12          26          43          33          11           6
  grid # 4        8582        8582        8582        8582        8582        8582        8582
  grid # 5        1192        1192        1192        1192        1192        1192        1192
  grid # 6        6164        6164        6164        6164        6164        6164        6164
  grid # 7       14018       14018       14018       14018       14018       14018       14018
  grid # 8         750         750         750         750         750         750         750
  grid # 9         406         406         406         406         406         406         406
   
  number of gridpoints: 
     atom          C18         C19         C20         C21         C22         C23         H24
  grid # 1          80          80          78          81          81          81         113
  grid # 2         235         237         241         235         237         234         453
  grid # 3           6           6           6           6           6           6         254
  grid # 4        8582        8582        8582        8582        8582        8582        8582
  grid # 5        1192        1192        1192        1192        1192        1192        1192
  grid # 6        6164        6164        6164        6164        6164        6164        6164
  grid # 7       14018       14018       14018       14018       14018       14018       15170
  grid # 8         750         750         750         750         750         750         792
  grid # 9         406         406         406         406         406         406         420
   
  number of gridpoints: 
     atom          H25         H26         H27         H28         H29         H30         H31
  grid # 1         108         108          90         115         118         118         102
  grid # 2         449         439         379         453         468         466         427
  grid # 3         292         239         130         287         424         416         105
  grid # 4        8582        8582        8582        8582        8582        8582        8582
  grid # 5        1192        1192        1192        1192        1192        1192        1192
  grid # 6        6164        6164        6164        6164        6164        6164        6164
  grid # 7       15170       15170       15170       15170       15170       15170       15170
  grid # 8         792         792         792         792         792         792         792
  grid # 9         420         420         420         420         420         420         420
   
  number of gridpoints: 
     atom          H32         H33         H34         H35         H36         H37         H38
  grid # 1          96         106         105          97         105         107         102
  grid # 2         398         441         441         407         436         442         425
  grid # 3          25         201         211          50         180         248         143
  grid # 4        8582        8582        8582        8582        8582        8582        8582
  grid # 5        1192        1192        1192        1192        1192        1192        1192
  grid # 6        6164        6164        6164        6164        6164        6164        6164
  grid # 7       15170       15170       15170       15170       15170       15170       15170
  grid # 8         792         792         792         792         792         792         792
  grid # 9         420         420         420         420         420         420         420
   
  number of gridpoints: 
     atom          H39         H40         H41         H42         H43         H44         H45
  grid # 1         109         102         103          85         108         102         109
  grid # 2         447         425         433         420         447         431         446
  grid # 3         268         168         144          67         266         182         264
  grid # 4        8582        8582        8582        8582        8582        8582        8582
  grid # 5        1192        1192        1192        1192        1192        1192        1192
  grid # 6        6164        6164        6164        6164        6164        6164        6164
  grid # 7       15170       15170       15170       15170       15170       15170       15170
  grid # 8         792         792         792         792         792         792         792
  grid # 9         420         420         420         420         420         420         420
   
  number of gridpoints: 
     atom          H46         H47         H48         H49         H50         H51         H52
  grid # 1         103         104         105         108         107          90         109
  grid # 2         421         444         435         446         444         417         449
  grid # 3         134         196         191         262         256          69         244
  grid # 4        8582        8582        8582        8582        8582        8582        8582
  grid # 5        1192        1192        1192        1192        1192        1192        1192
  grid # 6        6164        6164        6164        6164        6164        6164        6164
  grid # 7       15170       15170       15170       15170       15170       15170       15170
  grid # 8         792         792         792         792         792         792         792
  grid # 9         420         420         420         420         420         420         420
   
  number of gridpoints: 
     atom         C104        C105        C106        C107        H108        H109        H110
  grid # 1          90          78          81          81         107         101         101
  grid # 2         327         241         239         240         445         439         441
  grid # 3           6           6           6           6         271         208         195
  grid # 4        8582        8582        8582        8582        8582        8582        8582
  grid # 5        1192        1192        1192        1192        1192        1192        1192
  grid # 6        6164        6164        6164        6164        6164        6164        6164
  grid # 7       14018       14018       14018       14018       15170       15170       15170
  grid # 8         750         750         750         750         792         792         792
  grid # 9         406         406         406         406         420         420         420
   
  number of gridpoints: 
     atom         H111        H112        H113        H114        H115        H116       Br117
  grid # 1         108          98         108         108         100         103         469
  grid # 2         450         411         449         450         408         418         415
  grid # 3         285          64         233         275          63          63         139
  grid # 4        8582        8582        8582        8582        8582        8582        8582
  grid # 5        1192        1192        1192        1192        1192        1192        1192
  grid # 6        6164        6164        6164        6164        6164        6164        9488
  grid # 7       15170       15170       15170       15170       15170       15170       11604
  grid # 8         792         792         792         792         792         792         714
  grid # 9         420         420         420         420         420         420         360
   
  number of gridpoints: 
     atom         O118       Na119       total
  grid # 1         115         696        9952
  grid # 2         475         651       30489
  grid # 3          14         263        9874
  grid # 4        8582        8582      677978
  grid # 5        1192        1192       94168
  grid # 6        6164        9488      500252
  grid # 7       23358       21102     1206732
  grid # 8         774         642       61290
  grid # 9         412         338       34308
   
  end of program grid
   
 Time(grid)  user:     351.294  user+sys:     351.294  wallclock:      24.292
  
  start of program rwr
  
  end of program rwr
   
 Time(rwr)  user:      51.984  user+sys:      51.984  wallclock:      13.279
  
  start of program scf
  
 number of electrons..........        296
 number of alpha electrons....        148
 number of beta electrons.....        148
 number of orbitals, total....        619
 number of doubly-occ'd orbs..        148
 number of open shell orbs....          0
 number of occupied orbitals..        148
 number of virtual orbitals...        471
 number of hamiltonians.......          1
 number of shells.............          1
 SCF type: DFT=Becke_3_Parameter/HF+Slater+Becke88+PW91+PW-GGAIIC (B3PW91-D3)
 Energy computed using pseudospectral method.
 Convergence Criterion:
    Energy (econv):       1.00E-05
    RMS density (dconv):  5.00E-06
  
       i  u  d  i  g                   
       t  p  i  c  r                                 RMS    maximum
       e  d  i  u  i                       energy  density   DIIS  
       r  t  s  t  d       total energy    change  change    error 
  
etot    1  N  N  5  M   -2019.94283103032           2.1E-03  2.0E-01
etot    2  Y  Y  6  M   -2023.13605573036  3.2E+00  3.4E-03  1.2E-01
etot    3  Y  Y  6  M   -2024.20201536864  1.1E+00  1.3E-03  6.7E-02
etot    4  N  Y  2  U   -2024.42991151324  2.3E-01  9.8E-04  4.0E-02
etot    5  Y  Y  6  M   -2024.52751285462  9.8E-02  6.7E-04  2.7E-02
etot    6  N  Y  2  U   -2024.54152508136  1.4E-02  8.0E-04  1.5E-02
etot    7  Y  Y  6  M   -2024.55021964238  8.7E-03  1.7E-04  5.6E-03
etot    8  N  Y  2  U   -2024.56165516148  1.1E-02  4.7E-05  1.7E-03
etot    9  N  Y  2  U   -2024.56201924220  3.6E-04  1.6E-05  4.0E-04
etot   10  N  Y  2  U   -2024.56202894795  9.7E-06  6.0E-06  1.4E-04
etot   11  N  Y  2  U   -2024.56203313267  4.2E-06  1.9E-06  3.9E-05
etot   12  N  N  2  U   -2024.56203381635  6.8E-07  0.0E+00  0.0E+00
 
  Computing the dispersion energy correction and its gradients...
  
  
 Energy components, in hartrees:
   (A)  Nuclear repulsion............    5383.57591947032
   (E)  Total one-electron terms.....  -13552.56063655185
   (F)    Electron-nuclear...........  -15478.29309866524
   (H)    Kinetic....................    1925.73246211339
   (I)  Total two-electron terms.....    6144.42268326518
   (J)    Coulomb....................    6400.43066539572
   (K)    Exchange+Correlation.......    -256.00798213054
   (L)  Electronic energy............   -7408.13795328667  (E+I)
   (N0) D3 correction................      -0.17296482533
   (N)  Total energy.................   -2024.73499864169  (A+L+N0)
   (O)  Gas phase energy.............   -2024.73499864169
  
 SCFE: SCF energy: DFT(b3pw91-d3)     -2024.73499864169 hartrees   iterations:  12
  
 
 HOMO energy:    -0.18335
 LUMO energy:    -0.05125
 
  Orbital energies (hartrees): 
   -77.07751   -38.45504   -24.67426   -19.05544   -10.24061   -10.19557
   -10.19527   -10.19520   -10.19402   -10.19173   -10.18366   -10.18187
   -10.18130   -10.18011   -10.17662   -10.17219   -10.17145   -10.16964
   -10.16893   -10.16362   -10.16331   -10.16329   -10.16246   -10.15998
   -10.15848   -10.15604   -10.15536   -10.15453   -10.15139   -10.14770
   -10.12750   -10.12417   -10.12396   -10.11972   -10.11403    -6.57713
    -4.73508    -4.73449    -4.73239    -3.33097    -2.21878    -2.06601
    -2.05865    -2.02882    -1.20656    -1.14784    -1.14670    -1.14499
    -0.91962    -0.87823    -0.85930    -0.85116    -0.82438    -0.80690
    -0.78301    -0.77515    -0.75990    -0.75472    -0.74995    -0.74032
    -0.72603    -0.70280    -0.69117    -0.68651    -0.68157    -0.67811
    -0.67555    -0.66410    -0.66187    -0.64994    -0.63780    -0.61684
    -0.60525    -0.59477    -0.58678    -0.57101    -0.55051    -0.54389
    -0.52864    -0.51712    -0.50857    -0.49818    -0.48093    -0.47372
    -0.47138    -0.46796    -0.45897    -0.45854    -0.45333    -0.45231
    -0.44630    -0.44077    -0.43731    -0.43566    -0.43546    -0.43436
    -0.42843    -0.42492    -0.42170    -0.41786    -0.41219    -0.40386
    -0.39873    -0.39515    -0.39164    -0.38703    -0.38388    -0.38116
    -0.37949    -0.37793    -0.37503    -0.37319    -0.36956    -0.36824
    -0.36352    -0.36261    -0.36008    -0.35527    -0.35011    -0.34335
    -0.34290    -0.33909    -0.33638    -0.32729    -0.32671    -0.32466
    -0.32186    -0.31614    -0.31193    -0.30907    -0.30100    -0.29827
    -0.29066    -0.28226    -0.27459    -0.26125    -0.25829    -0.25517
    -0.24944    -0.24489    -0.23470    -0.22651    -0.22047    -0.21530
    -0.20275    -0.19747    -0.19270    -0.18335    -0.05125    -0.02903
    -0.02480    -0.01952    -0.00763    -0.00078     0.00890     0.01054
     0.02250     0.03528
 
  end of program scf
   
 Time(scf)  user:     703.860  user+sys:     703.860  wallclock:      64.108
  
  start of program der1a
  
  end of program der1a
   
 Time(der1a)  user:      28.725  user+sys:      28.725  wallclock:       2.455
  
  start of program rwr
  
  end of program rwr
   
 Time(rwr)  user:      38.287  user+sys:      38.287  wallclock:      14.846
  
  start of program der1b
  
   
  forces (hartrees/bohr) : total     
   
 atom  label           x              y              z
 ---- --------   -------------  -------------  -------------
    1 P1          6.989327E-03   2.518420E-03   5.287474E-03
    2 Pd2        -2.521377E-03   1.799213E-02   2.476802E-02
    3 C73         2.654417E-03  -2.423017E-03   2.003394E-04
    4 C74         1.820443E-03   8.253043E-04   5.016074E-03
    5 C75         9.667732E-03  -6.136551E-03   2.437825E-02
    6 C76        -5.807193E-03  -1.593319E-02   1.762113E-02
    7 C77         3.193270E-02   2.417808E-02   1.012655E-02
    8 C78         3.580580E-03   5.068389E-03   2.107354E-03
    9 F79        -2.285092E-03   7.618579E-04  -1.168437E-04
   10 H80        -3.910149E-04  -4.702822E-04  -2.057510E-04
   11 H82         5.083624E-02   4.204967E-02   1.432565E-02
   12 H83         1.883402E-04   2.091358E-04  -2.192658E-04
   13 H14        -6.592448E-04   7.335977E-06  -5.097196E-03
   14 C3         -3.085046E-03   1.043304E-03  -8.975553E-04
   15 C4          8.973075E-04  -2.912525E-03  -4.411325E-03
   16 C5         -5.425776E-03  -1.415856E-03  -4.080581E-05
   17 C6         -2.800965E-03  -1.377975E-02   6.287229E-03
   18 C7         -2.516556E-03  -1.996797E-03  -9.327620E-03
   19 C8          7.188372E-03   1.741002E-03   4.938505E-03
   20 C9         -9.758995E-03  -1.508424E-03  -3.989366E-03
   21 C10        -4.852582E-03  -8.593381E-03  -1.184364E-02
   22 C11        -4.747757E-02  -3.671605E-02   5.569476E-04
   23 C12         3.775973E-04   1.464938E-03   1.857402E-03
   24 C13        -7.637466E-05  -5.819519E-04  -1.464779E-03
   25 C14         6.831801E-04   1.502783E-03   9.895716E-04
   26 C15         4.958275E-04   6.442160E-04  -1.310579E-04
   27 C16         5.120996E-04  -5.979140E-04   8.641226E-04
   28 C17        -5.936872E-03   7.712391E-03  -2.336650E-02
   29 C18        -2.721472E-03  -4.871757E-03  -6.172334E-03
   30 C19        -8.807495E-04  -3.062429E-04   6.756098E-05
   31 C20         5.711619E-03   7.571271E-03  -1.661674E-02
   32 C21         3.257079E-03   6.011605E-05  -2.457190E-03
   33 C22         5.227779E-04  -3.499550E-03   9.670764E-04
   34 C23        -1.253422E-03  -3.124239E-02  -1.296117E-02
   35 H24        -9.114703E-04  -9.805044E-04  -3.539740E-04
   36 H25        -9.053946E-04  -2.039669E-03  -3.209665E-04
   37 H26        -8.758163E-04  -1.967866E-03  -1.878593E-03
   38 H27        -4.428479E-02  -3.030459E-02  -1.595615E-02
   39 H28         1.163991E-04   9.100891E-04   9.782430E-05
   40 H29         6.893412E-05   2.908472E-04  -4.854166E-05
   41 H30         1.218057E-04  -1.963525E-05   2.470799E-04
   42 H31         1.893235E-03   1.241548E-03  -3.355740E-04
   43 H32         6.155286E-04   6.378164E-03  -4.111972E-02
   44 H33         2.187415E-04  -7.209755E-05   9.337859E-04
   45 H34        -2.238865E-03   2.701324E-03  -1.769503E-03
   46 H35         1.846511E-03   3.336026E-03  -1.174388E-02
   47 H36         1.279354E-03   1.933928E-04  -7.492830E-04
   48 H37         6.222814E-04   7.334034E-04   2.606968E-03
   49 H38         3.078256E-04  -3.111441E-04   8.840597E-04
   50 H39        -2.805905E-04  -5.640331E-04  -3.009237E-04
   51 H40        -2.856883E-04  -2.827013E-04  -1.573185E-03
   52 H41        -5.887113E-05  -7.982083E-04   7.519519E-04
   53 H42         2.719036E-04   4.864873E-03  -2.757920E-02
   54 H43        -3.896466E-04  -4.684353E-05  -1.542358E-03
   55 H44        -2.960136E-04   3.919272E-04   6.964146E-04
   56 H45        -4.501395E-04  -1.637826E-04   8.058144E-04
   57 H46        -3.257459E-03  -8.271661E-04  -7.759030E-04
   58 H47         1.194971E-03  -8.750613E-04   5.374295E-03
   59 H48         3.507191E-03   3.383020E-04  -3.076786E-04
   60 H49         6.163024E-04   3.860198E-05  -2.868864E-05
   61 H50         6.520725E-04  -6.479483E-03   1.393649E-03
   62 H51        -5.227590E-03  -2.877311E-02  -4.756468E-03
   63 H52        -1.403121E-04   1.179370E-03  -1.487541E-03
   64 C104       -1.040699E-03  -8.434621E-04  -2.901803E-03
   65 C105        7.746583E-04  -1.382011E-03  -1.788696E-04
   66 C106        1.564825E-03   2.198182E-03   8.959792E-03
   67 C107       -6.780021E-04   7.473946E-04   5.444047E-03
   68 H108       -6.152922E-04   4.584998E-04   1.655735E-04
   69 H109       -1.779152E-04   1.267571E-03   1.482351E-04
   70 H110       -3.236639E-04  -1.148260E-03  -8.280317E-04
   71 H111       -7.147196E-05   2.243820E-04   3.167335E-04
   72 H112       -3.077340E-03   4.158310E-06   1.084483E-02
   73 H113       -5.322657E-04   7.020346E-04   3.357238E-05
   74 H114        7.929269E-04   1.853441E-03   9.100507E-05
   75 H115        5.918717E-03   1.336583E-02   6.131280E-03
   76 H116       -2.668968E-04   7.237473E-04   2.041905E-03
   77 Br117       9.119642E-03   5.741626E-02   5.969071E-02
   78 O118       -1.228511E-03   1.172331E-03  -3.123814E-03
   79 Na119       8.229600E-03  -4.988383E-03  -8.918523E-03
 -------------   -------------  -------------  -------------
     total        9.840634E-04   2.228405E-03   1.204695E-04
   
  end of program der1b
   
 Time(der1b)  user:     208.812  user+sys:     208.812  wallclock:      17.734
  
  start of program geopt
  
 ----------------------------------------------------------------------------
  Geometry optimization step  1
  Total energy:     -2024.73499864169 hartrees
 ----------------------------------------------------------------------------
  
  
  Level shifts adjusted to satisfy step-size constraints
   Step size:    0.3005035
   Cos(theta):   0.7888058
   Final level shift:  -6.6859621E-01
  
  gradient maximum:        1.0071E+00 .  (  2.2500E-03 )
  gradient rms:            1.1522E-01 .  (  1.5000E-03 )
  displacement maximum:    5.3556E-02 .  (  9.0000E-03 )
  displacement rms:        8.2292E-03 .  (  6.0000E-03 )
  
  predicted energy change:  -1.5441E-01
  step size:     0.13141
  trust radius:  0.30000
  
  molecular structure not yet converged...
  
  center of mass moved by:
     x:     2.1983E-02     y:     7.2376E-02     z:     7.8164E-02
  
  new geometry: 
                                   angstroms
  atom               x                 y                 z
  P1           -0.0054861020     -0.0236486166      0.0347748175 
  Pd2           0.0305997573      0.0397435748      2.3895532672 
  C73           4.7936384386      0.0154986686      2.7459385452 
  C74           4.1060605188      1.2176033525      2.8385638271 
  C75           2.7148720527      1.2049256696      2.7263892317 
  C76           2.0250234246      0.0075381822      2.5084342618 
  C77           2.7380428414     -1.1892394714      2.4712187131 
  C78           4.1331991390     -1.1918546213      2.5768377426 
  F79           6.1411189136      0.0221971644      2.8388649365 
  H80           4.6547081980      2.1413216856      3.0015079009 
  H82           2.2021891666     -2.1309395464      2.3795854141 
  H83           4.7028424949     -2.1166639846      2.5400278400 
  H14           2.1739581794      2.1419169476      2.8180178637 
  C3           -0.5573125963     -1.7186261010     -0.4732563453 
  C4            1.7094701305      0.1700544773     -0.7959079364 
  C5           -1.2758660150      1.0902403201     -0.8704149212 
  C6           -0.7547493420     -2.6605493771      1.9528387185 
  C7           -1.8688756334     -2.7859280969      2.8314737728 
  C8           -1.6481268883     -3.2604925996      4.1219404385 
  C9           -0.3712798282     -3.6083706780      4.5682077904 
  C10           0.7220184819     -3.4509348723      3.7281664460 
  C11           0.5310563450     -2.9727093692      2.4351135402 
  C12          -0.9432295797     -2.6978881719      0.4676002728 
  C13          -1.4562437869     -3.9204978553     -0.0019559066 
  C14          -1.5810380568     -4.1975262136     -1.3560620839 
  C15          -1.1638952438     -3.2472754260     -2.2844353567 
  C16          -0.6599419116     -2.0315330448     -1.8424786472 
  C17           2.5338536200      1.2541789097     -0.0887031341 
  C18           2.4081261573     -1.1923026249     -0.6430974954 
  C19           1.6780725890      0.5003166976     -2.2943707667 
  C20          -2.6149840682      0.8248798333     -0.1700128974 
  C21          -1.4675734712      0.8036155213     -2.3677850521 
  C22          -0.9162944272      2.5789188870     -0.7204550502 
  C23          -3.2548523830     -2.4212972995      2.3773303611 
  H24          -2.4925596040     -3.3484322713      4.8023382375 
  H25          -0.2386201271     -3.9808333059      5.5807031240 
  H26           1.7255595318     -3.6834871196      4.0727626580 
  H27           1.3677109288     -2.9373552131      1.7475978711 
  H28          -1.7416245359     -4.6734657576      0.7291386929 
  H29          -1.9807718266     -5.1545542500     -1.6829280032 
  H30          -1.2303298342     -3.4485431088     -3.3511456694 
  H31          -0.3374414884     -1.3169707937     -2.5877727786 
  H32           2.4811874043      1.1918788631      1.0016116019 
  H33           3.5866340516      1.1429643348     -0.3803075664 
  H34           2.2158529805      2.2567282853     -0.3927423934 
  H35           2.4896890620     -1.5021310219      0.4028214177 
  H36           1.8748839511     -1.9771631724     -1.1903058861 
  H37           3.4212859645     -1.1284178443     -1.0617995669 
  H38           1.1803597702      1.4518032515     -2.5073607444 
  H39           2.7145773404      0.5938154616     -2.6460571617 
  H40           1.2023166475     -0.2883453045     -2.8848864329 
  H41          -2.9053930586     -0.2298316812     -0.2401828190 
  H42          -2.5821447963      1.1087429040      0.8839739426 
  H43          -3.3997327788      1.4197505124     -0.6563707794 
  H44          -1.9335894952     -0.1670942495     -2.5525272908 
  H45          -2.1428092124      1.5681804518     -2.7753720743 
  H46          -0.5327928285      0.8670306201     -2.9344616345 
  H47          -0.5757146973      2.8429976049      0.2803128447 
  H48          -0.1539119030      2.8856914423     -1.4411471978 
  H49          -1.8177099695      3.1698532416     -0.9296664042 
  H50          -3.5958640180     -3.0591820180      1.5514100259 
  H51          -3.2740344403     -1.3806907324      2.0330507960 
  H52          -3.9742158442     -2.5096781355      3.1976934368 
  C104          0.9718904804      0.3407649318      5.6503173204 
  C105          0.1943051143      0.3649965458      6.9906841454 
  C106          1.9175292510     -0.8689754796      5.7089841438 
  C107          1.7963055673      1.6344935498      5.5901252625 
  H108          0.8695038137      0.3155236693      7.8533084401 
  H109         -0.3763394223      1.3019280311      7.1104641194 
  H110         -0.4853916015     -0.4958783665      7.0570229624 
  H111          2.3834459225      1.7846685452      6.5061420238 
  H112          2.4862834556      1.6059358983      4.7475807622 
  H113          1.1262206591      2.4937773772      5.4577889704 
  H114          2.5811202509     -0.8067053529      6.5821765298 
  H115          1.3487170377     -1.8016910877      5.7719149953 
  H116          2.5384196634     -0.9134455435      4.8153410379 
  Br117        -2.8074564453      0.7215391877      2.9581951007 
  O118          0.0146090793      0.2682077202      4.6167619275 
  Na119        -1.9349853013      1.0392575533      5.4830934735 
   
 
  bond lengths (angstroms):
 
 P1      -Pd2     :   2.355908      P1      -C3      :   1.853526
 P1      -C4      :   1.915367      P1      -C5      :   1.916763
 Pd2     -C76     :   1.998223      Pd2     -O118    :   2.238953
 C73     -C74     :   1.387948      C73     -C78     :   1.386534
 C73     -F79     :   1.350698      C74     -C75     :   1.395761
 C74     -H80     :   1.086656      C75     -C76     :   1.398975
 C75     -H14     :   1.085788      C76     -C77     :   1.393578
 C77     -C78     :   1.399151      C77     -H82     :   1.087352
 C78     -H83     :   1.086794      C3      -C12     :   1.411771
 C3      -C16     :   1.408266      C4      -C17     :   1.534625
 C4      -C18     :   1.538664      C4      -C19     :   1.534747
 C5      -C20     :   1.534346      C5      -C21     :   1.536562
 C5      -C22     :   1.538812      C6      -C7      :   1.424429
 C6      -C11     :   1.408307      C6      -C12     :   1.497616
 C7      -C8      :   1.392568      C7      -C23     :   1.503374
 C8      -C9      :   1.396607      C8      -H24     :   1.087999
 C9      -C10     :   1.387716      C9      -H25     :   1.086956
 C10     -C11     :   1.391816      C10     -H26     :   1.086242
 C11     -H27     :   1.083475      C12     -C13     :   1.406571
 C13     -C14     :   1.387776      C13     -H28     :   1.087613
 C14     -C15     :   1.392430      C14     -H29     :   1.087442
 C15     -C16     :   1.388281      C15     -H30     :   1.087563
 C16     -H31     :   1.081697      C17     -H32     :   1.093362
 C17     -H33     :   1.098066      C17     -H34     :   1.094838
 C18     -H35     :   1.093889      C18     -H36     :   1.095349
 C18     -H37     :   1.098128      C19     -H38     :   1.094719
 C19     -H39     :   1.098530      C19     -H40     :   1.094093
 C20     -H41     :   1.096211      C20     -H42     :   1.092037
 C20     -H43     :   1.098292      C21     -H44     :   1.092510
 C21     -H45     :   1.098467      C21     -H46     :   1.094970
 C22     -H47     :   1.089619      C22     -H48     :   1.093039
 C22     -H49     :   1.097963      C23     -H50     :   1.097875
 C23     -H51     :   1.096247      C23     -H52     :   1.094665
 C104    -C105    :   1.549777      C104    -C106    :   1.536602
 C104    -C107    :   1.535258      C104    -O118    :   1.410634
 C105    -H108    :   1.096568      C105    -H109    :   1.103550
 C105    -H110    :   1.098860      C106    -H114    :   1.098497
 C106    -H115    :   1.094288      C106    -H116    :   1.089073
 C107    -H111    :   1.098350      C107    -H112    :   1.089388
 C107    -H113    :   1.097677      Br117   -Na119   :   2.690216
 O118    -Na119   :   2.268472
 
  bond angles:
 
 C3      -P1      -Pd2     : 107.645334  C4      -P1      -Pd2     : 114.648495
 C4      -P1      -C3      : 103.896923  C5      -P1      -Pd2     : 117.809776
 C5      -P1      -C3      : 101.809809  C5      -P1      -C4      : 109.259288
 C76     -Pd2     -P1      :  94.262107  O118    -Pd2     -P1      : 175.497537
 O118    -Pd2     -C76     :  87.110596  C78     -C73     -C74     : 121.759073
 F79     -C73     -C74     : 119.033792  F79     -C73     -C78     : 119.202543
 C75     -C74     -C73     : 118.720590  H80     -C74     -C73     : 119.743726
 H80     -C74     -C75     : 121.534625  C76     -C75     -C74     : 120.783107
 H14     -C75     -C74     : 118.811114  H14     -C75     -C76     : 120.404505
 C75     -C76     -Pd2     : 119.186011  C77     -C76     -Pd2     : 121.528734
 C77     -C76     -C75     : 119.136746  C78     -C77     -C76     : 120.648857
 H82     -C77     -C76     : 119.594209  H82     -C77     -C78     : 119.745069
 C77     -C78     -C73     : 118.851610  H83     -C78     -C73     : 119.699394
 H83     -C78     -C77     : 121.445519  C12     -C3      -P1      : 122.210248
 C16     -C3      -P1      : 119.430904  C16     -C3      -C12     : 118.288856
 C17     -C4      -P1      : 110.644251  C18     -C4      -P1      : 105.898943
 C18     -C4      -C17     : 109.621725  C19     -C4      -P1      : 115.270073
 C19     -C4      -C17     : 107.993418  C19     -C4      -C18     : 107.264748
 C20     -C5      -P1      : 105.210445  C21     -C5      -P1      : 115.752975
 C21     -C5      -C20     : 107.679331  C22     -C5      -P1      : 111.180458
 C22     -C5      -C20     : 109.072491  C22     -C5      -C21     : 107.732813
 C11     -C6      -C7      : 118.906125  C12     -C6      -C7      : 120.737381
 C12     -C6      -C11     : 116.679521  C8      -C7      -C6      : 118.529878
 C23     -C7      -C6      : 120.890257  C23     -C7      -C8      : 120.579222
 C9      -C8      -C7      : 121.730187  H24     -C8      -C7      : 118.948789
 H24     -C8      -C9      : 119.315557  C10     -C9      -C8      : 119.907049
 H25     -C9      -C8      : 119.642218  H25     -C9      -C10     : 120.437245
 C11     -C10     -C9      : 119.555900  H26     -C10     -C9      : 120.765992
 H26     -C10     -C11     : 119.672654  C10     -C11     -C6      : 121.304042
 H27     -C11     -C6      : 118.717591  H27     -C11     -C10     : 119.655448
 C6      -C12     -C3      : 127.534028  C13     -C12     -C3      : 118.694889
 C13     -C12     -C6      : 113.493504  C14     -C13     -C12     : 122.143500
 H28     -C13     -C12     : 118.233574  H28     -C13     -C14     : 119.610248
 C15     -C14     -C13     : 119.168818  H29     -C14     -C13     : 120.134080
 H29     -C14     -C15     : 120.684659  C16     -C15     -C14     : 119.611884
 H30     -C15     -C14     : 120.620585  H30     -C15     -C16     : 119.767501
 C15     -C16     -C3      : 122.042960  H31     -C16     -C3      : 120.092337
 H31     -C16     -C15     : 117.864212  H32     -C17     -C4      : 113.167394
 H33     -C17     -C4      : 108.729773  H33     -C17     -H32     : 107.772188
 H34     -C17     -C4      : 111.277816  H34     -C17     -H32     : 108.367741
 H34     -C17     -H33     : 107.305918  H35     -C18     -C4      : 112.308666
 H36     -C18     -C4      : 111.331883  H36     -C18     -H35     : 108.120466
 H37     -C18     -C4      : 109.241819  H37     -C18     -H35     : 108.194949
 H37     -C18     -H36     : 107.479211  H38     -C19     -C4      : 112.724298
 H39     -C19     -C4      : 108.154876  H39     -C19     -H38     : 107.020552
 H40     -C19     -C4      : 112.380112  H40     -C19     -H38     : 108.893612
 H40     -C19     -H39     : 107.388538  H41     -C20     -C5      : 111.616510
 H42     -C20     -C5      : 111.677151  H42     -C20     -H41     : 108.653621
 H43     -C20     -C5      : 109.134384  H43     -C20     -H41     : 107.667418
 H43     -C20     -H42     : 107.944559  H44     -C21     -C5      : 112.565829
 H45     -C21     -C5      : 107.965552  H45     -C21     -H44     : 107.066419
 H46     -C21     -C5      : 112.768721  H46     -C21     -H44     : 109.153324
 H46     -C21     -H45     : 107.004038  H47     -C22     -C5      : 113.391099
 H48     -C22     -C5      : 111.730605  H48     -C22     -H47     : 108.635657
 H49     -C22     -C5      : 108.075327  H49     -C22     -H47     : 107.528627
 H49     -C22     -H48     : 107.213996  H50     -C23     -C7      : 111.881492
 H51     -C23     -C7      : 109.951997  H51     -C23     -H50     : 108.049211
 H52     -C23     -C7      : 111.092123  H52     -C23     -H50     : 108.225130
 H52     -C23     -H51     : 107.487540  C106    -C104    -C105    : 106.742104
 C107    -C104    -C105    : 106.867622  C107    -C104    -C106    : 109.539447
 O118    -C104    -C105    : 107.097580  O118    -C104    -C106    : 113.897806
 O118    -C104    -C107    : 112.273446  H108    -C105    -C104    : 111.759831
 H109    -C105    -C104    : 111.505979  H109    -C105    -H108    : 105.742674
 H110    -C105    -C104    : 110.506500  H110    -C105    -H108    : 107.339127
 H110    -C105    -H109    : 109.799991  H114    -C106    -C104    : 110.945687
 H115    -C106    -C104    : 110.692063  H115    -C106    -H114    : 108.458048
 H116    -C106    -C104    : 110.589423  H116    -C106    -H114    : 108.069694
 H116    -C106    -H115    : 107.982604  H111    -C107    -C104    : 111.689408
 H112    -C107    -C104    : 110.385855  H112    -C107    -H111    : 108.061020
 H113    -C107    -C104    : 109.668897  H113    -C107    -H111    : 108.653411
 H113    -C107    -H112    : 108.295590  C104    -O118    -Pd2     : 136.823306
 Na119   -O118    -Pd2     : 114.880000  Na119   -O118    -C104    : 106.614297
 O118    -Na119   -Br117   :  83.116510
 
  torsional angles:
 
 P1      -Pd2     -C76     -C75     :  99.925209
 P1      -Pd2     -C76     -C77     : -84.543629
 P1      -Pd2     -O118    -C104    :-108.584527
 P1      -Pd2     -O118    -Na119   :  54.137791
 P1      -C3      -C12     -C6      : -11.774803
 P1      -C3      -C12     -C13     : 174.701095
 P1      -C3      -C16     -C15     :-174.988501
 P1      -C3      -C16     -H31     :   5.272047
 P1      -C4      -C17     -H32     :  43.883310
 P1      -C4      -C17     -H33     : 163.596888
 P1      -C4      -C17     -H34     : -78.425335
 P1      -C4      -C18     -H35     : -57.310681
 P1      -C4      -C18     -H36     :  64.098000
 P1      -C4      -C18     -H37     :-177.357231
 P1      -C4      -C19     -H38     :  61.366951
 P1      -C4      -C19     -H39     : 179.486100
 P1      -C4      -C19     -H40     : -62.144943
 P1      -C5      -C20     -H41     : -59.895185
 P1      -C5      -C20     -H42     :  61.957252
 P1      -C5      -C20     -H43     :-178.778334
 P1      -C5      -C21     -H44     :  67.334046
 P1      -C5      -C21     -H45     :-174.706302
 P1      -C5      -C21     -H46     : -56.704078
 P1      -C5      -C22     -H47     : -41.243410
 P1      -C5      -C22     -H48     :  81.931672
 P1      -C5      -C22     -H49     :-160.345054
 Pd2     -P1      -C3      -C12     :   3.436899
 Pd2     -P1      -C3      -C16     :-179.658781
 Pd2     -P1      -C4      -C17     : -41.714826
 Pd2     -P1      -C4      -C18     :  76.999278
 Pd2     -P1      -C4      -C19     :-164.595281
 Pd2     -P1      -C5      -C20     : -48.938771
 Pd2     -P1      -C5      -C21     :-167.662164
 Pd2     -P1      -C5      -C22     :  68.998953
 Pd2     -C76     -C75     -C74     : 178.862260
 Pd2     -C76     -C75     -H14     :  -0.722379
 Pd2     -C76     -C77     -C78     :-178.998787
 Pd2     -C76     -C77     -H82     :  -0.254938
 Pd2     -O118    -C104    -C105    :-174.612057
 Pd2     -O118    -C104    -C106    : -56.841164
 Pd2     -O118    -C104    -C107    :  68.384590
 Pd2     -O118    -Na119   -Br117   :   7.504766
 C73     -C74     -C75     -C76     :  -0.772731
 C73     -C74     -C75     -H14     : 178.818421
 C73     -C78     -C77     -C76     :   1.262210
 C73     -C78     -C77     -H82     :-177.479753
 C74     -C73     -C78     -C77     :   1.269198
 C74     -C73     -C78     -H83     :-178.062393
 C74     -C75     -C76     -C77     :   3.223025
 C75     -C74     -C73     -C78     :  -1.508070
 C75     -C74     -C73     -F79     : 179.277955
 C75     -C76     -Pd2     -O118    : -75.778212
 C75     -C76     -C77     -C78     :  -3.465477
 C75     -C76     -C77     -H82     : 175.278372
 C76     -Pd2     -P1      -C3      : 106.895743
 C76     -Pd2     -P1      -C4      :  -8.144779
 C76     -Pd2     -P1      -C5      :-138.862239
 C76     -Pd2     -O118    -C104    :  -0.708246
 C76     -Pd2     -O118    -Na119   : 162.014072
 C76     -C75     -C74     -H80     : 179.602587
 C76     -C77     -C78     -H83     :-179.418343
 C77     -C76     -Pd2     -O118    :  99.752950
 C77     -C76     -C75     -H14     :-176.361614
 C77     -C78     -C73     -F79     :-179.518117
 C78     -C73     -C74     -H80     : 178.123497
 F79     -C73     -C74     -H80     :  -1.090478
 F79     -C73     -C78     -H83     :   1.150291
 H80     -C74     -C75     -H14     :  -0.806261
 H82     -C77     -C78     -H83     :   1.839694
 C3      -P1      -Pd2     -O118    :-145.496090
 C3      -P1      -C4      -C17     :-158.914907
 C3      -P1      -C4      -C18     : -40.200803
 C3      -P1      -C4      -C19     :  78.204638
 C3      -P1      -C5      -C20     :  68.474360
 C3      -P1      -C5      -C21     : -50.249034
 C3      -P1      -C5      -C22     :-173.587916
 C3      -C12     -C6      -C7      : 123.335474
 C3      -C12     -C6      -C11     : -78.509250
 C3      -C12     -C13     -C14     :   0.681582
 C3      -C12     -C13     -H28     : 179.380356
 C3      -C16     -C15     -C14     :  -0.184463
 C3      -C16     -C15     -H30     : 179.752199
 C4      -P1      -Pd2     -O118    :  99.463388
 C4      -P1      -C3      -C12     : 125.411152
 C4      -P1      -C3      -C16     : -57.684528
 C4      -P1      -C5      -C20     : 177.923576
 C4      -P1      -C5      -C21     :  59.200182
 C4      -P1      -C5      -C22     : -64.138701
 C5      -P1      -Pd2     -O118    : -31.254072
 C5      -P1      -C3      -C12     :-121.081285
 C5      -P1      -C3      -C16     :  55.823036
 C5      -P1      -C4      -C17     :  93.039068
 C5      -P1      -C4      -C18     :-148.246828
 C5      -P1      -C4      -C19     : -29.841386
 C6      -C7      -C8      -C9      :   0.179537
 C6      -C7      -C8      -H24     : 179.322874
 C6      -C7      -C23     -H50     :  63.019309
 C6      -C7      -C23     -H51     : -57.047253
 C6      -C7      -C23     -H52     :-175.906753
 C6      -C11     -C10     -C9      :  -0.852247
 C6      -C11     -C10     -H26     : 179.990597
 C6      -C12     -C3      -C16     : 171.287022
 C6      -C12     -C13     -C14     :-173.721935
 C6      -C12     -C13     -H28     :   4.976839
 C7      -C6      -C11     -C10     :   2.696395
 C7      -C6      -C11     -H27     : 176.147196
 C7      -C6      -C12     -C13     : -62.857438
 C7      -C8      -C9      -C10     :   1.689284
 C7      -C8      -C9      -H25     :-179.640648
 C8      -C7      -C6      -C11     :  -2.323059
 C8      -C7      -C6      -C12     : 155.356022
 C8      -C7      -C23     -H50     :-116.684733
 C8      -C7      -C23     -H51     : 123.248705
 C8      -C7      -C23     -H52     :   4.389205
 C8      -C9      -C10     -C11     :  -1.347675
 C8      -C9      -C10     -H26     : 177.800060
 C9      -C8      -C7      -C23     : 179.890457
 C9      -C10     -C11     -H27     :-174.242624
 C10     -C9      -C8      -H24     :-177.450990
 C10     -C11     -C6      -C12     :-155.875292
 C11     -C6      -C7      -C23     : 177.966956
 C11     -C6      -C12     -C13     :  95.297838
 C11     -C10     -C9      -H25     : 179.992973
 C12     -C3      -C16     -C15     :   2.037117
 C12     -C3      -C16     -H31     :-177.702335
 C12     -C6      -C7      -C23     : -24.353963
 C12     -C6      -C11     -H27     :  17.575509
 C12     -C13     -C14     -C15     :   1.186420
 C12     -C13     -C14     -H29     : 179.912175
 C13     -C12     -C3      -C16     :  -2.237079
 C13     -C14     -C15     -C16     :  -1.430473
[...]
    H116     X     0.00333   0.00229  -0.00052  -0.00185  -0.00016   0.01141
    H116     Y     0.00133   0.00078  -0.00018  -0.00076  -0.00007   0.00422
    H116     Z    -0.00517  -0.00348   0.00080   0.00284   0.00022  -0.01763
    Br117    X     0.00000  -0.00000   0.00000  -0.00000  -0.00000  -0.00001
    Br117    Y    -0.00000  -0.00000   0.00000   0.00000  -0.00000   0.00000
    Br117    Z    -0.00000   0.00000   0.00000  -0.00000   0.00000   0.00000
    O118     X    -0.00000  -0.00001   0.00003  -0.00001   0.00000   0.00002
    O118     Y    -0.00001   0.00004  -0.00002  -0.00000   0.00000   0.00007
    O118     Z     0.00000   0.00003   0.00003  -0.00001   0.00002   0.00006
    Na119    X     0.00001   0.00000  -0.00001   0.00000   0.00000   0.00000
    Na119    Y     0.00000   0.00000   0.00000   0.00000  -0.00000   0.00000
    Na119    Z    -0.00000  -0.00000  -0.00004   0.00000  -0.00001  -0.00001
  
  vibration #          229       230       231
                 --------- --------- ---------
  frequencies      3243.36   3262.22   3281.18
  intensities         4.19      5.46      1.10
  reduc. mass         0.85      0.89      0.91
  force const         5.30      5.60      5.79
    P1       X     0.00000  -0.00005  -0.00001
    P1       Y     0.00001   0.00003   0.00000
    P1       Z     0.00002  -0.00014   0.00005
    Pd2      X    -0.00001  -0.00001   0.00000
    Pd2      Y     0.00001  -0.00000   0.00000
    Pd2      Z    -0.00002   0.00000  -0.00000
    C73      X    -0.00088   0.00001  -0.00001
    C73      Y    -0.00141   0.00000  -0.00002
    C73      Z     0.00013   0.00000   0.00000
    C74      X    -0.00054   0.00001  -0.00001
    C74      Y    -0.00154   0.00003  -0.00003
    C74      Z     0.00023  -0.00000   0.00000
    C75      X     0.00008  -0.00003   0.00003
    C75      Y    -0.00093   0.00003  -0.00004
    C75      Z     0.00017  -0.00001   0.00002
    C76      X     0.00191   0.00002   0.00003
    C76      Y    -0.00137  -0.00000  -0.00003
    C76      Z     0.00058  -0.00000  -0.00003
    C77      X     0.03160  -0.00003   0.00022
    C77      Y     0.07270  -0.00006   0.00047
    C77      Z    -0.01442   0.00001  -0.00006
    C78      X    -0.01291   0.00002  -0.00012
    C78      Y     0.01274  -0.00002   0.00017
    C78      Z    -0.00483   0.00001  -0.00007
    F79      X     0.00019  -0.00001   0.00001
    F79      Y     0.00011  -0.00000   0.00001
    F79      Z     0.00000   0.00000   0.00000
    H80      X     0.00668  -0.00014   0.00019
    H80      Y     0.01589  -0.00031   0.00040
    H80      Z    -0.00217   0.00004  -0.00006
    H82      X    -0.36059   0.00031  -0.00318
    H82      Y    -0.84495   0.00068  -0.00591
    H82      Z     0.17091  -0.00014   0.00061
    H83      X     0.11805  -0.00021   0.00122
    H83      Y    -0.14215   0.00026  -0.00151
    H83      Z     0.05027  -0.00009   0.00058
    H14      X    -0.00397   0.00026  -0.00040
    H14      Y     0.00623  -0.00030   0.00061
    H14      Z    -0.00189   0.00010  -0.00017
    C3       X     0.00001   0.00112   0.00003
    C3       Y     0.00001   0.00009  -0.00004
    C3       Z    -0.00001   0.00227   0.00008
    C4       X    -0.00002  -0.00005  -0.00015
    C4       Y     0.00005  -0.00005   0.00002
    C4       Z     0.00005  -0.00007   0.00006
    C5       X     0.00000  -0.00013   0.00002
    C5       Y     0.00001  -0.00013  -0.00001
    C5       Z    -0.00001   0.00006  -0.00003
    C6       X    -0.00003   0.00002  -0.00272
    C6       Y     0.00001   0.00001   0.00049
    C6       Z    -0.00002   0.00005  -0.00114
    C7       X     0.00003  -0.00003  -0.00044
    C7       Y    -0.00001   0.00001  -0.00008
    C7       Z     0.00001  -0.00002   0.00032
    C8       X    -0.00001  -0.00001  -0.00053
    C8       Y     0.00001  -0.00001  -0.00017
    C8       Z    -0.00002   0.00002   0.00045
    C9       X    -0.00007   0.00000  -0.00053
    C9       Y     0.00004  -0.00001  -0.00042
    C9       Z    -0.00016   0.00002   0.00100
    C10      X     0.00064   0.00006   0.00818
    C10      Y     0.00021  -0.00001  -0.00215
    C10      Z     0.00006   0.00002   0.00469
    C11      X    -0.00021   0.00008   0.06003
    C11      Y    -0.00002   0.00003   0.01846
    C11      Z     0.00056  -0.00009  -0.05307
    C12      X    -0.00000  -0.00008   0.00023
    C12      Y     0.00000  -0.00059  -0.00005
    C12      Z     0.00002   0.00032   0.00000
    C13      X    -0.00000  -0.00000   0.00003
    C13      Y    -0.00001  -0.00115  -0.00011
    C13      Z    -0.00000   0.00081   0.00022
    C14      X     0.00001  -0.00077  -0.00005
    C14      Y     0.00002  -0.00215  -0.00002
    C14      Z     0.00001  -0.00016  -0.00007
    C15      X     0.00000  -0.00587   0.00000
    C15      Y     0.00000  -0.00052  -0.00002
    C15      Z     0.00000  -0.01176   0.00002
    C16      X     0.00000   0.00843  -0.00002
    C16      Y     0.00006   0.07019  -0.00012
    C16      Z    -0.00004  -0.04060   0.00007
    C17      X    -0.00015   0.00001  -0.00002
    C17      Y     0.00005  -0.00001   0.00005
    C17      Z    -0.00038  -0.00003  -0.00012
    C18      X     0.00036   0.00002  -0.00037
    C18      Y     0.00021  -0.00002  -0.00039
    C18      Z     0.00102  -0.00010  -0.00172
    C19      X    -0.00001  -0.00125  -0.00005
    C19      Y     0.00006   0.00042   0.00001
    C19      Z    -0.00002  -0.00050  -0.00003
    C20      X     0.00001  -0.00056   0.00000
    C20      Y     0.00002  -0.00088   0.00001
    C20      Z    -0.00007  -0.00077  -0.00001
    C21      X    -0.00000  -0.00053  -0.00002
    C21      Y     0.00002  -0.00034   0.00003
    C21      Z     0.00002  -0.00083   0.00002
    C22      X     0.00005   0.00000  -0.00001
    C22      Y    -0.00001   0.00006  -0.00001
    C22      Z    -0.00001  -0.00014   0.00003
    C23      X    -0.00002  -0.00002  -0.00003
    C23      Y     0.00001  -0.00004   0.00004
    C23      Z     0.00002   0.00000  -0.00006
    H24      X    -0.00029   0.00026   0.00469
    H24      Y    -0.00004   0.00011   0.00164
    H24      Z     0.00016  -0.00027  -0.00391
    H25      X     0.00034  -0.00005  -0.00064
    H25      Y    -0.00064   0.00012   0.00249
    H25      Z     0.00142  -0.00023  -0.00572
    H26      X    -0.00238  -0.00071  -0.08381
    H26      Y     0.00406   0.00010   0.01300
    H26      Z    -0.00172  -0.00021  -0.02482
    H27      X     0.00564  -0.00086  -0.69227
    H27      Y     0.00156  -0.00027  -0.21705
    H27      Z    -0.00419   0.00082   0.61303
    H28      X    -0.00000   0.00089   0.00023
    H28      Y     0.00006   0.01161   0.00150
    H28      Z    -0.00002  -0.00667  -0.00097
    H29      X    -0.00013   0.00827   0.00043
    H29      Y    -0.00022   0.01538   0.00061
    H29      Z    -0.00012   0.00712   0.00040
    H30      X    -0.00004   0.05068  -0.00008
    H30      Y     0.00001  -0.01345   0.00001
    H30      Z    -0.00009   0.11543  -0.00018
    H31      X    -0.00009  -0.09836   0.00017
    H31      Y    -0.00074  -0.81302   0.00120
    H31      Z     0.00044   0.47133  -0.00061
    H32      X     0.00131   0.00034   0.00034
    H32      Y     0.00061   0.00025   0.00028
    H32      Z     0.00431   0.00068   0.00129
    H33      X    -0.00007  -0.00055   0.00001
    H33      Y     0.00005   0.00000   0.00014
    H33      Z    -0.00009   0.00023  -0.00008
    H34      X     0.00062  -0.00004   0.00036
    H34      Y    -0.00150   0.00009  -0.00139
    H34      Z     0.00052  -0.00010   0.00049
    H35      X    -0.00374   0.00041   0.00689
    H35      Y    -0.00055   0.00009   0.00555
    H35      Z    -0.01385   0.00109   0.01110
    H36      X    -0.00154   0.00015   0.00586
    H36      Y    -0.00196   0.00010   0.00885
    H36      Z    -0.00005  -0.00008  -0.00543
    H37      X     0.00107  -0.00056  -0.00065
    H37      Y    -0.00008   0.00005  -0.00057
    H37      Z    -0.00022   0.00035   0.00098
    H38      X     0.00051   0.00914   0.00072
    H38      Y    -0.00075  -0.01376  -0.00097
    H38      Z     0.00059   0.00706   0.00089
    H39      X     0.00020   0.00609   0.00037
    H39      Y     0.00001  -0.00024  -0.00005
    H39      Z    -0.00022  -0.00230  -0.00038
    H40      X    -0.00030   0.00345   0.00010
    H40      Y    -0.00032   0.00863   0.00022
    H40      Z    -0.00010   0.00089   0.00008
    H41      X     0.00001   0.00719  -0.00004
    H41      Y     0.00004   0.00890  -0.00004
    H41      Z     0.00002   0.00966  -0.00007
    H42      X    -0.00017   0.00004  -0.00002
    H42      Y    -0.00027  -0.00004  -0.00005
    H42      Z     0.00086   0.00122   0.00023
    H43      X     0.00007  -0.00077   0.00005
    H43      Y    -0.00012   0.00297  -0.00007
    H43      Z     0.00000  -0.00011   0.00002
    H44      X    -0.00014   0.01051  -0.00013
    H44      Y    -0.00017   0.02042  -0.00015
    H44      Z    -0.00020   0.01250  -0.00016
    H45      X     0.00006  -0.00094   0.00010
    H45      Y    -0.00011  -0.00040  -0.00012
    H45      Z    -0.00000  -0.00071  -0.00005
    H46      X     0.00005   0.00115   0.00019
    H46      Y     0.00003  -0.00108   0.00008
    H46      Z    -0.00000  -0.00139  -0.00006
    H47      X     0.00004  -0.00035   0.00011
    H47      Y    -0.00007  -0.00040   0.00003
    H47      Z     0.00006   0.00076  -0.00039
    H48      X    -0.00047   0.00077   0.00003
    H48      Y    -0.00007   0.00020   0.00001
    H48      Z     0.00015  -0.00002   0.00004
    H49      X    -0.00010   0.00019  -0.00006
    H49      Y     0.00013  -0.00041   0.00011
    H49      Z    -0.00007   0.00021  -0.00008
    H50      X    -0.00010   0.00021   0.00035
    H50      Y    -0.00018   0.00040   0.00019
    H50      Z    -0.00011   0.00026   0.00011
    H51      X     0.00002  -0.00009   0.00015
    H51      Y    -0.00006   0.00014  -0.00047
    H51      Z     0.00012  -0.00007   0.00035
    H52      X     0.00024   0.00010   0.00023
    H52      Y    -0.00003   0.00002  -0.00003
    H52      Z    -0.00033  -0.00014   0.00009
    C104     X     0.00001   0.00001  -0.00001
    C104     Y     0.00002   0.00001  -0.00001
    C104     Z     0.00003   0.00001  -0.00001
    C105     X    -0.00002  -0.00000   0.00000
    C105     Y     0.00004   0.00001   0.00001
    C105     Z    -0.00001   0.00001  -0.00000
    C106     X    -0.00024   0.00000   0.00000
    C106     Y     0.00021   0.00001  -0.00001
    C106     Z     0.00030   0.00001  -0.00001
    C107     X     0.00003  -0.00000   0.00001
    C107     Y    -0.00001   0.00001  -0.00001
    C107     Z    -0.00007   0.00002  -0.00003
    H108     X    -0.00005  -0.00003   0.00000
    H108     Y    -0.00010  -0.00011   0.00003
    H108     Z    -0.00014  -0.00013   0.00006
    H109     X     0.00029   0.00003  -0.00006
    H109     Y    -0.00004   0.00000   0.00001
    H109     Z     0.00005   0.00001  -0.00001
    H110     X     0.00005   0.00001   0.00003
    H110     Y    -0.00038  -0.00002  -0.00009
    H110     Z     0.00016   0.00002   0.00003
    H111     X     0.00004  -0.00003   0.00004
    H111     Y     0.00027  -0.00015   0.00019
    H111     Z     0.00032  -0.00015   0.00021
    H112     X    -0.00035   0.00010  -0.00018
    H112     Y    -0.00022   0.00004  -0.00010
    H112     Z     0.00053  -0.00011   0.00023
    H113     X     0.00011  -0.00003   0.00007
    H113     Y    -0.00006   0.00001  -0.00001
    H113     Z     0.00003   0.00000  -0.00000
    H114     X    -0.00029  -0.00004   0.00003
    H114     Y    -0.00110  -0.00010   0.00009
    H114     Z    -0.00083  -0.00011   0.00011
    H115     X     0.00063   0.00001  -0.00000
    H115     Y    -0.00246  -0.00000   0.00002
    H115     Z     0.00121   0.00001  -0.00002
    H116     X     0.00260   0.00002  -0.00003
    H116     Y     0.00091   0.00001  -0.00003
    H116     Z    -0.00432  -0.00001   0.00002
    Br117    X    -0.00001   0.00000  -0.00000
    Br117    Y     0.00000  -0.00000  -0.00000
    Br117    Z     0.00000   0.00000   0.00000
    O118     X     0.00007   0.00000  -0.00000
    O118     Y    -0.00007   0.00000   0.00000
    O118     Z     0.00003  -0.00002   0.00001
    Na119    X    -0.00001  -0.00000  -0.00001
    Na119    Y     0.00000   0.00000   0.00001
    Na119    Z    -0.00001   0.00000   0.00001
  
  Number of imaginary frequencies:   0
   
  Writing vibrational animation data to L_Ar_NaOtBu_Br_O_trans_PL154.vib
  Writing IR vibrational spectrum data to L_Ar_NaOtBu_Br_O_trans_PL154_vib.spm
  rotational symmetry number:  1

  rotational temperatures (K):      0.005045      0.004196      0.003354
   
  The Quasi-Harmonic approximation will be applied to compute
  vibrational constributions to thermodynamic properties.
  Frequencies will be adjusted to a minimum value of  100.00 cm^-1.

  vibrational temperatures:
       mode:      1        2        3        4        5        6
  temp. (K):   143.88   143.88   143.88   143.88   143.88   143.88
   
       mode:      7        8        9       10       11       12
  temp. (K):   143.88   143.88   143.88   143.88   143.88   143.88
   
       mode:     13       14       15       16       17       18
  temp. (K):   147.75   151.88   165.44   173.52   176.93   203.07
   
       mode:     19       20       21       22       23       24
  temp. (K):   207.72   221.94   229.01   229.88   251.18   254.81
   
       mode:     25       26       27       28       29       30
  temp. (K):   259.76   270.76   277.13   290.42   297.07   303.86
   
       mode:     31       32       33       34       35       36
  temp. (K):   319.83   340.46   345.27   349.08   360.14   364.12
   
       mode:     37       38       39       40       41       42
  temp. (K):   374.54   387.90   389.44   396.06   413.19   435.34
   
       mode:     43       44       45       46       47       48
  temp. (K):   443.45   446.98   463.51   479.54   507.76   511.01
   
       mode:     49       50       51       52       53       54
  temp. (K):   522.46   522.87   534.11   539.34   564.78   571.28
   
       mode:     55       56       57       58       59       60
  temp. (K):   584.20   590.64   602.67   611.69   623.02   627.94
   
       mode:     61       62       63       64       65       66
  temp. (K):   639.68   674.72   676.61   693.97   707.79   739.85
   
       mode:     67       68       69       70       71       72
  temp. (K):   750.83   764.94   780.46   818.31   824.24   835.44
   
       mode:     73       74       75       76       77       78
  temp. (K):   839.78   845.17   858.48   915.99   917.22   985.23
   
       mode:     79       80       81       82       83       84
  temp. (K):  1025.33  1074.23  1089.91  1105.83  1106.46  1129.28
   
       mode:     85       86       87       88       89       90
  temp. (K):  1149.79  1185.47  1192.98  1195.95  1197.53  1204.62
   
       mode:     91       92       93       94       95       96
  temp. (K):  1212.23  1288.62  1301.40  1315.12  1320.10  1364.19
   
       mode:     97       98       99      100      101      102
  temp. (K):  1372.00  1377.10  1378.53  1381.69  1389.30  1393.16
   
       mode:    103      104      105      106      107      108
  temp. (K):  1398.75  1417.37  1418.31  1422.65  1433.94  1452.01
   
       mode:    109      110      111      112      113      114
  temp. (K):  1466.97  1470.31  1476.18  1482.35  1505.96  1512.76
   
       mode:    115      116      117      118      119      120
  temp. (K):  1516.81  1517.82  1519.59  1525.86  1537.90  1542.13
   
       mode:    121      122      123      124      125      126
  temp. (K):  1558.72  1565.91  1602.92  1619.33  1661.67  1675.77
   
       mode:    127      128      129      130      131      132
  temp. (K):  1721.89  1734.07  1736.24  1742.18  1746.29  1772.58
   
       mode:    133      134      135      136      137      138
  temp. (K):  1776.83  1778.92  1780.65  1793.19  1798.96  1806.62
   
       mode:    139      140      141      142      143      144
  temp. (K):  1824.95  1840.83  1842.19  1875.47  1897.52  1910.60
   
       mode:    145      146      147      148      149      150
  temp. (K):  1928.90  1936.76  1951.39  2011.13  2029.65  2045.15
   
       mode:    151      152      153      154      155      156
  temp. (K):  2050.98  2052.38  2053.27  2062.82  2065.22  2074.42
   
       mode:    157      158      159      160      161      162
  temp. (K):  2098.33  2110.25  2113.60  2138.43  2157.45  2159.54
   
       mode:    163      164      165      166      167      168
  temp. (K):  2164.42  2167.98  2170.92  2173.18  2175.59  2179.82
   
       mode:    169      170      171      172      173      174
  temp. (K):  2180.78  2183.46  2188.96  2189.87  2191.99  2199.31
   
       mode:    175      176      177      178      179      180
  temp. (K):  2201.25  2204.98  2208.27  2215.06  2218.11  2219.01
   
       mode:    181      182      183      184      185      186
  temp. (K):  2226.71  2231.58  2246.59  2335.74  2349.77  2360.35
   
       mode:    187      188      189      190      191      192
  temp. (K):  2374.07  2385.00  2394.22  4320.55  4373.47  4375.77
   
       mode:    193      194      195      196      197      198
  temp. (K):  4379.04  4384.85  4387.30  4388.16  4392.90  4396.13
   
       mode:    199      200      201      202      203      204
  temp. (K):  4397.07  4423.29  4463.24  4477.46  4478.65  4481.43
   
       mode:    205      206      207      208      209      210
  temp. (K):  4494.49  4495.67  4498.70  4506.34  4512.38  4514.95
   
       mode:    211      212      213      214      215      216
  temp. (K):  4521.09  4540.38  4540.57  4560.91  4563.52  4570.20
   
       mode:    217      218      219      220      221      222
  temp. (K):  4581.07  4581.64  4584.56  4587.42  4594.23  4601.65
   
       mode:    223      224      225      226      227      228
  temp. (K):  4606.35  4609.99  4614.42  4616.89  4624.08  4632.57
   
       mode:    229      230      231
  temp. (K):  4666.46  4693.61  4720.88
   
   
  Thermodynamic properties calculated assuming an ideal gas

  In the table below, the units for temperature
  are kelvins, the units for U, H, and G are
  kcal/mol and the units for Cv and S are cal/(mol K)

  The zero point energy (ZPE):    417.208 kcal/mol
  is not included in U, H, or G in the table below
  
 
  =============================================================================
  Thermodynamic properties for P = 1.00E+00 atm, calculated at   1 temperatures


  T =   298.15 K, P = 1.00E+00 atm
   
                  U         Cv          S          H          G        ln(Q)
              =========  =========  =========  =========  =========  =========
  trans.          0.889      2.981     45.467      1.481    -12.075   20.38004
  rot.            0.889      2.981     37.457      0.889    -10.279   17.34905
  vib.           23.931    154.183    145.005     23.931    -19.303   32.57902
  elec.           0.000      0.000      0.000      0.000      0.000    0.00000
  ----------------------------------------------------------------------------
  total          25.708    160.144    227.929     26.300    -41.657   70.30811
   
   Total internal energy, Utot(SCFE + ZPE + U):   -2024.264979 hartrees
   Total enthalpy, Htot (Utot + nRT), with n=1:   -2024.264035 hartrees
    Total Gibbs free energy, Gtot (Htot - T*S):   -2024.372332 hartrees
   
  end of program freq
   
 Time(freq)  user:       1.352  user+sys:       1.352  wallclock:       0.564
  
  start of program post
  
  Writing input files for PBF
  end of program post
   
 Time(post)  user:       0.370  user+sys:       0.370  wallclock:       0.300

 Total cpu seconds     user:  139238.593   user+sys:  139238.593
  
 Total elapsed time:    16434 seconds

Job L_Ar_NaOtBu_Br_O_trans_PL154 completed on bp1-compute129.data.bp.acrc.priv at Tue Nov 25 06:04:31 2025
