Job L_Ar_Br_N_N_trans_PL154 started on bp1-compute072 at Tue Dec  2 14:32:25 2025
jobid: bp1-compute072-0-692ef870

  +--------------------------------------------------------------------+
  |  Jaguar version 12.5, release 138                                  |
  |                                                                    |
  |  Copyright Schrodinger, Inc.                                       |
  |  All Rights Reserved.                                              |
  |                                                                    |
  |  The following have contributed to Jaguar (listed alphabetically): |
  |  Ty Balduf, Mike Beachy, Chandler Bennett, Art Bochevarov,         |
  |  Dale Braden, Yixiang Cao, Alan Chien, Chris Cortis,               |
  |  Rich Friesner, Jim Furness, Bill Goddard, Hod Greeley,            |
  |  Tom Hughes, Leif Jacobson, Jean-Marc Langlois, Daniel Levine,     |
  |  Rob Murphy, Dean Philipp, Tom Pollard, Murco Ringnalda,           |
  |  Daniel Mainz, Pablo Videla, Mark Watson, Haoyu Yu.                |
  |                                                                    |
  |  Use of this program should be acknowledged in publications as:    |
  |                                                                    |
  |  Jaguar, version 12.5, Schrodinger, Inc., New York, NY, 2024.      |
  |                                                                    |
  |  A. D. Bochevarov, E. Harder, T. F. Hughes, J. R. Greenwood,       |
  |  D. A. Braden, D. M. Philipp, D. Rinaldo, M. D. Halls,             |
  |  J. Zhang, R. A. Friesner, "Jaguar: A High-Performance Quantum     |
  |  Chemistry Software Program with Strengths in Life and Materials   |
  |  Sciences", Int. J. Quantum Chem., 2013, 113(18), 2110-2142.       |
  +--------------------------------------------------------------------+
  
  start of program pre
  
  Job name: L_Ar_Br_N_N_trans_PL154
  Executables used: /software/local/apps/schrodinger2024-3/jaguar-v12.5/bin/Linux-x86_64
  Temporary files : /tmp/ar21627/L_Ar_Br_N_N_trans_PL154#bp1-compute072-0-692ef870
  Basis file : using default basis file from /software/local/apps/schrodinger2024-3
  Maestro file (input):  L_Ar_Br_N_N_trans_PL154.mae
  Maestro file (output): L_Ar_Br_N_N_trans_PL154.01.mae
  
 Contents of input file: &gen and (if present) &atomic sections only
 ----------------Contents start----------------
&gen
dftname=b3pw91-d3
basis=6-31G*
numd=5
ip11=2
iaccg=3
isolv=2
igeopt=1
solvent=benzene
ifreq=1
&
&atomic
atom basis
Pd2 lacv3p*
Br3 lacv3p*
&
 -----------------Contents end-----------------
 
  PS calculation requested. Using PS version of 6-31g*
  basis set:               non_standard                    
  net molecular charge:    0
  multiplicity:            1
  
  Using up to  18 threads per process
  
  This run will use ECP on            2  atoms
  number of basis functions....          628
  
 Input geometry:
                                   angstroms
  atom               x                 y                 z
  P1            0.0000000000      0.0000000000      0.0000000000 
  Pd2           0.0000000000      0.0000000000      2.3445237584 
  C73           4.7572357902      0.0000000000      2.7436052540 
  C74           4.0575808254      1.1918968563      2.8730874310 
  C75           2.6674231186      1.1717673209      2.7514252920 
  C76           1.9902475203     -0.0251462719      2.4882976392 
  C77           2.7172986110     -1.2157585941      2.4159240563 
  C78           4.1106551384     -1.2081206031      2.5298064544 
  F79           6.1044741478      0.0154179422      2.8455838519 
  H80           4.5967496187      2.1145852591      3.0708126847 
  H82           2.2091765787     -2.1667951281      2.2856178753 
  H83           4.6901556477     -2.1252603511      2.4651972488 
  H14           2.1187039883      2.1004542291      2.8760092478 
  C3           -0.2567963683     -1.7656921893     -0.4819964896 
  C4            1.7020322688      0.4996716942     -0.7158354725 
  C5           -1.4623365539      0.9084671019     -0.8372580378 
  C6           -0.8605352617     -2.4210398020      1.9479499261 
  C7           -2.1319267368     -2.1837958208      2.5455822157 
  C8           -2.2906120709     -2.4567106497      3.9003017842 
  C9           -1.2388885095     -2.9473126598      4.6786973384 
  C10           0.0161856131     -3.1359321545      4.1166689581 
  C11           0.2050438881     -2.8661086385      2.7610109995 
  C12          -0.7455473033     -2.6728331625      0.4752504535 
  C13          -1.0549962907     -3.9866522126      0.0828400709 
  C14          -0.8755336485     -4.4196007510     -1.2241136069 
  C15          -0.3528476153     -3.5352958883     -2.1666884024 
  C16          -0.0490340022     -2.2311441735     -1.7947080989 
  C17           1.5701202763      0.8588277630     -2.2031213498 
  C18           2.1308245218      1.7458263715      0.0784843026 
  C19           2.8111021146     -0.5515248289     -0.5741582206 
  C20          -2.4937149129     -0.2046013241     -1.0898973719 
  C21          -1.1419664616      1.5869781126     -2.1775540143 
  C22          -2.0779987116      1.9791944223      0.0814735870 
  C23          -3.2797065373     -1.6587969263      1.7252274387 
  H24          -3.2549628384     -2.2671708711      4.3667722462 
  H25          -1.4016305342     -3.1532336185      5.7334717589 
  H26           0.8499705582     -3.4804360005      4.7221243611 
  H27           1.1540815383     -3.1044472180      2.2898569850 
  H28          -1.4223441599     -4.6780845599      0.8379112235 
  H29          -1.1219554718     -5.4425045504     -1.4990615873 
  H30          -0.1820202075     -3.8560492921     -3.1917970082 
  H31           0.3547175483     -1.5693556703     -2.5486124208 
  H32           0.6976348224      1.4787153257     -2.4181679355 
  H33           2.4639970446      1.4173366402     -2.5110018528 
  H34           1.5175790915     -0.0384394308     -2.8268425968 
  H35           1.3968564319      2.5562223477      0.0102078227 
  H36           2.2791180370      1.5105264389      1.1380040342 
  H37           3.0882382246      2.1136462644     -0.3140297160 
  H38           2.5786074547     -1.4857092157     -1.0956551545 
  H39           3.7251911025     -0.1480388395     -1.0308244651 
  H40           3.0389554043     -0.7766709413      0.4716831261 
  H41          -2.0902617847     -0.9879626896     -1.7417199992 
  H42          -2.8261472239     -0.6654948924     -0.1548945538 
  H43          -3.3731261377      0.2245440650     -1.5881684310 
  H44          -0.9138520688      0.8682230216     -2.9682135269 
  H45          -2.0323324965      2.1455276476     -2.4968625059 
  H46          -0.3217064486      2.3089414110     -2.0987327098 
  H47          -2.1683907341      1.6618777697      1.1187072765 
  H48          -1.5123030547      2.9132009617      0.0495525916 
  H49          -3.0892184864      2.2008404287     -0.2846993122 
  H50          -3.5819897471     -2.3647261986      0.9416320392 
  H51          -2.9951961537     -0.7264871763      1.2250761913 
  H52          -4.1516049253     -1.4531605661      2.3547763647 
  N118          0.0353474214     -0.4351966094      4.4872874979 
  H119          0.2436832279     -1.4315213237      4.5221066469 
  H120         -0.9521070388     -0.3007102565      4.7065040580 
  C121          0.8751299869      0.3455125117      5.3346142487 
  C122          2.5468213511      1.9584622811      6.8830164847 
  C123          2.1255380915     -0.1273657571      5.7322370151 
  C124          0.4575339656      1.6260176960      5.7068514619 
  C125          1.2932416191      2.4246905267      6.4815618075 
  C126          2.9575186699      0.6818832216      6.5029660926 
  H127          2.4651411662     -1.1060068601      5.4054457261 
  H128         -0.5067481338      1.9910798663      5.3594244377 
  H129          0.9634823385      3.4214693362      6.7675113874 
  H130          3.9359270266      0.3106854677      6.7996254844 
  H131          3.1990758011      2.5884646613      7.4836607829 
  Br3          -2.3699806788      1.2367417650      3.0190376008 
   
  principal moments of inertia:
        amu*angstrom^2:              4534.78710              6097.53838              7144.57109
                g*cm^2:          7.53019021E-37          1.01251994E-36          1.18638379E-36
   
  rotational constants:
               cm^(-1):      0.00371740      0.00276466      0.00235950
                   GHz:      0.11144492      0.08288246      0.07073609
   
  Molecular weight:     685.11 amu
   
  Stoichiometry: PdC33PNH40BrF
  Molecular Point Group: C1      
  Point Group used: C1
  
 
Number of optimization coordinates:   262
Number of independent coordinates:    262
Number of non-redundant coordinates:  228
Number of frozen coordinates:           0
Number of harmonic constraints:         0
 
Number of geometric degrees of freedom:   228
Maximum geometric degrees of freedom:     228
 " " " " " excluding dummy atoms:         228
 
 
  bond lengths (angstroms):
 
 P1      -Pd2     :   2.344524      P1      -C3      :   1.848225
 P1      -C4      :   1.912853      P1      -C5      :   1.914352
 Pd2     -C76     :   1.995592      Pd2     -N118    :   2.186797
 Pd2     -Br3     :   2.757047      C73     -C74     :   1.388129
 C73     -C78     :   1.386842      C73     -F79     :   1.351180
 C74     -C75     :   1.395616      C74     -H80     :   1.086808
 C75     -C76     :   1.400145      C75     -H14     :   1.085851
 C76     -C77     :   1.396925      C77     -C78     :   1.398024
 C77     -H82     :   1.086111      C78     -H83     :   1.086803
 C3      -C12     :   1.406451      C3      -C16     :   1.408198
 C4      -C17     :   1.535713      C4      -C18     :   1.538736
 C4      -C19     :   1.534641      C5      -C20     :   1.538340
 C5      -C21     :   1.536036      C5      -C22     :   1.539339
 C6      -C7      :   1.424740      C6      -C11     :   1.412308
 C6      -C12     :   1.498488      C7      -C8      :   1.391017
 C7      -C23     :   1.505325      C8      -C9      :   1.397395
 C8      -H24     :   1.087884      C9      -C10     :   1.388043
 C9      -H25     :   1.086940      C10     -C11     :   1.395092
 C10     -H26     :   1.086488      C11     -H27     :   1.086031
 C12     -C13     :   1.405655      C13     -C14     :   1.388445
 C13     -H28     :   1.087730      C14     -C15     :   1.394146
 C14     -H29     :   1.087498      C15     -C16     :   1.389778
 C15     -H30     :   1.087618      C16     -H31     :   1.081365
 C17     -H32     :   1.091667      C17     -H33     :   1.098061
 C17     -H34     :   1.094019      C18     -H35     :   1.095496
 C18     -H36     :   1.095417      C18     -H37     :   1.098180
 C19     -H38     :   1.094858      C19     -H39     :   1.098592
 C19     -H40     :   1.093797      C20     -H41     :   1.096039
 C20     -H42     :   1.094150      C20     -H43     :   1.098091
 C21     -H44     :   1.092606      C21     -H45     :   1.098493
 C21     -H46     :   1.095568      C22     -H47     :   1.088446
 C22     -H48     :   1.092428      C22     -H49     :   1.098078
 C23     -H50     :   1.097148      C23     -H51     :   1.095582
 C23     -H52     :   1.094909      N118    -H119    :   1.018469
 N118    -H120    :   1.020396      N118    -C121    :   1.425729
 C121    -C123    :   1.394718      C121    -C124    :   1.397369
 C122    -C125    :   1.396423      C122    -C126    :   1.393831
 C122    -H131    :   1.087710      C123    -C126    :   1.393233
 C123    -H127    :   1.086214      C124    -C125    :   1.391568
 C124    -H128    :   1.088033      C125    -H129    :   1.088153
 C126    -H130    :   1.087694
 
  bond angles:
 
 C3      -P1      -Pd2     : 105.116879  C4      -P1      -Pd2     : 111.976360
 C4      -P1      -C3      : 105.997112  C5      -P1      -Pd2     : 115.935469
 C5      -P1      -C3      : 103.483848  C5      -P1      -C4      : 113.082669
 C76     -Pd2     -P1      :  94.131495  N118    -Pd2     -P1      : 168.482553
 N118    -Pd2     -C76     :  84.881066  Br3     -Pd2     -P1      : 104.161201
 Br3     -Pd2     -C76     : 147.707583  Br3     -Pd2     -N118    :  82.151249
 C78     -C73     -C74     : 121.828164  F79     -C73     -C74     : 119.059610
 F79     -C73     -C78     : 119.106877  C75     -C74     -C73     : 118.786040
 H80     -C74     -C73     : 119.728669  H80     -C74     -C75     : 121.484486
 C76     -C75     -C74     : 120.694982  H14     -C75     -C74     : 118.752119
 H14     -C75     -C76     : 120.549209  C75     -C76     -Pd2     : 119.020278
 C77     -C76     -Pd2     : 121.740892  C77     -C76     -C75     : 119.118121
 C78     -C77     -C76     : 120.653911  H82     -C77     -C76     : 120.599563
 H82     -C77     -C78     : 118.739707  C77     -C78     -C73     : 118.815189
 H83     -C78     -C73     : 119.716090  H83     -C78     -C77     : 121.465334
 C12     -C3      -P1      : 119.141717  C16     -C3      -P1      : 122.573192
 C16     -C3      -C12     : 118.199564  C17     -C4      -P1      : 110.309113
 C18     -C4      -P1      : 105.445492  C18     -C4      -C17     : 109.540519
 C19     -C4      -P1      : 115.439866  C19     -C4      -C17     : 108.160519
 C19     -C4      -C18     : 107.799614  C20     -C5      -P1      : 103.922197
 C21     -C5      -P1      : 115.589968  C21     -C5      -C20     : 108.430129
 C22     -C5      -P1      : 111.998033  C22     -C5      -C20     : 109.460384
 C22     -C5      -C21     : 107.273978  C11     -C6      -C7      : 118.965046
 C12     -C6      -C7      : 120.577640  C12     -C6      -C11     : 117.061044
 C8      -C7      -C6      : 118.532126  C23     -C7      -C6      : 120.656497
 C23     -C7      -C8      : 120.809915  C9      -C8      -C7      : 121.703300
 H24     -C8      -C7      : 118.982294  H24     -C8      -C9      : 119.306885
 C10     -C9      -C8      : 120.178395  H25     -C9      -C8      : 119.628511
 H25     -C9      -C10     : 120.169683  C11     -C10     -C9      : 119.313298
 H26     -C10     -C9      : 120.753608  H26     -C10     -C11     : 119.930329
 C10     -C11     -C6      : 121.213983  H27     -C11     -C6      : 118.602223
 H27     -C11     -C10     : 119.829472  C6      -C12     -C3      : 125.957636
 C13     -C12     -C3      : 119.297593  C13     -C12     -C6      : 114.489202
 C14     -C13     -C12     : 121.720509  H28     -C13     -C12     : 118.339460
 H28     -C13     -C14     : 119.925002  C15     -C14     -C13     : 119.149091
 H29     -C14     -C13     : 120.132406  H29     -C14     -C15     : 120.706635
 C16     -C15     -C14     : 119.750047  H30     -C15     -C14     : 120.601246
 H30     -C15     -C16     : 119.648619  C15     -C16     -C3      : 121.831192
 H31     -C16     -C3      : 120.179341  H31     -C16     -C15     : 117.989254
 H32     -C17     -C4      : 113.093147  H33     -C17     -C4      : 108.697611
 H33     -C17     -H32     : 107.851764  H34     -C17     -C4      : 111.374170
 H34     -C17     -H32     : 108.362252  H34     -C17     -H33     : 107.241519
 H35     -C18     -C4      : 112.347178  H36     -C18     -C4      : 111.288452
 H36     -C18     -H35     : 108.052256  H37     -C18     -C4      : 109.249860
 H37     -C18     -H35     : 108.304136  H37     -C18     -H36     : 107.435457
 H38     -C19     -C4      : 112.769134  H39     -C19     -C4      : 108.141597
 H39     -C19     -H38     : 106.981867  H40     -C19     -C4      : 112.322148
 H40     -C19     -H38     : 108.907169  H40     -C19     -H39     : 107.441342
 H41     -C20     -C5      : 111.593065  H42     -C20     -C5      : 111.601215
 H42     -C20     -H41     : 108.601239  H43     -C20     -C5      : 109.188746
 H43     -C20     -H41     : 107.713668  H43     -C20     -H42     : 108.002701
 H44     -C21     -C5      : 112.605900  H45     -C21     -C5      : 108.010392
 H45     -C21     -H44     : 107.059461  H46     -C21     -C5      : 112.610995
 H46     -C21     -H44     : 109.223370  H46     -C21     -H45     : 107.019209
 H47     -C22     -C5      : 113.527291  H48     -C22     -C5      : 111.725293
 H48     -C22     -H47     : 108.669241  H49     -C22     -C5      : 108.040699
 H49     -C22     -H47     : 107.466305  H49     -C22     -H48     : 107.130636
 H50     -C23     -C7      : 112.018031  H51     -C23     -C7      : 110.338499
 H51     -C23     -H50     : 107.039687  H52     -C23     -C7      : 111.059327
 H52     -C23     -H50     : 108.185718  H52     -C23     -H51     : 108.026725
 H119    -N118    -Pd2     : 103.384794  H120    -N118    -Pd2     :  99.708600
 H120    -N118    -H119    : 108.635216  C121    -N118    -Pd2     : 118.874281
 C121    -N118    -H119    : 113.258057  C121    -N118    -H120    : 111.725152
 C123    -C121    -N118    : 120.787076  C124    -C121    -N118    : 118.952235
 C124    -C121    -C123    : 120.177041  C126    -C122    -C125    : 119.466318
 H131    -C122    -C125    : 120.244579  H131    -C122    -C126    : 120.288524
 C126    -C123    -C121    : 119.745472  H127    -C123    -C121    : 119.999987
 H127    -C123    -C126    : 120.201911  C125    -C124    -C121    : 119.654426
 H128    -C124    -C121    : 119.160514  H128    -C124    -C125    : 121.160978
 C124    -C125    -C122    : 120.500549  H129    -C125    -C122    : 120.154666
 H129    -C125    -C124    : 119.343576  C123    -C126    -C122    : 120.455125
 H130    -C126    -C122    : 120.214803  H130    -C126    -C123    : 119.328351
 
  torsional angles:
 
 P1      -Pd2     -C76     -C75     : 100.101839
 P1      -Pd2     -C76     -C77     : -83.928870
 P1      -Pd2     -N118    -H119    :   7.364029
 P1      -Pd2     -N118    -H120    :-104.595224
 P1      -Pd2     -N118    -C121    : 133.858180
 P1      -C3      -C12     -C6      : -11.775548
 P1      -C3      -C12     -C13     : 174.368736
 P1      -C3      -C16     -C15     :-174.533115
 P1      -C3      -C16     -H31     :   5.295278
 P1      -C4      -C17     -H32     :  43.552166
 P1      -C4      -C17     -H33     : 163.296794
 P1      -C4      -C17     -H34     : -78.767419
 P1      -C4      -C18     -H35     : -57.359164
 P1      -C4      -C18     -H36     :  63.957422
 P1      -C4      -C18     -H37     :-177.573173
 P1      -C4      -C19     -H38     :  61.302592
 P1      -C4      -C19     -H39     : 179.391947
 P1      -C4      -C19     -H40     : -62.216965
 P1      -C5      -C20     -H41     : -60.179300
 P1      -C5      -C20     -H42     :  61.534829
 P1      -C5      -C20     -H43     :-179.140365
 P1      -C5      -C21     -H44     :  67.308346
 P1      -C5      -C21     -H45     :-174.688135
 P1      -C5      -C21     -H46     : -56.731252
 P1      -C5      -C22     -H47     : -41.038724
 P1      -C5      -C22     -H48     :  82.280505
 P1      -C5      -C22     -H49     :-160.122597
 Pd2     -P1      -C3      -C12     :  16.705128
 Pd2     -P1      -C3      -C16     :-166.720365
 Pd2     -P1      -C4      -C17     :-164.628675
 Pd2     -P1      -C4      -C18     : -46.447296
 Pd2     -P1      -C4      -C19     :  72.409924
 Pd2     -P1      -C5      -C20     : -93.875647
 Pd2     -P1      -C5      -C21     : 147.448405
 Pd2     -P1      -C5      -C22     :  24.180189
 Pd2     -C76     -C75     -C74     : 179.318330
 Pd2     -C76     -C75     -H14     :   0.025842
 Pd2     -C76     -C77     -C78     :-179.501083
 Pd2     -C76     -C77     -H82     :  -0.463083
 Pd2     -N118    -C121    -C123    : -98.727811
 Pd2     -N118    -C121    -C124    :  77.952283
 C73     -C74     -C75     -C76     :  -0.726754
 C73     -C74     -C75     -H14     : 178.578256
 C73     -C78     -C77     -C76     :   1.310696
 C73     -C78     -C77     -H82     :-177.744934
 C74     -C73     -C78     -C77     :   1.291073
 C74     -C73     -C78     -H83     :-178.049371
 C74     -C75     -C76     -C77     :   3.241909
 C75     -C74     -C73     -C78     :  -1.578611
 C75     -C74     -C73     -F79     : 179.270542
 C75     -C76     -Pd2     -N118    : -91.410964
 C75     -C76     -Pd2     -Br3     : -24.887922
 C75     -C76     -C77     -C78     :  -3.535626
 C75     -C76     -C77     -H82     : 175.502373
 C76     -Pd2     -P1      -C3      :  97.551010
 C76     -Pd2     -P1      -C4      : -17.084724
 C76     -Pd2     -P1      -C5      :-148.873530
 C76     -Pd2     -N118    -H119    : -78.200138
 C76     -Pd2     -N118    -H120    : 169.840609
 C76     -Pd2     -N118    -C121    :  48.294014
 C76     -C75     -C74     -H80     : 179.600812
 C76     -C77     -C78     -H83     :-179.360874
 C77     -C76     -Pd2     -N118    :  84.558327
 C77     -C76     -Pd2     -Br3     : 151.081369
 C77     -C76     -C75     -H14     :-176.050579
 C77     -C78     -C73     -F79     :-179.558469
 C78     -C73     -C74     -H80     : 178.099709
 F79     -C73     -C74     -H80     :  -1.051138
 F79     -C73     -C78     -H83     :   1.101086
 H80     -C74     -C75     -H14     :  -1.094178
 H82     -C77     -C78     -H83     :   1.583497
 C3      -P1      -Pd2     -N118    :  12.918358
 C3      -P1      -Pd2     -Br3     :-109.282295
 C3      -P1      -C4      -C17     :  81.276688
 C3      -P1      -C4      -C18     :-160.541932
 C3      -P1      -C4      -C19     : -41.684713
 C3      -P1      -C5      -C20     :  20.632960
 C3      -P1      -C5      -C21     : -98.042988
 C3      -P1      -C5      -C22     : 138.688797
 C3      -C12     -C6      -C7      : 105.777969
 C3      -C12     -C6      -C11     : -95.234046
 C3      -C12     -C13     -C14     :   0.802333
 C3      -C12     -C13     -H28     : 179.390414
 C3      -C16     -C15     -C14     :  -0.153059
 C3      -C16     -C15     -H30     : 179.740032
 C4      -P1      -Pd2     -N118    :-101.717376
 C4      -P1      -Pd2     -Br3     : 136.081971
 C4      -P1      -C3      -C12     : 135.436219
 C4      -P1      -C3      -C16     : -47.989274
 C4      -P1      -C5      -C20     : 134.853728
 C4      -P1      -C5      -C21     :  16.177780
 C4      -P1      -C5      -C22     :-107.090436
 C5      -P1      -Pd2     -N118    : 126.493818
 C5      -P1      -Pd2     -Br3     :   4.293165
 C5      -P1      -C3      -C12     :-105.344297
 C5      -P1      -C3      -C16     :  71.230210
 C5      -P1      -C4      -C17     : -31.420181
 C5      -P1      -C4      -C18     :  86.761198
 C5      -P1      -C4      -C19     :-154.381582
 C6      -C7      -C8      -C9      :   0.290054
 C6      -C7      -C8      -H24     : 179.285148
 C6      -C7      -C23     -H50     :  63.806142
 C6      -C7      -C23     -H51     : -55.337607
 C6      -C7      -C23     -H52     :-175.098870
 C6      -C11     -C10     -C9      :  -0.796455
 C6      -C11     -C10     -H26     : 179.803905
 C6      -C12     -C3      -C16     : 171.499735
 C6      -C12     -C13     -C14     :-173.734714
 C6      -C12     -C13     -H28     :   4.853366
 C7      -C6      -C11     -C10     :   3.084391
 C7      -C6      -C11     -H27     : 176.237356
 C7      -C6      -C12     -C13     : -80.109167
 C7      -C8      -C9      -C10     :   2.033696
 C7      -C8      -C9      -H25     :-179.723080
 C8      -C7      -C6      -C11     :  -2.787609
 C8      -C7      -C6      -C12     : 155.807276
 C8      -C7      -C23     -H50     :-115.747407
 C8      -C7      -C23     -H51     : 125.108844
 C8      -C7      -C23     -H52     :   5.347581
 C8      -C9      -C10     -C11     :  -1.767401
 C8      -C9      -C10     -H26     : 177.627168
 C9      -C8      -C7      -C23     : 179.852907
 C9      -C10     -C11     -H27     :-173.866501
 C10     -C9      -C8      -H24     :-176.958218
 C10     -C11     -C6      -C12     :-156.254702
 C11     -C6      -C7      -C23     : 177.648842
 C11     -C6      -C12     -C13     :  78.878818
 C11     -C10     -C9      -H25     : 179.998945
 C12     -C3      -C16     -C15     :   2.072092
 C12     -C3      -C16     -H31     :-178.099515
 C12     -C6      -C7      -C23     : -23.756272
 C12     -C6      -C11     -H27     :  16.898263
 C12     -C13     -C14     -C15     :   1.141261
 C12     -C13     -C14     -H29     : 179.897071
 C13     -C12     -C3      -C16     :  -2.355980
 C13     -C14     -C15     -C16     :  -1.459920
 C13     -C14     -C15     -H30     : 178.648025
 C14     -C15     -C16     -H31     :-179.985063
 C15     -C14     -C13     -H28     :-177.424868
 C16     -C15     -C14     -H29     : 179.791615
 C17     -C4      -C18     -H35     :  61.336658
 C17     -C4      -C18     -H36     :-177.346757
 C17     -C4      -C18     -H37     : -58.877352
 C17     -C4      -C19     -H38     : -62.790386
 C17     -C4      -C19     -H39     :  55.298969
 C17     -C4      -C19     -H40     : 173.690056
 C18     -C4      -C17     -H32     : -72.085679
 C18     -C4      -C17     -H33     :  47.658949
 C18     -C4      -C17     -H34     : 165.594736
 C18     -C4      -C19     -H38     : 178.849063
 C18     -C4      -C19     -H39     : -63.061582
 C18     -C4      -C19     -H40     :  55.329506
 C19     -C4      -C17     -H32     : 170.669408
 C19     -C4      -C17     -H33     : -69.585964
 C19     -C4      -C17     -H34     :  48.349823
 C19     -C4      -C18     -H35     : 178.807936
 C19     -C4      -C18     -H36     : -59.875479
 C19     -C4      -C18     -H37     :  58.593926
 C20     -C5      -C21     -H44     : -48.845622
 C20     -C5      -C21     -H45     :  69.157897
 C20     -C5      -C21     -H46     :-172.885220
 C20     -C5      -C22     -H47     :  73.667372
 C20     -C5      -C22     -H48     :-163.013399
 C20     -C5      -C22     -H49     : -45.416501
 C21     -C5      -C20     -H41     :  63.301952
 C21     -C5      -C20     -H42     :-174.983920
 C21     -C5      -C20     -H43     : -55.659114
 C21     -C5      -C22     -H47     :-168.879784
 C21     -C5      -C22     -H48     : -45.560555
 C21     -C5      -C22     -H49     :  72.036343
 C22     -C5      -C20     -H41     :-179.973221
 C22     -C5      -C20     -H42     : -58.259093
 C22     -C5      -C20     -H43     :  61.065713
 C22     -C5      -C21     -H44     :-166.969553
 C22     -C5      -C21     -H45     : -48.966034
 C22     -C5      -C21     -H46     :  68.990849
 C23     -C7      -C8      -H24     :  -1.151999
 H24     -C8      -C9      -H25     :   1.285006
 H25     -C9      -C10     -H26     :  -0.606485
 H26     -C10     -C11     -H27     :   6.733859
 H28     -C13     -C14     -H29     :   1.330941
 H29     -C14     -C15     -H30     :  -0.100440
 H30     -C15     -C16     -H31     :  -0.091972
 N118    -C121    -C123    -C126    : 176.661059
 N118    -C121    -C123    -H127    :  -0.706190
 N118    -C121    -C124    -C125    :-176.995538
 N118    -C121    -C124    -H128    :   1.240509
 H119    -N118    -Pd2     -Br3     : 131.446544
 H119    -N118    -C121    -C123    :  22.923436
 H119    -N118    -C121    -C124    :-160.396469
 H120    -N118    -Pd2     -Br3     :  19.487291
 H120    -N118    -C121    -C123    : 145.992975
 H120    -N118    -C121    -C124    : -37.326931
 C121    -N118    -Pd2     -Br3     :-102.059304
 C121    -C123    -C126    -C122    :   0.225139
 C121    -C123    -C126    -H130    :-179.298625
 C121    -C124    -C125    -C122    :   0.324738
 C121    -C124    -C125    -H129    : 179.925363
 C122    -C125    -C124    -H128    :-177.875139
 C122    -C126    -C123    -H127    : 177.587000
 C123    -C121    -C124    -C125    :  -0.294680
 C123    -C121    -C124    -H128    : 177.941368
 C123    -C126    -C122    -C125    :  -0.195826
 C123    -C126    -C122    -H131    :-179.919724
 C124    -C121    -C123    -C126    :   0.021516
 C124    -C121    -C123    -H127    :-177.345733
 C124    -C125    -C122    -C126    :  -0.080786
 C124    -C125    -C122    -H131    : 179.643235
 C125    -C122    -C126    -H130    : 179.323704
 C126    -C122    -C125    -H129    :-179.678167
 H127    -C123    -C126    -H130    :  -1.936764
 H128    -C124    -C125    -H129    :   1.725486
 H129    -C125    -C122    -H131    :   0.045855
 H130    -C126    -C122    -H131    :  -0.400194
 
  nuclear repulsion energy.......          5279.176410511 hartrees
  
  Detected an organometallic with only one TM atom. 
  
  Oxidation state on metal       2 is     2
  Formal multiplet on metal      2 is     1
  Formal charge on ligand        3 is    -1
  Formal multiplet on ligand     3 is     1
  Formal charge on ligand        5 is    -1
  Formal multiplet on ligand     5 is     1
  
 
  Will use High-Quality Initial guess for organometallics
       including d-d repulsion (iguess=30)
 
 Non-default options chosen:
   SCF calculation type: DFT(b3pw91-d3)              
   DFT=Becke_3_Parameter/HF+Slater+Becke88+PW91+PW-GGAIIC (B3PW91-D3)
   Geometry will be optimized in redundant internal coordinates
   Solvation energy will be computed using PBF
     -solute cavity energy will not be included
     -surface area terms will not be included
   Vibrational frequencies and related properties will be computed
      from analytic second derivatives
   IR intensities will be computed
   Thermochemical properties will be computed
   Maximum number of geometry steps: 100
   Scaling standard convergence criteria by a factor of   5.00
   Solvent: benzene                                                         
   Internal dielectric constant:    1.000
   Continuum dielectric constant:   2.283
   Solvent probe molecule radius:   2.600
  
 Non-default print settings:
     11=  2
  
 Temporary integer options set:
     21= -1  73=  2
  
  atom       vdw   vdw2    cov     mass  grid  daf  charge   basis
  P1        2.147  2.074  1.060   30.974    Y    Y      Y    ps_6-31g*
  Pd2       1.450  1.450  1.280  105.903    Y    Y      Y    lacv3p*
  C73       1.949  1.900  0.770   12.000    Y    Y      Y    ps_6-31g*
  C74       1.949  1.900  0.770   12.000    Y    Y      Y    ps_6-31g*
  C75       1.949  1.900  0.770   12.000    Y    Y      Y    ps_6-31g*
  C76       1.949  1.900  0.770   12.000    Y    Y      Y    ps_6-31g*
  C77       1.949  1.900  0.770   12.000    Y    Y      Y    ps_6-31g*
  C78       1.949  1.900  0.770   12.000    Y    Y      Y    ps_6-31g*
  F79       1.736  1.682  0.720   18.998    Y    Y      Y    ps_6-31g*
  H80       1.597  1.150  0.320    1.008    Y    Y      Y    ps_6-31g*
  H82       1.597  1.150  0.320    1.008    Y    Y      Y    ps_6-31g*
  H83       1.597  1.150  0.320    1.008    Y    Y      Y    ps_6-31g*
  H14       1.597  1.150  0.320    1.008    Y    Y      Y    ps_6-31g*
  C3        1.949  1.900  0.770   12.000    Y    Y      Y    ps_6-31g*
  C4        1.949  1.900  0.770   12.000    Y    Y      Y    ps_6-31g*
  C5        1.949  1.900  0.770   12.000    Y    Y      Y    ps_6-31g*
  C6        1.949  1.900  0.770   12.000    Y    Y      Y    ps_6-31g*
  C7        1.949  1.900  0.770   12.000    Y    Y      Y    ps_6-31g*
  C8        1.949  1.900  0.770   12.000    Y    Y      Y    ps_6-31g*
  C9        1.949  1.900  0.770   12.000    Y    Y      Y    ps_6-31g*
  C10       1.949  1.900  0.770   12.000    Y    Y      Y    ps_6-31g*
  C11       1.949  1.900  0.770   12.000    Y    Y      Y    ps_6-31g*
  C12       1.949  1.900  0.770   12.000    Y    Y      Y    ps_6-31g*
  C13       1.949  1.900  0.770   12.000    Y    Y      Y    ps_6-31g*
  C14       1.949  1.900  0.770   12.000    Y    Y      Y    ps_6-31g*
  C15       1.949  1.900  0.770   12.000    Y    Y      Y    ps_6-31g*
  C16       1.949  1.900  0.770   12.000    Y    Y      Y    ps_6-31g*
  C17       1.949  1.900  0.770   12.000    Y    Y      Y    ps_6-31g*
  C18       1.949  1.900  0.770   12.000    Y    Y      Y    ps_6-31g*
  C19       1.949  1.900  0.770   12.000    Y    Y      Y    ps_6-31g*
  C20       1.949  1.900  0.770   12.000    Y    Y      Y    ps_6-31g*
  C21       1.949  1.900  0.770   12.000    Y    Y      Y    ps_6-31g*
  C22       1.949  1.900  0.770   12.000    Y    Y      Y    ps_6-31g*
  C23       1.949  1.900  0.770   12.000    Y    Y      Y    ps_6-31g*
  H24       1.597  1.150  0.320    1.008    Y    Y      Y    ps_6-31g*
  H25       1.597  1.150  0.320    1.008    Y    Y      Y    ps_6-31g*
  H26       1.597  1.150  0.320    1.008    Y    Y      Y    ps_6-31g*
  H27       1.597  1.150  0.320    1.008    Y    Y      Y    ps_6-31g*
  H28       1.597  1.150  0.320    1.008    Y    Y      Y    ps_6-31g*
  H29       1.597  1.150  0.320    1.008    Y    Y      Y    ps_6-31g*
  H30       1.597  1.150  0.320    1.008    Y    Y      Y    ps_6-31g*
  H31       1.597  1.150  0.320    1.008    Y    Y      Y    ps_6-31g*
  H32       1.597  1.150  0.320    1.008    Y    Y      Y    ps_6-31g*
  H33       1.597  1.150  0.320    1.008    Y    Y      Y    ps_6-31g*
  H34       1.597  1.150  0.320    1.008    Y    Y      Y    ps_6-31g*
  H35       1.597  1.150  0.320    1.008    Y    Y      Y    ps_6-31g*
  H36       1.597  1.150  0.320    1.008    Y    Y      Y    ps_6-31g*
  H37       1.597  1.150  0.320    1.008    Y    Y      Y    ps_6-31g*
  H38       1.597  1.150  0.320    1.008    Y    Y      Y    ps_6-31g*
  H39       1.597  1.150  0.320    1.008    Y    Y      Y    ps_6-31g*
  H40       1.597  1.150  0.320    1.008    Y    Y      Y    ps_6-31g*
  H41       1.597  1.150  0.320    1.008    Y    Y      Y    ps_6-31g*
  H42       1.597  1.150  0.320    1.008    Y    Y      Y    ps_6-31g*
  H43       1.597  1.150  0.320    1.008    Y    Y      Y    ps_6-31g*
  H44       1.597  1.150  0.320    1.008    Y    Y      Y    ps_6-31g*
  H45       1.597  1.150  0.320    1.008    Y    Y      Y    ps_6-31g*
  H46       1.597  1.150  0.320    1.008    Y    Y      Y    ps_6-31g*
  H47       1.597  1.150  0.320    1.008    Y    Y      Y    ps_6-31g*
  H48       1.597  1.150  0.320    1.008    Y    Y      Y    ps_6-31g*
  H49       1.597  1.150  0.320    1.008    Y    Y      Y    ps_6-31g*
  H50       1.597  1.150  0.320    1.008    Y    Y      Y    ps_6-31g*
  H51       1.597  1.150  0.320    1.008    Y    Y      Y    ps_6-31g*
  H52       1.597  1.150  0.320    1.008    Y    Y      Y    ps_6-31g*
  N118      1.831  1.600  0.750   14.003    Y    Y      Y    ps_6-31g*
  H119      1.597  1.150  0.320    1.008    Y    Y      Y    ps_6-31g*
  H120      1.597  1.150  0.320    1.008    Y    Y      Y    ps_6-31g*
  C121      1.949  1.900  0.770   12.000    Y    Y      Y    ps_6-31g*
  C122      1.949  1.900  0.770   12.000    Y    Y      Y    ps_6-31g*
  C123      1.949  1.900  0.770   12.000    Y    Y      Y    ps_6-31g*
  C124      1.949  1.900  0.770   12.000    Y    Y      Y    ps_6-31g*
  C125      1.949  1.900  0.770   12.000    Y    Y      Y    ps_6-31g*
  C126      1.949  1.900  0.770   12.000    Y    Y      Y    ps_6-31g*
  H127      1.597  1.150  0.320    1.008    Y    Y      Y    ps_6-31g*
  H128      1.597  1.150  0.320    1.008    Y    Y      Y    ps_6-31g*
  H129      1.597  1.150  0.320    1.008    Y    Y      Y    ps_6-31g*
  H130      1.597  1.150  0.320    1.008    Y    Y      Y    ps_6-31g*
  H131      1.597  1.150  0.320    1.008    Y    Y      Y    ps_6-31g*
  Br3       2.095  2.095  1.140   78.918    Y    Y      Y    lav3p*
 
  atom      formal  2spin      esp    mulk    frag
  P1           0       0        Y    0.000       0
  Pd2          2       0        Y    0.000       0
  C73         -1       0        Y    0.000       0
  N118         0       0        Y    0.000       0
  Br3         -1       0        Y    0.000       0
  
  end of program pre
   
 Time(pre)  user:       4.620  user+sys:       4.620  wallclock:       1.640
  
  start of program onee
  
  smallest eigenvalue of S:    3.849E-04
  number of canonical orbitals.....          624
  end of program onee
   
 Time(onee)  user:      10.697  user+sys:      10.697  wallclock:       1.758
  
  start of program hfig
  
  initial wavefunction generated automatically from atomic wavefunctions
  Only one state below 0.010000
  Skip d-d repulsion considerations 
 
  Irreducible     Total no   No of occupied orbitals 
  representation  orbitals   Shell_1  Shell_2    ...
  No Symm          624        147
  ------------------------
  Orbital occupation/shell    1.000
 
  end of program hfig
   
 Time(hfig)  user:       2.554  user+sys:       2.554  wallclock:       1.060
  
  start of program probe
  
  end of program probe
   
 Time(probe)  user:       1.533  user+sys:       1.533  wallclock:       0.407
  
  start of program grid
  
   grid     grid set  grid #  grid sym
  ------    --------  ------  --------
  coarse        0        0        1
  medium        2        1        1
  fine          0        0        1
  ultrafine     4        2        1
  charge       -1        3        1
  gradient      4        2        1
  density       0        0        1
  DFT-fine    -11        4        1
  DFT-med.    -10        5        1
  DFT-grad    -12        6        1
  DFT-der2     -8        7        1
  DFT-cphf     -9        8        1
  LMP2-enrg     4        2        1
  LMP2-grad     2        1        1
  DFT-cphf2   -15        9        1
  PBF-dens      0        0        1
  plotting      0        0        1
  Rel-grad    -17        0        1
  
  number of gridpoints: 
     atom           P1         Pd2         C73         C74         C75         C76         C77
  grid # 1         614         349          77          92          91          99          93
  grid # 2         430         300         329         318         298         383         311
  grid # 3           9         206          22          13           6           6           6
  grid # 4        8714        8714        8714        8714        8714        8714        8714
  grid # 5        1192        1192        1192        1192        1192        1192        1192
  grid # 6        9132        9132        5922        5922        5922        5922        5922
  grid # 7       23034       32968       13950       13950       13950       13950       13950
  grid # 8         722        1150         748         748         748         748         748
  grid # 9         366        2198         394         394         394         394         394
   
  number of gridpoints: 
     atom          C78         F79         H80         H82         H83         H14          C3
  grid # 1          92         583         113          97         113         110          93
  grid # 2         316         565         462         407         463         444         380
  grid # 3           9         342         363          99         386         204          10
  grid # 4        8714        8714        8714        8714        8714        8714        8714
  grid # 5        1192        1192        1192        1192        1192        1192        1192
  grid # 6        5922        5922        5922        5922        5922        5922        5922
  grid # 7       13950       23190       15206       15206       15206       15206       13950
  grid # 8         748         770         786         786         786         786         748
  grid # 9         394         420         420         420         420         420         394
   
  number of gridpoints: 
     atom           C4          C5          C6          C7          C8          C9         C10
  grid # 1          88          87          97          98          95          94          92
  grid # 2         366         367         355         358         324         319         301
  grid # 3           6           6           7          13          22          27          21
  grid # 4        8714        8714        8714        8714        8714        8714        8714
  grid # 5        1192        1192        1192        1192        1192        1192        1192
  grid # 6        5922        5922        5922        5922        5922        5922        5922
  grid # 7       13950       13950       13950       13950       13950       13950       13950
  grid # 8         748         748         748         748         748         748         748
  grid # 9         394         394         394         394         394         394         394
   
  number of gridpoints: 
     atom          C11         C12         C13         C14         C15         C16         C17
  grid # 1          93          98          95          96          95          94          79
  grid # 2         319         355         325         323         323         322         240
  grid # 3          11          11          23          44          29          12           6
  grid # 4        8714        8714        8714        8714        8714        8714        8714
  grid # 5        1192        1192        1192        1192        1192        1192        1192
  grid # 6        5922        5922        5922        5922        5922        5922        5922
  grid # 7       13950       13950       13950       13950       13950       13950       13950
  grid # 8         748         748         748         748         748         748         748
  grid # 9         394         394         394         394         394         394         394
   
  number of gridpoints: 
     atom          C18         C19         C20         C21         C22         C23         H24
  grid # 1          80          80          78          81          81          81         113
  grid # 2         235         237         241         235         237         234         457
  grid # 3           6           6           6           6           6           6         305
  grid # 4        8714        8714        8714        8714        8714        8714        8714
  grid # 5        1192        1192        1192        1192        1192        1192        1192
  grid # 6        5922        5922        5922        5922        5922        5922        5922
  grid # 7       13950       13950       13950       13950       13950       13950       15206
  grid # 8         748         748         748         748         748         748         786
  grid # 9         394         394         394         394         394         394         420
   
  number of gridpoints: 
     atom          H25         H26         H27         H28         H29         H30         H31
  grid # 1         117         113         103         115         118         118         104
  grid # 2         466         456         412         457         468         466         427
  grid # 3         388         310         169         313         426         418         118
  grid # 4        8714        8714        8714        8714        8714        8714        8714
  grid # 5        1192        1192        1192        1192        1192        1192        1192
  grid # 6        5922        5922        5922        5922        5922        5922        5922
  grid # 7       15206       15206       15206       15206       15206       15206       15206
  grid # 8         786         786         786         786         786         786         786
  grid # 9         420         420         420         420         420         420         420
   
  number of gridpoints: 
     atom          H32         H33         H34         H35         H36         H37         H38
  grid # 1          88         107         101         106          95         107         105
  grid # 2         384         446         425         444         401         442         441
  grid # 3          67         267         173         193          33         244         216
  grid # 4        8714        8714        8714        8714        8714        8714        8714
  grid # 5        1192        1192        1192        1192        1192        1192        1192
  grid # 6        5922        5922        5922        5922        5922        5922        5922
  grid # 7       15206       15206       15206       15206       15206       15206       15206
  grid # 8         786         786         786         786         786         786         786
  grid # 9         420         420         420         420         420         420         420
   
  number of gridpoints: 
     atom          H39         H40         H41         H42         H43         H44         H45
  grid # 1         109          99         102          91         109         103         109
  grid # 2         446         411         430         392         447         432         446
  grid # 3         256          64         152          50         268         187         264
  grid # 4        8714        8714        8714        8714        8714        8714        8714
  grid # 5        1192        1192        1192        1192        1192        1192        1192
  grid # 6        5922        5922        5922        5922        5922        5922        5922
  grid # 7       15206       15206       15206       15206       15206       15206       15206
  grid # 8         786         786         786         786         786         786         786
  grid # 9         420         420         420         420         420         420         420
   
  number of gridpoints: 
     atom          H46         H47         H48         H49         H50         H51         H52
  grid # 1          99          90         107         108         108          94         109
  grid # 2         409         420         445         446         442         393         450
  grid # 3         155          47         249         257         261          42         265
  grid # 4        8714        8714        8714        8714        8714        8714        8714
  grid # 5        1192        1192        1192        1192        1192        1192        1192
  grid # 6        5922        5922        5922        5922        5922        5922        5922
  grid # 7       15206       15206       15206       15206       15206       15206       15206
  grid # 8         786         786         786         786         786         786         786
  grid # 9         420         420         420         420         420         420         420
   
  number of gridpoints: 
     atom         N118        H119        H120        C121        C122        C123        C124
  grid # 1         100          95         100          97          96          96          96
  grid # 2         310         391         415         351         324         321         323
  grid # 3           6          38         112          28          40          33          32
  grid # 4        8714        8714        8714        8714        8714        8714        8714
  grid # 5        1192        1192        1192        1192        1192        1192        1192
  grid # 6        5922        5922        5922        5922        5922        5922        5922
  grid # 7       13958       15206       15206       13950       13950       13950       13950
  grid # 8         756         786         786         748         748         748         748
  grid # 9         406         420         420         394         394         394         394
   
  number of gridpoints: 
     atom         C125        C126        H127        H128        H129        H130        H131
  grid # 1          96          96         111         111         118         117         118
  grid # 2         324         325         445         451         466         465         466
  grid # 3          39          35         202         236         412         383         412
  grid # 4        8714        8714        8714        8714        8714        8714        8714
  grid # 5        1192        1192        1192        1192        1192        1192        1192
  grid # 6        5922        5922        5922        5922        5922        5922        5922
  grid # 7       13950       13950       15206       15206       15206       15206       15206
  grid # 8         748         748         786         786         786         786         786
  grid # 9         394         394         420         420         420         420         420
   
  number of gridpoints: 
     atom          Br3       total
  grid # 1         486        9378
  grid # 2         454       29854
  grid # 3         214       10334
  grid # 4        8714      679692
  grid # 5        1192       92976
  grid # 6        9132      471546
  grid # 7       11582     1173322
  grid # 8         694       60216
  grid # 9         358       33550
   
  end of program grid
   
 Time(grid)  user:     343.211  user+sys:     343.211  wallclock:      24.237
  
  start of program rwr
  
  end of program rwr
   
 Time(rwr)  user:      59.803  user+sys:      59.803  wallclock:      14.944
  
  start of program scf
  
 number of electrons..........        294
 number of alpha electrons....        147
 number of beta electrons.....        147
 number of orbitals, total....        624
 number of doubly-occ'd orbs..        147
 number of open shell orbs....          0
 number of occupied orbitals..        147
 number of virtual orbitals...        477
 number of hamiltonians.......          1
 number of shells.............          1
 SCF type: DFT=Becke_3_Parameter/HF+Slater+Becke88+PW91+PW-GGAIIC (B3PW91-D3)
 Energy computed using pseudospectral method.
 Convergence Criterion:
    Energy (econv):       1.00E-05
    RMS density (dconv):  5.00E-06
  
       i  u  d  i  g                   
       t  p  i  c  r                                 RMS    maximum
       e  d  i  u  i                       energy  density   DIIS  
       r  t  s  t  d       total energy    change  change    error 
  
etot    1  N  N  5  M   -1912.22651689882           2.1E-03  1.7E-01
etot    2  Y  Y  6  M   -1915.36883867790  3.1E+00  3.5E-03  1.1E-01
etot    3  Y  Y  6  M   -1916.37124840658  1.0E+00  1.5E-03  7.4E-02
etot    4  N  Y  2  U   -1916.66388880437  2.9E-01  9.1E-04  2.9E-02
etot    5  Y  Y  6  M   -1916.81715998767  1.5E-01  4.6E-04  1.9E-02
etot    6  N  Y  2  U   -1916.83602233088  1.9E-02  8.9E-04  1.3E-02
etot    7  Y  Y  6  M   -1916.83671054400  6.9E-04  1.9E-04  7.8E-03
etot    8  Y  Y  6  M   -1916.84808037547  1.1E-02  6.6E-05  1.9E-03
etot    9  N  Y  2  U   -1916.85073180054  2.7E-03  1.7E-05  2.3E-04
etot   10  N  Y  2  U   -1916.85074835222  1.7E-05  5.2E-06  1.4E-04
etot   11  N  Y  2  U   -1916.85075136677  3.0E-06  2.1E-06  3.2E-05
etot   12  N  N  2  U   -1916.85075137539  8.6E-09  0.0E+00  0.0E+00
 
  Computing the dispersion energy correction and its gradients...
  
  
 Energy components, in hartrees:
   (A)  Nuclear repulsion............    5279.17641051144
   (E)  Total one-electron terms.....  -13182.40526101594
   (F)    Electron-nuclear...........  -15000.55475388597
   (H)    Kinetic....................    1818.14949287003
   (I)  Total two-electron terms.....    5986.37809912910
   (J)    Coulomb....................    6236.27037235832
   (K)    Exchange+Correlation.......    -249.89227322922
   (L)  Electronic energy............   -7196.02716188684  (E+I)
   (N0) D3 correction................      -0.16462202420
   (N)  Total energy.................   -1917.01537339960  (A+L+N0)
   (O)  Gas phase energy.............   -1917.01537339960
  
 SCFE: SCF energy: DFT(b3pw91-d3)     -1917.01537339960 hartrees   iterations:  12
  
 
 HOMO energy:    -0.19357
 LUMO energy:    -0.05659
 
  Orbital energies (hartrees): 
   -77.08529   -24.67983   -14.34946   -10.24663   -10.20852   -10.20702
   -10.20557   -10.20374   -10.20369   -10.19996   -10.19901   -10.19455
   -10.19318   -10.19291   -10.19215   -10.19077   -10.18898   -10.18737
   -10.18137   -10.17555   -10.17314   -10.17112   -10.17021   -10.16883
   -10.16882   -10.16753   -10.16731   -10.16521   -10.16391   -10.16143
   -10.15573   -10.15174   -10.14846   -10.14651   -10.14079   -10.12306
    -6.58545    -4.74359    -4.74246    -4.74075    -3.34312    -2.07569
    -2.07379    -2.04133    -1.21217    -0.93804    -0.89450    -0.87211
    -0.86051    -0.84109    -0.83359    -0.81046    -0.80249    -0.78698
    -0.77245    -0.75767    -0.74637    -0.74492    -0.73957    -0.72986
    -0.71516    -0.69963    -0.68594    -0.68384    -0.67900    -0.66515
    -0.65591    -0.64123    -0.62547    -0.61634    -0.61366    -0.60577
    -0.60002    -0.59709    -0.58915    -0.55385    -0.54578    -0.53847
    -0.53107    -0.52760    -0.51790    -0.50872    -0.48692    -0.48387
    -0.48186    -0.48031    -0.47811    -0.46982    -0.46845    -0.46327
    -0.45860    -0.45424    -0.45232    -0.44390    -0.44330    -0.43684
    -0.43543    -0.43451    -0.43188    -0.42791    -0.42280    -0.42079
    -0.41853    -0.41586    -0.41380    -0.41171    -0.40089    -0.39477
    -0.39121    -0.38883    -0.38576    -0.38097    -0.37671    -0.37486
    -0.37025    -0.36866    -0.36093    -0.35574    -0.35493    -0.35056
    -0.34968    -0.34559    -0.34094    -0.33846    -0.33287    -0.33186
    -0.32891    -0.32228    -0.31991    -0.31492    -0.29991    -0.29611
    -0.28928    -0.28674    -0.28070    -0.27051    -0.26733    -0.26515
    -0.25834    -0.25015    -0.24380    -0.22907    -0.22465    -0.21776
    -0.21432    -0.19995    -0.19357    -0.05659    -0.04294    -0.03471
    -0.02742    -0.01905    -0.00956    -0.00030     0.00801     0.01271
     0.02905
 
  end of program scf
   
 Time(scf)  user:     571.227  user+sys:     571.227  wallclock:      59.570
  
  start of program der1a
  
  end of program der1a
   
 Time(der1a)  user:      31.340  user+sys:      31.340  wallclock:       2.667
  
  start of program rwr
  
  end of program rwr
   
 Time(rwr)  user:      42.848  user+sys:      42.848  wallclock:      16.628
  
  start of program der1b
  
   
  forces (hartrees/bohr) : total     
   
 atom  label           x              y              z
 ---- --------   -------------  -------------  -------------
    1 P1          1.935193E-02  -3.613585E-03   1.640155E-02
    2 Pd2        -1.043398E-02   1.125234E-02   4.197575E-03
    3 C73         1.747250E-03  -1.191769E-03   1.103858E-04
    4 C74        -8.279864E-05   2.557261E-04   4.162017E-03
    5 C75         6.926281E-03  -6.372075E-03   2.015776E-02
    6 C76        -1.962389E-03  -1.874036E-02   7.591094E-03
    7 C77         7.774373E-03   7.262670E-03   1.051121E-02
    8 C78         2.582389E-03  -1.660185E-03   6.803373E-03
    9 F79        -2.913767E-03   8.976430E-05  -2.233543E-04
   10 H80        -3.809821E-04  -6.171370E-04  -6.347854E-05
   11 H82         1.267630E-02   1.320811E-02  -3.615880E-03
   12 H83         4.630914E-04   4.057398E-04  -4.681700E-04
   13 H14        -6.857712E-04   2.143102E-04   3.115517E-03
   14 C3          4.045307E-03  -3.155128E-03   2.168807E-03
   15 C4         -2.101343E-03   1.005202E-02  -6.525923E-03
   16 C5         -5.774983E-03   2.921239E-03  -5.432246E-03
   17 C6         -6.698756E-03  -1.047063E-02   6.549886E-03
   18 C7          3.847840E-03  -7.778303E-04  -1.062338E-02
   19 C8          2.194722E-03  -1.009022E-03   9.311598E-03
   20 C9         -1.405953E-02  -5.748607E-03   1.659948E-03
   21 C10         4.830666E-03  -1.320891E-02  -8.510823E-03
   22 C11        -1.617775E-02  -1.989163E-02  -5.442672E-03
   23 C12         6.213997E-03   2.284632E-03  -1.853780E-03
   24 C13        -6.238206E-05   1.039346E-04   5.577237E-04
   25 C14         3.716615E-05   1.351135E-03   1.469893E-04
   26 C15         4.551359E-04   6.600397E-04   6.406367E-04
   27 C16         1.221253E-03  -2.613661E-05   2.030406E-03
   28 C17         1.212222E-02   1.181322E-03  -3.508655E-03
   29 C18        -5.676858E-03   5.457782E-03  -1.206125E-02
   30 C19        -3.166925E-03  -4.067500E-03   7.649214E-04
   31 C20        -3.868615E-03   4.160320E-03  -8.612848E-03
   32 C21        -1.873174E-02   4.717897E-03  -7.650792E-05
   33 C22         4.490223E-03  -6.674638E-04  -1.741819E-02
   34 C23        -2.513823E-03  -7.846091E-03   6.167206E-03
   35 H24         4.038924E-04  -3.898584E-04  -7.639550E-04
   36 H25         1.081052E-04  -2.866501E-04   1.975712E-04
   37 H26         7.280099E-04  -2.563328E-03   1.493235E-04
   38 H27        -1.250928E-02  -7.350132E-03   6.744814E-04
   39 H28        -2.000782E-04   5.787617E-04   3.395506E-05
   40 H29         1.769180E-05   4.380433E-04   3.405916E-05
   41 H30         3.288917E-05   3.266276E-05   3.807499E-04
   42 H31        -6.315886E-04   3.262784E-03  -7.838513E-04
   43 H32         3.298684E-02  -1.324420E-02  -6.465568E-04
   44 H33         1.796345E-03  -1.964000E-03  -5.631751E-04
   45 H34         5.532914E-04  -2.783125E-04  -1.941993E-03
   46 H35        -1.388413E-03   2.152475E-03  -1.602749E-03
   47 H36        -3.108035E-03   7.111346E-03  -2.764305E-02
   48 H37        -2.760055E-04   6.692381E-04  -9.930272E-04
   49 H38        -1.836955E-03  -9.707410E-04   2.571259E-04
   50 H39        -1.071225E-03   1.520912E-03  -6.207861E-04
   51 H40        -1.352071E-03   8.896035E-04  -1.215076E-02
   52 H41        -5.693187E-03   2.885730E-03   7.618939E-04
   53 H42         3.723115E-03   4.727773E-03  -1.865862E-02
   54 H43        -3.029377E-04   1.623828E-03   1.296322E-03
   55 H44        -7.830712E-04  -3.531995E-05  -1.871494E-03
   56 H45        -2.215226E-03  -1.570591E-03   1.283124E-03
   57 H46        -1.903601E-02   7.357142E-03   2.660070E-03
   58 H47         1.283094E-03   5.231463E-03  -1.881388E-02
   59 H48         3.910764E-03   1.719291E-03   1.074235E-03
   60 H49         8.342948E-05   5.006803E-04  -1.081913E-03
   61 H50         1.147228E-03  -2.874015E-03   2.425407E-04
   62 H51        -5.004447E-03  -6.020479E-03   1.692147E-02
   63 H52         1.642999E-03   1.149537E-03  -9.844571E-04
   64 N118        8.134300E-03   2.520672E-02   2.096684E-03
   65 H119        2.059129E-03   9.471705E-03   3.120475E-03
   66 H120       -4.284846E-04   9.435031E-04  -1.596707E-04
   67 C121       -2.484095E-03   2.087086E-03  -7.112673E-04
   68 C122       -2.911340E-04  -9.771148E-05  -1.556900E-04
   69 C123        2.265131E-04   1.389680E-04   3.145662E-04
   70 C124        5.419454E-04   6.911323E-04   1.018314E-03
   71 C125        1.435991E-04  -4.046104E-04  -1.159879E-04
   72 C126       -4.559524E-04  -2.982538E-04   1.853669E-04
   73 H127       -1.558364E-04  -6.085315E-04  -5.383341E-04
   74 H128        6.557879E-05  -2.568827E-04  -2.934794E-04
   75 H129        1.987917E-04  -5.064299E-04  -9.964141E-05
   76 H130       -3.027590E-04   1.507188E-04  -1.986334E-04
   77 H131       -2.087948E-04  -3.557645E-04  -2.593261E-04
   78 Br3         1.851306E-03  -1.055737E-02   3.998923E-02
 -------------   -------------  -------------  -------------
     total       -2.408975E-03  -3.577179E-03  -3.493033E-04
   
  end of program der1b
   
 Time(der1b)  user:     184.500  user+sys:     184.500  wallclock:      18.784
  
  start of program geopt
  
 ----------------------------------------------------------------------------
  Geometry optimization step  1
  Total energy:     -1917.01537339960 hartrees
 ----------------------------------------------------------------------------
  
  
  Level shifts adjusted to satisfy step-size constraints
   Step size:    0.3003980
   Cos(theta):   0.7203787
   Final level shift:  -6.4389970E-01
  
  gradient maximum:        4.6103E-01 .  (  2.2500E-03 )
  gradient rms:            5.3795E-02 .  (  1.5000E-03 )
  displacement maximum:    8.0767E-02 .  (  9.0000E-03 )
  displacement rms:        1.6724E-02 .  (  6.0000E-03 )
  
  predicted energy change:  -1.1687E-01
  step size:     0.27071
  trust radius:  0.30000
  
  molecular structure not yet converged...
  
  center of mass moved by:
     x:     2.1537E-02     y:     5.5751E-02     z:     8.9952E-02
  
  new geometry: 
                                   angstroms
  atom               x                 y                 z
  P1           -0.0176869595      0.0105224339     -0.0314849024 
  Pd2           0.0157770983      0.0782401579      2.3348826426 
  C73           4.7765319276      0.1428011010      2.8773097882 
  C74           4.0362243763      1.3114489429      2.9690155563 
  C75           2.6526128109      1.2455275424      2.8006197444 
  C76           2.0092656650      0.0296516484      2.5333470539 
  C77           2.7838730945     -1.1314898636      2.4946815167 
  C78           4.1731037906     -1.0835340902      2.6552670196 
  F79           6.1170996103      0.2019767076      3.0243391486 
  H80           4.5385269121      2.2526675182      3.1745727031 
  H82           2.3254221371     -2.0975499025      2.3484698884 
  H83           4.7812852795     -1.9834574084      2.6191741517 
  H14           2.0717495142      2.1579474489      2.9011248734 
  C3           -0.3116255146     -1.7704833361     -0.4687161457 
  C4            1.6987612468      0.3823817848     -0.8364423352 
  C5           -1.4447103435      0.9791062404     -0.9341805846 
  C6           -0.9780262217     -2.6328865381      1.9430447517 
  C7           -2.2473786361     -2.4864132654      2.5816708501 
  C8           -2.3820836848     -2.8839674882      3.9114188277 
  C9           -1.3120793993     -3.4098335438      4.6328666142 
  C10          -0.0611554561     -3.5114841343      4.0371494062 
  C11           0.0962655239     -3.1255493580      2.7063194778 
  C12          -0.8168144376     -2.7358825800      0.4480556876 
  C13          -1.1069447439     -4.0222839528     -0.0413542246 
  C14          -0.9066566294     -4.3770712959     -1.3680202869 
  C15          -0.3780157708     -3.4407734523     -2.2516271142 
  C16          -0.0870030078     -2.1614946221     -1.8011774809 
  C17           1.6656002623      0.6137667169     -2.3537442536 
  C18           2.1802902688      1.7049880752     -0.2176235834 
  C19           2.7590575515     -0.7045683175     -0.6307298504 
  C20          -2.5685577955     -0.0322711548     -1.2159570555 
  C21          -1.1754232893      1.6630408339     -2.2815787244 
  C22          -2.0053103341      2.1234039598     -0.0815305616 
  C23          -3.4509639634     -1.9423258378      1.8718480828 
  H24          -3.3453232355     -2.7630344793      4.4015810456 
  H25          -1.4563247809     -3.7128124140      5.6668451819 
  H26           0.7923014717     -3.8867953485      4.5964039197 
  H27           1.0369936559     -3.3123875490      2.2057421765 
  H28          -1.4834730111     -4.7648607815      0.6584440882 
  H29          -1.1429605223     -5.3834685320     -1.7049314470 
  H30          -0.1920361559     -3.7029912897     -3.2904345884 
  H31           0.3230534855     -1.4537803578     -2.5101730779 
  H32           0.8567853045      1.2545082996     -2.6749922927 
  H33           2.6104764465      1.0840230690     -2.6578571766 
  H34           1.5898072116     -0.3307012844     -2.9019673482 
  H35           1.4637394038      2.5211501428     -0.3703971467 
  H36           2.3581699185      1.5997070625      0.8584996064 
  H37           3.1337408172      1.9941321375     -0.6799490799 
  H38           2.4663639549     -1.6664082596     -1.0655630941 
  H39           3.6761355556     -0.3833050010     -1.1431802988 
  H40           3.0051071296     -0.8541825106      0.4191980014 
  H41          -2.2328910528     -0.8473731599     -1.8636838387 
  H42          -2.9627323034     -0.4678438359     -0.3007029880 
  H43          -3.3937569269      0.4830097369     -1.7255065988 
  H44          -0.9443866095      0.9525981594     -3.0797000509 
  H45          -2.0948066788      2.1874114811     -2.5767635579 
  H46          -0.3987151525      2.4271810969     -2.2188191432 
  H47          -2.1325570665      1.8645739973      0.9678287065 
  H48          -1.3768830433      3.0168788358     -0.1440990590 
  H49          -2.9936314503      2.3904437608     -0.4791390366 
  H50          -3.7521926143     -2.5816173799      1.0318116638 
  H51          -3.2378532021     -0.9476917253      1.4814103063 
  H52          -4.3003804211     -1.8471603334      2.5549559728 
  N118          0.0504095578     -0.3503689265      4.4765183195 
  H119          0.2338981571     -1.3612039014      4.5062554325 
  H120         -0.9324961304     -0.1887193583      4.6987635502 
  C121          0.9037294231      0.4241126026      5.3153412930 
  C122          2.6138757741      2.0185334266      6.8399545793 
  C123          2.1477450901     -0.0680979454      5.7096719489 
  C124          0.5121896980      1.7153433693      5.6790110185 
  C125          1.3672282339      2.5045935789      6.4416865621 
  C126          2.9986942544      0.7316201251      6.4690453854 
  H127          2.4680519309     -1.0546799780      5.3863573015 
  H128         -0.4458620310      2.0960465307      5.3312349337 
  H129          1.0582784996      3.5097525749      6.7205911317 
  H130          3.9718092072      0.3453279471      6.7631914755 
  H131          3.2813925180      2.6413017646      7.4309670400 
  Br3          -2.3026133557      1.2827227552      3.2130781529 
   
 
  bond lengths (angstroms):
 
 P1      -Pd2     :   2.367573      P1      -C3      :   1.857297
 P1      -C4      :   1.931950      P1      -C5      :   1.946641
 Pd2     -C76     :   2.003933      Pd2     -N118    :   2.184378
 Pd2     -Br3     :   2.756255      C73     -C74     :   1.386435
 C73     -C78     :   1.384676      C73     -F79     :   1.349904
 C74     -C75     :   1.395379      C74     -H80     :   1.086487
 C75     -C76     :   1.401315      C75     -H14     :   1.086284
 C76     -C77     :   1.396339      C77     -C78     :   1.399303
 C77     -H82     :   1.079272      C78     -H83     :   1.086761
 C3      -C12     :   1.423967      C3      -C16     :   1.406698
 C4      -C17     :   1.535202      C4      -C18     :   1.537561
 C4      -C19     :   1.532321      C5      -C20     :   1.537958
 C5      -C21     :   1.534850      C5      -C22     :   1.533200
 C6      -C7      :   1.428479      C6      -C11     :   1.406914
 C6      -C12     :   1.507179      C7      -C8      :   1.394426
 C7      -C23     :   1.499499      C8      -C9      :   1.393532
 C8      -H24     :   1.087527      C9      -C10     :   1.389253
 C9      -H25     :   1.087067      C10     -C11     :   1.394574
 C10     -H26     :   1.087204      C11     -H27     :   1.081876
 C12     -C13     :   1.406601      C13     -C14     :   1.387816
 C13     -H28     :   1.087617      C14     -C15     :   1.391717
 C14     -H29     :   1.087283      C15     -C16     :   1.387136
 C15     -H30     :   1.087413      C16     -H31     :   1.082442
 C17     -H32     :   1.080709      C17     -H33     :   1.098370
 C17     -H34     :   1.094675      C18     -H35     :   1.096770
 C18     -H36     :   1.095795      C18     -H37     :   1.098370
 C19     -H38     :   1.095393      C19     -H39     :   1.098566
 C19     -H40     :   1.088703      C20     -H41     :   1.093898
 C20     -H42     :   1.087560      C20     -H43     :   1.098230
 C21     -H44     :   1.093208      C21     -H45     :   1.098801
 C21     -H46     :   1.091387      C22     -H47     :   1.088274
 C22     -H48     :   1.094136      C22     -H49     :   1.098263
 C23     -H50     :   1.097768      C23     -H51     :   1.089566
 C23     -H52     :   1.094167      N118    -H119    :   1.027784
 N118    -H120    :   1.020601      N118    -C121    :   1.425342
 C121    -C123    :   1.394755      C121    -C124    :   1.397439
 C122    -C125    :   1.396067      C122    -C126    :   1.393487
 C122    -H131    :   1.087527      C123    -C126    :   1.392951
 C123    -H127    :   1.086496      C124    -C125    :   1.391287
 C124    -H128    :   1.088001      C125    -H129    :   1.087926
 C126    -H130    :   1.087518
 
  bond angles:
 
 C3      -P1      -Pd2     : 105.364399  C4      -P1      -Pd2     : 113.476964
 C4      -P1      -C3      : 103.126070  C5      -P1      -Pd2     : 117.362179
 C5      -P1      -C3      : 104.592715  C5      -P1      -C4      : 111.242510
 C76     -Pd2     -P1      :  96.451044  N118    -Pd2     -P1      : 167.044733
 N118    -Pd2     -C76     :  83.244709  Br3     -Pd2     -P1      : 108.606520
 Br3     -Pd2     -C76     : 144.666014  Br3     -Pd2     -N118    :  77.684041
 C78     -C73     -C74     : 121.630326  F79     -C73     -C74     : 119.085643
 F79     -C73     -C78     : 119.279217  C75     -C74     -C73     : 118.793715
 H80     -C74     -C73     : 119.726903  H80     -C74     -C75     : 121.478417
 C76     -C75     -C74     : 121.281214  H14     -C75     -C74     : 118.644164
 H14     -C75     -C76     : 120.062672  C75     -C76     -Pd2     : 117.036697
 C77     -C76     -Pd2     : 124.699392  C77     -C76     -C75     : 118.171819
 C78     -C77     -C76     : 121.270044  H82     -C77     -C76     : 120.826696
 H82     -C77     -C78     : 117.900901  C77     -C78     -C73     : 118.777422
 H83     -C78     -C73     : 119.658635  H83     -C78     -C77     : 121.561181
 C12     -C3      -P1      : 123.690137  C16     -C3      -P1      : 117.662599
 C16     -C3      -C12     : 118.557474  C17     -C4      -P1      : 114.936706
 C18     -C4      -P1      : 106.028939  C18     -C4      -C17     : 105.955538
 C19     -C4      -P1      : 114.979850  C19     -C4      -C17     : 104.746508
 C19     -C4      -C18     : 109.843064  C20     -C5      -P1      : 107.063923
 C21     -C5      -P1      : 120.012380  C21     -C5      -C20     : 105.093929
 C22     -C5      -P1      : 112.427319  C22     -C5      -C20     : 108.996297
 C22     -C5      -C21     : 102.696196  C11     -C6      -C7      : 118.156715
 C12     -C6      -C7      : 123.059223  C12     -C6      -C11     : 115.627890
 C8      -C7      -C6      : 118.877473  C23     -C7      -C6      : 122.603431
 C23     -C7      -C8      : 118.510913  C9      -C8      -C7      : 121.810423
 H24     -C8      -C7      : 118.925122  H24     -C8      -C9      : 119.255701
 C10     -C9      -C8      : 119.801507  H25     -C9      -C8      : 119.717110
 H25     -C9      -C10     : 120.460867  C11     -C10     -C9      : 119.379814
 H26     -C10     -C9      : 120.765236  H26     -C10     -C11     : 119.854940
 C10     -C11     -C6      : 121.899605  H27     -C11     -C6      : 118.256139
 H27     -C11     -C10     : 119.465949  C6      -C12     -C3      : 129.066779
 C13     -C12     -C3      : 117.982334  C13     -C12     -C6      : 112.678426
 C14     -C13     -C12     : 122.455075  H28     -C13     -C12     : 118.160788
 H28     -C13     -C14     : 119.372979  C15     -C14     -C13     : 119.324803
 H29     -C14     -C13     : 120.097500  H29     -C14     -C15     : 120.566314
 C16     -C15     -C14     : 119.601758  H30     -C15     -C14     : 120.614565
 H30     -C15     -C16     : 119.783669  C15     -C16     -C3      : 122.035650
 H31     -C16     -C3      : 119.946076  H31     -C16     -C15     : 118.018139
 H32     -C17     -C4      : 113.535492  H33     -C17     -C4      : 108.638472
 H33     -C17     -H32     : 107.919459  H34     -C17     -C4      : 111.495431
 H34     -C17     -H32     : 108.110387  H34     -C17     -H33     : 106.875463
 H35     -C18     -C4      : 112.299464  H36     -C18     -C4      : 111.311304
 H36     -C18     -H35     : 108.321196  H37     -C18     -C4      : 109.201741
 H37     -C18     -H35     : 108.215967  H37     -C18     -H36     : 107.322147
 H38     -C19     -C4      : 112.623755  H39     -C19     -C4      : 107.913209
 H39     -C19     -H38     : 107.137835  H40     -C19     -C4      : 112.540287
 H40     -C19     -H38     : 108.817030  H40     -C19     -H39     : 107.540551
 H41     -C20     -C5      : 111.978877  H42     -C20     -C5      : 111.964835
 H42     -C20     -H41     : 108.125543  H43     -C20     -C5      : 108.997801
 H43     -C20     -H41     : 107.785070  H43     -C20     -H42     : 107.821030
 H44     -C21     -C5      : 112.855187  H45     -C21     -C5      : 107.558780
 H45     -C21     -H44     : 106.907793  H46     -C21     -C5      : 112.728941
 H46     -C21     -H44     : 110.278812  H46     -C21     -H45     : 106.068428
 H47     -C22     -C5      : 113.670971  H48     -C22     -C5      : 111.571217
 H48     -C22     -H47     : 108.452285  H49     -C22     -C5      : 108.009471
 H49     -C22     -H47     : 107.559556  H49     -C22     -H48     : 107.313820
 H50     -C23     -C7      : 111.788447  H51     -C23     -C7      : 110.112701
 H51     -C23     -H50     : 108.124048  H52     -C23     -C7      : 111.047250
 H52     -C23     -H50     : 108.383234  H52     -C23     -H51     : 107.227298
 H119    -N118    -Pd2     : 102.954513  H120    -N118    -Pd2     :  99.622224
 H120    -N118    -H119    : 108.748138  C121    -N118    -Pd2     : 118.676642
 C121    -N118    -H119    : 114.236032  C121    -N118    -H120    : 111.244637
 C123    -C121    -N118    : 120.570961  C124    -C121    -N118    : 119.175200
 C124    -C121    -C123    : 120.159323  C126    -C122    -C125    : 119.485390
 H131    -C122    -C125    : 120.248983  H131    -C122    -C126    : 120.264957
 C126    -C123    -C121    : 119.761772  H127    -C123    -C121    : 119.951202
 H127    -C123    -C126    : 120.228531  C125    -C124    -C121    : 119.645540
 H128    -C124    -C121    : 119.133803  H128    -C124    -C125    : 121.190816
 C124    -C125    -C122    : 120.508591  H129    -C125    -C122    : 120.140887
 H129    -C125    -C124    : 119.349232  C123    -C126    -C122    : 120.438494
 H130    -C126    -C122    : 120.208661  H130    -C126    -C123    : 119.350653
 
  torsional angles:
 
 P1      -Pd2     -C76     -C75     : 101.131053
 P1      -Pd2     -C76     -C77     : -82.432972
 P1      -Pd2     -N118    -H119    :  10.007954
 P1      -Pd2     -N118    -H120    :-101.924152
 P1      -Pd2     -N118    -C121    : 137.303260
 P1      -C3      -C12     -C6      : -12.084558
 P1      -C3      -C12     -C13     : 174.397615
 P1      -C3      -C16     -C15     :-174.809927
 P1      -C3      -C16     -H31     :   5.053879
 P1      -C4      -C17     -H32     :  44.267440
 P1      -C4      -C17     -H33     : 164.338664
 P1      -C4      -C17     -H34     : -78.139291
 P1      -C4      -C18     -H35     : -57.027762
 P1      -C4      -C18     -H36     :  64.619095
 P1      -C4      -C18     -H37     :-177.067750
 P1      -C4      -C19     -H38     :  61.170648
 P1      -C4      -C19     -H39     : 179.218693
 P1      -C4      -C19     -H40     : -62.285756
 P1      -C5      -C20     -H41     : -60.914322
 P1      -C5      -C20     -H42     :  60.721320
 P1      -C5      -C20     -H43     : 179.921510
 P1      -C5      -C21     -H44     :  65.254608
 P1      -C5      -C21     -H45     :-177.073530
 P1      -C5      -C21     -H46     : -60.502535
 P1      -C5      -C22     -H47     : -41.615092
 P1      -C5      -C22     -H48     :  81.404428
 P1      -C5      -C22     -H49     :-160.883143
 Pd2     -P1      -C3      -C12     :  17.291012
 Pd2     -P1      -C3      -C16     :-166.210691
 Pd2     -P1      -C4      -C17     :-168.798640
 Pd2     -P1      -C4      -C18     : -52.119355
 Pd2     -P1      -C4      -C19     :  69.445667
 Pd2     -P1      -C5      -C20     : -95.229926
 Pd2     -P1      -C5      -C21     : 145.305921
 Pd2     -P1      -C5      -C22     :  24.442773
 Pd2     -C76     -C75     -C74     : 179.330059
 Pd2     -C76     -C75     -H14     :   0.604678
 Pd2     -C76     -C77     -C78     :-179.336824
 Pd2     -C76     -C77     -H82     :   0.092701
 Pd2     -N118    -C121    -C123    : -98.873004
 Pd2     -N118    -C121    -C124    :  77.597863
 C73     -C74     -C75     -C76     :  -0.469545
 C73     -C74     -C75     -H14     : 178.273464
 C73     -C78     -C77     -C76     :   1.034896
 C73     -C78     -C77     -H82     :-178.410791
 C74     -C73     -C78     -C77     :   1.264510
 C74     -C73     -C78     -H83     :-178.140520
 C74     -C75     -C76     -C77     :   2.653709
 C75     -C74     -C73     -C78     :  -1.540007
 C75     -C74     -C73     -F79     : 179.264204
 C75     -C76     -Pd2     -N118    : -91.907521
 C75     -C76     -Pd2     -Br3     : -34.487788
 C75     -C76     -C77     -C78     :  -2.938011
 C75     -C76     -C77     -H82     : 176.491514
 C76     -Pd2     -P1      -C3      :  97.660910
 C76     -Pd2     -P1      -C4      : -14.432146
 C76     -Pd2     -P1      -C5      :-146.464611
 C76     -Pd2     -N118    -H119    : -79.405093
 C76     -Pd2     -N118    -H120    : 168.662801
 C76     -Pd2     -N118    -C121    :  47.890213
 C76     -C75     -C74     -H80     : 179.888997
 C76     -C77     -C78     -H83     :-179.571880
 C77     -C76     -Pd2     -N118    :  84.528454
 C77     -C76     -Pd2     -Br3     : 141.948187
 C77     -C76     -C75     -H14     :-176.071671
 C77     -C78     -C73     -F79     :-179.541219
 C78     -C73     -C74     -H80     : 178.107876
 F79     -C73     -C74     -H80     :  -1.087914
 F79     -C73     -C78     -H83     :   1.053751
 H80     -C74     -C75     -H14     :  -1.367994
 H82     -C77     -C78     -H83     :   0.982433
 C3      -P1      -Pd2     -N118    :   9.753618
 C3      -P1      -Pd2     -Br3     :-107.604842
 C3      -P1      -C4      -C17     :  77.754364
 C3      -P1      -C4      -C18     :-165.566351
 C3      -P1      -C4      -C19     : -44.001329
 C3      -P1      -C5      -C20     :  21.066273
 C3      -P1      -C5      -C21     : -98.397879
 C3      -P1      -C5      -C22     : 140.738973
 C3      -C12     -C6      -C7      : 106.956172
 C3      -C12     -C6      -C11     : -93.537854
 C3      -C12     -C13     -C14     :   0.618099
 C3      -C12     -C13     -H28     : 179.394235
 C3      -C16     -C15     -C14     :  -0.121527
 C3      -C16     -C15     -H30     : 179.844408
 C4      -P1      -Pd2     -N118    :-102.339437
 C4      -P1      -Pd2     -Br3     : 140.302102
 C4      -P1      -C3      -C12     : 136.520220
 C4      -P1      -C3      -C16     : -46.981483
 C4      -P1      -C5      -C20     : 131.735618
 C4      -P1      -C5      -C21     :  12.271466
 C4      -P1      -C5      -C22     :-108.591682
 C5      -P1      -Pd2     -N118    : 125.628097
 C5      -P1      -Pd2     -Br3     :   8.269637
 C5      -P1      -C3      -C12     :-107.047036
 C5      -P1      -C3      -C16     :  69.451261
 C5      -P1      -C4      -C17     : -33.850965
 C5      -P1      -C4      -C18     :  82.828320
 C5      -P1      -C4      -C19     :-155.606658
 C6      -C7      -C8      -C9      :   0.443597
 C6      -C7      -C8      -H24     : 179.358837
 C6      -C7      -C23     -H50     :  62.764916
 C6      -C7      -C23     -H51     : -57.443569
 C6      -C7      -C23     -H52     :-176.054543
 C6      -C11     -C10     -C9      :   0.026872
 C6      -C11     -C10     -H26     :-179.936935
 C6      -C12     -C3      -C16     : 171.446520
 C6      -C12     -C13     -C14     :-173.930745
 C6      -C12     -C13     -H28     :   4.845392
 C7      -C6      -C11     -C10     :   2.267078
 C7      -C6      -C11     -H27     : 175.164849
 C7      -C6      -C12     -C13     : -79.246743
 C7      -C8      -C9      -C10     :   1.895080
 C7      -C8      -C9      -H25     :-179.744729
 C8      -C7      -C6      -C11     :  -2.464545
 C8      -C7      -C6      -C12     : 156.555786
 C8      -C7      -C23     -H50     :-116.181906
 C8      -C7      -C23     -H51     : 123.609609
 C8      -C7      -C23     -H52     :   4.998635
 C8      -C9      -C10     -C11     :  -2.120449
 C8      -C9      -C10     -H26     : 177.843021
 C9      -C8      -C7      -C23     : 179.430395
 C9      -C10     -C11     -H27     :-172.787324
 C10     -C9      -C8      -H24     :-177.016672
 C10     -C11     -C6      -C12     :-158.293217
 C11     -C6      -C7      -C23     : 178.592328
 C11     -C6      -C12     -C13     :  80.259231
 C11     -C10     -C9      -H25     : 179.531744
 C12     -C3      -C16     -C15     :   1.873122
 C12     -C3      -C16     -H31     :-178.263072
 C12     -C6      -C7      -C23     : -22.387341
 C12     -C6      -C11     -H27     :  14.604555
 C12     -C13     -C14     -C15     :   1.135827
 C12     -C13     -C14     -H29     : 179.915620
 C13     -C12     -C3      -C16     :  -2.071308
[...]
    C14      Z     0.00001  -0.00004  -0.00060  -0.00009  -0.00001   0.00002
    C15      X     0.00000  -0.00001  -0.00683  -0.00000  -0.00000   0.00000
    C15      Y    -0.00000   0.00000  -0.00084  -0.00001   0.00000   0.00001
    C15      Z     0.00001  -0.00002  -0.01621   0.00000   0.00000  -0.00001
    C16      X     0.00001  -0.00001   0.00908  -0.00001  -0.00001   0.00000
    C16      Y     0.00003  -0.00010   0.06840  -0.00002  -0.00006   0.00001
    C16      Z    -0.00001   0.00008  -0.04273   0.00001   0.00002  -0.00001
    C17      X     0.00004   0.00006  -0.00102   0.00000   0.00003  -0.00001
    C17      Y    -0.00015  -0.00018  -0.00121  -0.00003   0.00001  -0.00001
    C17      Z     0.00006   0.00008  -0.00022  -0.00002   0.00001  -0.00001
    C18      X    -0.00010   0.00018  -0.00000   0.00004  -0.00001   0.00001
    C18      Y    -0.00008  -0.00011   0.00001  -0.00000  -0.00000  -0.00000
    C18      Z    -0.00142   0.00067  -0.00008  -0.00001  -0.00000   0.00000
    C19      X    -0.00021  -0.00064   0.00002   0.00005   0.00001  -0.00001
    C19      Y    -0.00027  -0.00071  -0.00004   0.00003   0.00002  -0.00002
    C19      Z    -0.00110  -0.00365  -0.00021   0.00011  -0.00001   0.00001
    C20      X     0.00001  -0.00003  -0.00048   0.00000  -0.00001  -0.00001
    C20      Y     0.00002  -0.00006  -0.00111   0.00001  -0.00001  -0.00002
    C20      Z    -0.00011   0.00012  -0.00147  -0.00000   0.00008   0.00002
    C21      X    -0.00008   0.00003  -0.00039  -0.00001  -0.00001   0.00001
    C21      Y    -0.00002  -0.00004  -0.00040   0.00001   0.00002  -0.00001
    C21      Z    -0.00002  -0.00003  -0.00076   0.00001   0.00001  -0.00001
    C22      X    -0.00084   0.00002  -0.00000  -0.00000   0.00002   0.00000
    C22      Y    -0.00015   0.00002   0.00006  -0.00001  -0.00003   0.00001
    C22      Z     0.00041  -0.00003  -0.00012   0.00002   0.00003  -0.00002
    C23      X     0.00000   0.00003  -0.00002  -0.00004   0.00003   0.00003
    C23      Y     0.00003  -0.00004  -0.00004   0.00005  -0.00006  -0.00003
    C23      Z     0.00000  -0.00005   0.00003  -0.00012  -0.00006  -0.00005
    H24      X     0.00014   0.00097   0.00046   0.00830  -0.00109  -0.00176
    H24      Y     0.00002   0.00006   0.00007   0.00094  -0.00062  -0.00056
    H24      Z    -0.00012  -0.00076  -0.00048  -0.00733   0.00106   0.00129
    H25      X    -0.00019  -0.00133  -0.00010  -0.00168  -0.00014   0.00009
    H25      Y     0.00029   0.00194   0.00015   0.00352  -0.00007   0.00099
    H25      Z    -0.00100  -0.00682  -0.00049  -0.01288  -0.00037  -0.00073
    H26      X    -0.00265  -0.01378  -0.00083  -0.10661   0.00017  -0.00092
    H26      Y     0.00033   0.00006   0.00018   0.02373  -0.00035   0.00092
    H26      Z    -0.00059  -0.00227  -0.00026  -0.03205  -0.00001   0.00002
    H27      X    -0.00049  -0.01159   0.00019  -0.69020  -0.00046   0.00051
    H27      Y    -0.00008  -0.00151   0.00004  -0.06443   0.00005  -0.00003
    H27      Z     0.00037   0.00918  -0.00012   0.64479   0.00045  -0.00061
    H28      X    -0.00000   0.00002   0.00200   0.00044  -0.00006   0.00010
    H28      Y    -0.00009   0.00014   0.01812   0.00255  -0.00036   0.00025
    H28      Z     0.00007  -0.00011  -0.01160  -0.00178   0.00009  -0.00000
    H29      X    -0.00013   0.00037   0.01538   0.00066   0.00004  -0.00006
    H29      Y    -0.00024   0.00067   0.02927   0.00109   0.00003  -0.00007
    H29      Z    -0.00012   0.00035   0.01333   0.00064   0.00003  -0.00008
    H30      X    -0.00004   0.00012   0.06252   0.00002  -0.00005   0.00002
    H30      Y     0.00001  -0.00002  -0.01068  -0.00002  -0.00005   0.00003
    H30      Z    -0.00010   0.00032   0.16497   0.00004  -0.00007  -0.00003
    H31      X    -0.00004   0.00017  -0.10273   0.00004   0.00009  -0.00002
    H31      Y    -0.00029   0.00130  -0.78741   0.00004   0.00017   0.00009
    H31      Z     0.00018  -0.00083   0.49476   0.00007  -0.00005  -0.00015
    H32      X    -0.00077  -0.00124   0.00127   0.00008  -0.00003   0.00001
    H32      Y     0.00130   0.00210  -0.00199  -0.00010   0.00007  -0.00000
    H32      Z    -0.00082  -0.00151   0.00066   0.00020  -0.00004  -0.00003
    H33      X    -0.00014  -0.00061   0.00603   0.00000   0.00001  -0.00003
    H33      Y    -0.00003  -0.00003   0.00003   0.00001  -0.00002   0.00002
    H33      Z     0.00007   0.00051  -0.00150  -0.00007  -0.00011   0.00008
    H34      X     0.00049   0.00061   0.00848   0.00013  -0.00009   0.00005
    H34      Y     0.00074   0.00072   0.01631   0.00022  -0.00018   0.00011
    H34      Z     0.00025   0.00028   0.00371   0.00010  -0.00006   0.00004
    H35      X     0.00066  -0.00118   0.00007   0.00001  -0.00001  -0.00001
    H35      Y    -0.00142   0.00262  -0.00010  -0.00047   0.00001   0.00010
    H35      Z     0.00014  -0.00097  -0.00000   0.00010  -0.00002  -0.00004
    H36      X     0.00322  -0.00121   0.00037   0.00000  -0.00001   0.00002
    H36      Y     0.00159  -0.00079   0.00035   0.00003   0.00002  -0.00001
    H36      Z     0.01568  -0.00729   0.00143   0.00026   0.00016  -0.00008
    H37      X    -0.00253   0.00010  -0.00067  -0.00019   0.00009  -0.00007
    H37      Y     0.00055  -0.00012  -0.00006   0.00009  -0.00002   0.00002
    H37      Z     0.00124   0.00010   0.00022   0.00007  -0.00007   0.00005
    H38      X     0.00170   0.00444   0.00040   0.00370  -0.00018   0.00018
    H38      Y     0.00259   0.00661   0.00046   0.00798  -0.00029   0.00027
    H38      Z     0.00037   0.00060  -0.00004  -0.00307  -0.00015   0.00016
    H39      X    -0.00139  -0.00488  -0.00089   0.00196   0.00000   0.00001
    H39      Y     0.00005   0.00024   0.00001  -0.00036  -0.00003   0.00006
    H39      Z     0.00050   0.00175   0.00039  -0.00128  -0.00000  -0.00002
    H40      X     0.00222   0.00775   0.00050  -0.00033   0.00008  -0.00008
    H40      Y     0.00085   0.00268   0.00013   0.00236   0.00011  -0.00013
    H40      Z     0.01273   0.04296   0.00233  -0.00733   0.00028  -0.00025
    H41      X     0.00021  -0.00003   0.00710  -0.00004  -0.00009   0.00007
    H41      Y     0.00037  -0.00009   0.01239  -0.00005  -0.00006   0.00009
    H41      Z     0.00041  -0.00006   0.01649  -0.00009   0.00021   0.00032
    H42      X    -0.00031   0.00042  -0.00080  -0.00002   0.00015   0.00003
    H42      Y    -0.00047   0.00062  -0.00120  -0.00001   0.00037   0.00013
    H42      Z     0.00107  -0.00144   0.00293   0.00009  -0.00138  -0.00066
    H43      X     0.00002  -0.00014  -0.00140   0.00003  -0.00012  -0.00002
    H43      Y    -0.00004   0.00021   0.00370  -0.00006  -0.00006   0.00000
    H43      Z    -0.00001  -0.00001   0.00000   0.00001   0.00007   0.00003
    H44      X     0.00012   0.00015   0.00555  -0.00003  -0.00000   0.00005
    H44      Y     0.00023   0.00028   0.01679  -0.00006  -0.00010   0.00009
    H44      Z     0.00024   0.00033   0.01186  -0.00008  -0.00013   0.00014
    H45      X     0.00003  -0.00012  -0.00060   0.00005  -0.00005  -0.00003
    H45      Y    -0.00008   0.00016  -0.00038  -0.00005   0.00023   0.00005
    H45      Z    -0.00002   0.00001  -0.00056  -0.00002  -0.00017   0.00000
    H46      X     0.00078  -0.00026   0.00218   0.00005  -0.00025  -0.00011
    H46      Y     0.00016  -0.00011  -0.00049   0.00004  -0.00011  -0.00004
    H46      Z    -0.00016   0.00002  -0.00120  -0.00001   0.00010   0.00003
    H47      X     0.00166  -0.00018  -0.00046   0.00008   0.00047   0.00000
    H47      Y     0.00120  -0.00002  -0.00037   0.00004   0.00020   0.00007
    H47      Z    -0.00426   0.00029   0.00080  -0.00016  -0.00035   0.00012
    H48      X     0.00945  -0.00033   0.00098  -0.00003  -0.00055  -0.00009
    H48      Y     0.00152  -0.00003   0.00029  -0.00000  -0.00016  -0.00001
    H48      Z     0.00108  -0.00015   0.00009   0.00003   0.00013   0.00001
    H49      X     0.00030   0.00010   0.00023  -0.00003  -0.00015   0.00004
    H49      Y    -0.00062  -0.00015  -0.00049   0.00005   0.00032  -0.00004
    H49      Z     0.00025   0.00009   0.00023  -0.00003  -0.00014   0.00008
    H50      X    -0.00007   0.00010   0.00017   0.00041   0.00017  -0.00023
    H50      Y    -0.00020   0.00036   0.00035   0.00030   0.00068   0.00023
    H50      Z    -0.00009   0.00014   0.00017   0.00012   0.00029   0.00011
    H51      X     0.00002  -0.00005  -0.00012   0.00022  -0.00002  -0.00023
    H51      Y    -0.00013   0.00006   0.00027  -0.00084   0.00006   0.00003
    H51      Z     0.00018  -0.00016  -0.00020   0.00081  -0.00024  -0.00017
    H52      X     0.00006  -0.00042   0.00021   0.00038  -0.00060  -0.00061
    H52      Y     0.00001   0.00015  -0.00004  -0.00001  -0.00005   0.00004
    H52      Z    -0.00008   0.00062  -0.00029   0.00009   0.00058   0.00049
    N118     X     0.00001   0.00007  -0.00002  -0.00004  -0.04268  -0.06239
    N118     Y    -0.00002  -0.00019  -0.00000   0.00004  -0.03942   0.04441
    N118     Z     0.00005  -0.00003  -0.00001  -0.00002   0.01077   0.00009
    H119     X     0.00019  -0.00032   0.00003   0.00084  -0.24855   0.46384
    H119     Y     0.00071   0.00245   0.00005  -0.00055   0.36598  -0.71276
    H119     Z     0.00004  -0.00119   0.00001   0.00033  -0.03416   0.08618
    H120     X     0.00041   0.00001   0.00026  -0.00025   0.83344   0.40427
    H120     Y     0.00039   0.00026   0.00011   0.00009   0.17685   0.10095
    H120     Z    -0.00002   0.00024  -0.00008   0.00010  -0.14454  -0.08051
    C121     X    -0.00025  -0.00002   0.00001   0.00001   0.00053  -0.00031
    C121     Y    -0.00019   0.00002   0.00001   0.00000   0.00006  -0.00009
    C121     Z    -0.00021   0.00001   0.00001   0.00001   0.00093  -0.00047
    C122     X     0.00128  -0.00000   0.00001  -0.00000   0.00013   0.00007
    C122     Y     0.00320  -0.00000   0.00001   0.00000   0.00005  -0.00006
    C122     Z     0.00218   0.00000   0.00001   0.00000   0.00008   0.00001
    C123     X     0.00363   0.00001  -0.00001   0.00001   0.00010   0.00032
    C123     Y    -0.00516   0.00001   0.00000  -0.00002   0.00057  -0.00042
    C123     Z    -0.00114  -0.00000  -0.00000  -0.00000   0.00048   0.00001
    C124     X    -0.00129  -0.00011   0.00000  -0.00001  -0.00003   0.00016
    C124     Y     0.00003   0.00000  -0.00000  -0.00001   0.00053  -0.00032
    C124     Z    -0.00064  -0.00005  -0.00000  -0.00001   0.00017  -0.00018
    C125     X    -0.00160  -0.00002  -0.00001   0.00000  -0.00002  -0.00010
    C125     Y     0.00206   0.00003   0.00002   0.00000  -0.00020  -0.00003
    C125     Z     0.00029   0.00001   0.00000   0.00000  -0.00021  -0.00007
    C126     X     0.00493  -0.00001   0.00002   0.00001  -0.00011  -0.00000
    C126     Y    -0.00018   0.00001  -0.00000   0.00000   0.00002   0.00009
    C126     Z     0.00211   0.00000   0.00001   0.00001  -0.00012   0.00012
    H127     X    -0.04189   0.00009   0.00004  -0.00011   0.00029  -0.00029
    H127     Y     0.05694  -0.00055  -0.00005   0.00019  -0.00215   0.00288
    H127     Z     0.01221  -0.00002  -0.00000   0.00001  -0.00034   0.00077
    H128     X     0.01383   0.00119  -0.00002   0.00010   0.00133  -0.00003
    H128     Y    -0.00068  -0.00001   0.00001   0.00001  -0.00080  -0.00066
    H128     Z     0.00659   0.00062   0.00000   0.00005   0.00112  -0.00006
    H129     X     0.01642   0.00022   0.00016   0.00001  -0.00084   0.00023
    H129     Y    -0.02253  -0.00030  -0.00022  -0.00002   0.00115  -0.00007
    H129     Z    -0.00381  -0.00005  -0.00004  -0.00000   0.00037   0.00000
    H130     X    -0.05371  -0.00001  -0.00021  -0.00014   0.00151  -0.00009
    H130     Y     0.00241  -0.00003   0.00001   0.00000   0.00005  -0.00001
    H130     Z    -0.02279  -0.00000  -0.00009  -0.00007   0.00082  -0.00012
    H131     X    -0.01479  -0.00002  -0.00008  -0.00000  -0.00016   0.00008
    H131     Y    -0.03365   0.00003  -0.00018  -0.00000  -0.00022   0.00008
    H131     Z    -0.02378   0.00001  -0.00013  -0.00001   0.00019  -0.00003
    Br3      X    -0.00001   0.00001   0.00000  -0.00000  -0.00003  -0.00001
    Br3      Y     0.00000  -0.00000  -0.00000  -0.00000  -0.00003  -0.00001
    Br3      Z     0.00000  -0.00001   0.00000   0.00000   0.00003   0.00002
  
  Number of imaginary frequencies:   1
   
  Writing vibrational animation data to L_Ar_Br_N_N_trans_PL154.vib
  Writing IR vibrational spectrum data to L_Ar_Br_N_N_trans_PL154_vib.spm
  rotational symmetry number:  1

  rotational temperatures (K):      0.005612      0.003665      0.003223
   
  The Quasi-Harmonic approximation will be applied to compute
  vibrational constributions to thermodynamic properties.
  Frequencies will be adjusted to a minimum value of  100.00 cm^-1.

    1 vibrational frequencies below    0.0 cm-1 not included in zero-point
  energy or thermochemical analysis.  Set freqcut to change the frequency
  cutoff value.

  vibrational temperatures:
       mode:      2        3        4        5        6        7
  temp. (K):   143.88   143.88   143.88   143.88   143.88   143.88
   
       mode:      8        9       10       11       12       13
  temp. (K):   143.88   143.88   143.88   143.88   149.11   159.48
   
       mode:     14       15       16       17       18       19
  temp. (K):   164.04   165.95   179.51   198.31   207.69   211.31
   
       mode:     20       21       22       23       24       25
  temp. (K):   222.04   230.41   232.80   258.90   264.98   275.16
   
       mode:     26       27       28       29       30       31
  temp. (K):   289.89   297.18   312.44   315.36   328.16   338.60
   
       mode:     32       33       34       35       36       37
  temp. (K):   346.65   364.34   380.39   388.22   397.16   415.06
   
       mode:     38       39       40       41       42       43
  temp. (K):   439.16   450.95   455.29   480.02   492.26   496.69
   
       mode:     44       45       46       47       48       49
  temp. (K):   512.47   528.25   534.89   568.11   570.58   585.70
   
       mode:     50       51       52       53       54       55
  temp. (K):   591.03   599.29   600.52   604.00   615.21   628.56
   
       mode:     56       57       58       59       60       61
  temp. (K):   634.63   675.49   710.89   738.03   751.37   763.82
   
       mode:     62       63       64       65       66       67
  temp. (K):   773.37   782.03   790.08   825.75   835.50   837.41
   
       mode:     68       69       70       71       72       73
  temp. (K):   848.36   868.75   904.75   913.42   915.42   970.12
   
       mode:     74       75       76       77       78       79
  temp. (K):   987.39  1025.71  1028.83  1073.99  1087.84  1106.39
   
       mode:     80       81       82       83       84       85
  temp. (K):  1117.61  1130.42  1148.60  1187.17  1193.17  1195.54
   
       mode:     86       87       88       89       90       91
  temp. (K):  1196.43  1198.25  1200.65  1210.60  1227.33  1282.43
   
       mode:     92       93       94       95       96       97
  temp. (K):  1316.30  1330.98  1364.12  1373.07  1378.95  1382.16
   
       mode:     98       99      100      101      102      103
  temp. (K):  1386.29  1390.87  1398.02  1420.07  1423.77  1424.13
   
       mode:    104      105      106      107      108      109
  temp. (K):  1434.64  1449.92  1454.75  1467.94  1469.80  1473.29
   
       mode:    110      111      112      113      114      115
  temp. (K):  1474.75  1480.32  1504.64  1519.03  1521.04  1525.09
   
       mode:    116      117      118      119      120      121
  temp. (K):  1534.13  1540.27  1540.46  1549.04  1552.55  1563.84
   
       mode:    122      123      124      125      126      127
  temp. (K):  1599.84  1602.58  1620.15  1665.08  1676.26  1693.48
   
       mode:    128      129      130      131      132      133
  temp. (K):  1721.23  1731.31  1735.16  1735.77  1744.32  1747.48
   
       mode:    134      135      136      137      138      139
  temp. (K):  1761.31  1774.00  1777.70  1780.16  1794.06  1800.98
   
       mode:    140      141      142      143      144      145
  temp. (K):  1839.29  1841.84  1850.10  1876.99  1897.30  1909.35
   
       mode:    146      147      148      149      150      151
  temp. (K):  1931.21  1938.42  1954.71  1988.26  2010.65  2045.25
   
       mode:    152      153      154      155      156      157
  temp. (K):  2052.67  2054.12  2054.94  2064.41  2073.78  2097.71
   
       mode:    158      159      160      161      162      163
  temp. (K):  2111.58  2115.39  2139.46  2159.91  2165.07  2166.51
   
       mode:    164      165      166      167      168      169
  temp. (K):  2171.46  2174.77  2178.77  2182.56  2186.36  2188.86
   
       mode:    170      171      172      173      174      175
  temp. (K):  2190.32  2198.62  2200.19  2203.89  2213.24  2217.23
   
       mode:    176      177      178      179      180      181
  temp. (K):  2219.49  2231.79  2233.50  2243.42  2339.06  2351.11
   
       mode:    182      183      184      185      186      187
  temp. (K):  2361.86  2376.22  2387.62  2397.19  2401.37  2406.41
   
       mode:    188      189      190      191      192      193
  temp. (K):  2419.01  4377.72  4384.72  4385.16  4386.85  4390.44
   
       mode:    194      195      196      197      198      199
  temp. (K):  4392.50  4398.73  4484.51  4486.04  4491.75  4504.18
   
       mode:    200      201      202      203      204      205
  temp. (K):  4505.43  4507.70  4510.48  4523.62  4553.40  4566.35
   
       mode:    206      207      208      209      210      211
  temp. (K):  4570.93  4573.51  4586.07  4587.84  4588.17  4589.10
   
       mode:    212      213      214      215      216      217
  temp. (K):  4599.77  4604.34  4604.62  4606.95  4608.37  4609.55
   
       mode:    218      219      220      221      222      223
  temp. (K):  4613.04  4614.04  4622.24  4622.36  4630.89  4631.82
   
       mode:    224      225      226      227      228
  temp. (K):  4639.93  4670.91  4692.24  4982.05  5130.26
   
   
  Thermodynamic properties calculated assuming an ideal gas

  In the table below, the units for temperature
  are kelvins, the units for U, H, and G are
  kcal/mol and the units for Cv and S are cal/(mol K)

  The zero point energy (ZPE):    413.209 kcal/mol
  is not included in U, H, or G in the table below
  
 
  =============================================================================
  Thermodynamic properties for P = 1.00E+00 atm, calculated at   1 temperatures


  T =   298.15 K, P = 1.00E+00 atm
   
                  U         Cv          S          H          G        ln(Q)
              =========  =========  =========  =========  =========  =========
  trans.          0.889      2.981     45.454      1.481    -12.071   20.37349
  rot.            0.889      2.981     37.525      0.889    -10.299   17.38340
  vib.           21.960    145.717    131.950     21.960    -17.381   29.33528
  elec.           0.000      0.000      0.000      0.000      0.000    0.00000
  ----------------------------------------------------------------------------
  total          23.738    151.679    214.930     24.330    -39.751   67.09218
   
   Total internal energy, Utot(SCFE + ZPE + U):   -1916.471405 hartrees
   Total enthalpy, Htot (Utot + nRT), with n=1:   -1916.470460 hartrees
    Total Gibbs free energy, Gtot (Htot - T*S):   -1916.572580 hartrees
   
  end of program freq
   
 Time(freq)  user:       0.764  user+sys:       0.764  wallclock:       0.407
  
  start of program post
  
  Writing input files for PBF
  end of program post
   
 Time(post)  user:       0.283  user+sys:       0.283  wallclock:       0.107

 Total cpu seconds     user:  101120.793   user+sys:  101120.793
  
 Total elapsed time:    12450 seconds

Job L_Ar_Br_N_N_trans_PL154 completed on bp1-compute072 at Tue Dec  2 17:59:55 2025
