Job L_Ar_OtBu_PL154 started on bp1-compute129.data.bp.acrc.priv at Tue Nov 25 06:05:24 2025
jobid: bp1-compute129-0-69254711

  +--------------------------------------------------------------------+
  |  Jaguar version 12.5, release 138                                  |
  |                                                                    |
  |  Copyright Schrodinger, Inc.                                       |
  |  All Rights Reserved.                                              |
  |                                                                    |
  |  The following have contributed to Jaguar (listed alphabetically): |
  |  Ty Balduf, Mike Beachy, Chandler Bennett, Art Bochevarov,         |
  |  Dale Braden, Yixiang Cao, Alan Chien, Chris Cortis,               |
  |  Rich Friesner, Jim Furness, Bill Goddard, Hod Greeley,            |
  |  Tom Hughes, Leif Jacobson, Jean-Marc Langlois, Daniel Levine,     |
  |  Rob Murphy, Dean Philipp, Tom Pollard, Murco Ringnalda,           |
  |  Daniel Mainz, Pablo Videla, Mark Watson, Haoyu Yu.                |
  |                                                                    |
  |  Use of this program should be acknowledged in publications as:    |
  |                                                                    |
  |  Jaguar, version 12.5, Schrodinger, Inc., New York, NY, 2024.      |
  |                                                                    |
  |  A. D. Bochevarov, E. Harder, T. F. Hughes, J. R. Greenwood,       |
  |  D. A. Braden, D. M. Philipp, D. Rinaldo, M. D. Halls,             |
  |  J. Zhang, R. A. Friesner, "Jaguar: A High-Performance Quantum     |
  |  Chemistry Software Program with Strengths in Life and Materials   |
  |  Sciences", Int. J. Quantum Chem., 2013, 113(18), 2110-2142.       |
  +--------------------------------------------------------------------+
  
  start of program pre
  
  Job name: L_Ar_OtBu_PL154
  Executables used: /software/local/apps/schrodinger2024-3/jaguar-v12.5/bin/Linux-x86_64
  Temporary files : /tmp/ar21627/L_Ar_OtBu_PL154#bp1-compute129-0-69254711
  Basis file : using default basis file from /software/local/apps/schrodinger2024-3
  Maestro file (input):  L_Ar_OtBu_PL154.mae
  Maestro file (output): L_Ar_OtBu_PL154.01.mae
  
 Contents of input file: &gen and (if present) &atomic sections only
 ----------------Contents start----------------
&gen
dftname=b3pw91-d3
basis=6-31G*
numd=5
ip11=2
iaccg=3
isolv=2
igeopt=1
solvent=benzene
ifreq=1
&
&atomic
atom basis
Pd2 lacv3p*
&
 -----------------Contents end-----------------
 
  PS calculation requested. Using PS version of 6-31g*
  basis set:               non_standard                    
  net molecular charge:    0
  multiplicity:            1
  
  Using up to  18 threads per process
  
  This run will use ECP on 1 atom
  number of basis functions....          595
  
 Input geometry:
                                   angstroms
  atom               x                 y                 z
  P1            0.0000000000      0.0000000000      0.0000000000 
  Pd2           0.0000000000      0.0000000000      2.3445237584 
  C73           1.4700667054      4.5244000978      2.7436052540 
  C74           0.1203001592      4.2273050686      2.8730874310 
  C75          -0.2901378713      2.8989661543      2.7514252920 
  C76           0.6389358326      1.8850672479      2.4882976392 
  C77           1.9959465828      2.2086144840      2.4159240563 
  C78           2.4192532678      3.5361355580      2.5298064544 
  F79           1.8717229190      5.8104643230      2.8455838519 
  H80          -0.5906163389      5.0252114597      3.0708126847 
  H82           2.7434177325      1.4314752629      2.2856178753 
  H83           3.4705805071      3.8038615252      2.4651972488 
  H14          -1.3429351433      2.6640832868      2.8760092478 
  C3           -0.5298498920     -1.7037817860     -0.4819964896 
  C4            1.7592433014      0.2272633990     -0.7158354725 
  C5           -1.3022171992      1.1260422009     -0.8372580378 
  C6           -0.6663513714     -2.4445558171      1.9941379795 
  C7           -1.7605635011     -2.4850830443      2.9056985655 
  C8           -1.5098843490     -2.8300534063      4.2297393733 
  C9           -0.2208830543     -3.1281803474      4.6795264450 
  C10           0.8581710607     -3.0444801604      3.8104460328 
  C11           0.6364275016     -2.6965121256      2.4777687577 
  C12          -0.8928673247     -2.6181892234      0.5230812754 
  C13          -1.4093459036     -3.8732807739      0.1572122306 
  C14          -1.5562231279     -4.2426211486     -1.1731238026 
  C15          -1.1594046064     -3.3548416640     -2.1721361511 
  C16          -0.6537180624     -2.1076457537     -1.8253404856 
  C17           2.5315764937      1.2803197334      0.0922405963 
  C18           2.4437930806     -1.1423546359     -0.5633683634 
  C19           1.8221712544      0.6207877882     -2.1978277548 
  C20          -2.6086795742      0.7963133915     -0.0950153225 
  C21          -1.5219700018      0.8839048666     -2.3380863789 
  C22          -0.9736328950      2.6192360911     -0.6584591380 
  C23          -3.1578327164     -2.1709168844      2.4420795047 
  H24          -2.3381898626     -2.8518483157      4.9346701361 
  H25          -0.0640737510     -3.3981229041      5.7206697322 
  H26           1.8689027367     -3.2369090853      4.1595148906 
  H27           1.4579429385     -2.7253970101      1.7680209886 
  H28          -1.6755966249     -4.5722229490      0.9469881371 
  H29          -1.9571825799     -5.2211135503     -1.4269671155 
  H30          -1.2434882650     -3.6285225858     -3.2213935525 
  H31          -0.3548221671     -1.4415237156     -2.6230207086 
  H32           2.4041054808      1.1705445428      1.1708679834 
  H33           3.6018658286      1.1808349264     -0.1320845240 
  H34           2.2343987423      2.2951093691     -0.1884096603 
  H35           2.4592489477     -1.4868363219      0.4764421756 
  H36           1.9425290361     -1.9068838768     -1.1668321025 
  H37           3.4805359943     -1.0704569031     -0.9183255068 
  H38           1.3368879340      1.5806794676     -2.4023304455 
  H39           2.8787853866      0.7292178727     -2.4783864343 
  H40           1.3866736128     -0.1424150615     -2.8491765326 
  H41          -2.8758890334     -0.2615272499     -0.1992960746 
  H42          -2.5379086817      1.0350208966      0.9704304059 
  H43          -3.4266755446      1.3912488199     -0.5224943795 
  H44          -1.9793762914     -0.0866705923     -2.5443635876 
  H45          -2.2148002341      1.6518424948     -2.7081475092 
  H46          -0.5983121470      0.9782813390     -2.9196528325 
  H47          -0.6118243511      2.8682884364      0.3374232894 
  H48          -0.2413133251      2.9628650304     -1.3926429988 
  H49          -1.8946719551      3.1927295243     -0.8274778034 
  H50          -3.5181826687     -2.8957218907      1.7014455590 
  H51          -3.1885670579     -1.1841898473      1.9669752498 
  H52          -3.8591502829     -2.1641341696      3.2828723613 
  O3           -0.0327999077     -0.2657265772      4.3137415049 
  C105          0.4644875224      0.5808227558      5.3128822524 
  C106         -0.3708122586      0.2785419354      6.5684105024 
  C107          1.9401843581      0.2992697586      5.6555837729 
  C108          0.2770298389      2.0611501392      4.9502521490 
  H109         -0.0144728216      0.8393540763      7.4426340297 
  H110         -1.4123529958      0.5444312858      6.3833384778 
  H111         -0.3251466514     -0.7931591494      6.7940886678 
  H112          0.5786884214      2.7280447180      5.7699223577 
  H113          0.8722007921      2.3124932762      4.0658131902 
  H114         -0.7778155424      2.2444520796      4.7146055672 
  H115          2.2374995148      0.8191055790      6.5769206349 
  H116          2.0748346913     -0.7780324622      5.8041215146 
  H117          2.6127958773      0.6140497774      4.8564082705 
   
  principal moments of inertia:
        amu*angstrom^2:              3509.29560              4680.40539              6562.29780
                g*cm^2:          5.82732171E-37          7.77199503E-37          1.08969505E-36
   
  rotational constants:
               cm^(-1):      0.00480371      0.00360175      0.00256886
                   GHz:      0.14401152      0.10797761      0.07701251
   
  Molecular weight:     586.20 amu
   
  Stoichiometry: PdC31PH42OF
  Molecular Point Group: C1      
  Point Group used: C1
  
 
Number of optimization coordinates:   249
Number of independent coordinates:    249
Number of non-redundant coordinates:  225
Number of frozen coordinates:           0
Number of harmonic constraints:         0
 
Number of geometric degrees of freedom:   225
Maximum geometric degrees of freedom:     225
 " " " " " excluding dummy atoms:         225
 
 
  bond lengths (angstroms):
 
 P1      -Pd2     :   2.344524      P1      -C3      :   1.848225
 P1      -C4      :   1.912853      P1      -C5      :   1.914352
 Pd2     -C76     :   1.995592      Pd2     -O3      :   1.987336
 C73     -C74     :   1.388129      C73     -C78     :   1.386842
 C73     -F79     :   1.351180      C74     -C75     :   1.395616
 C74     -H80     :   1.086808      C75     -C76     :   1.400145
 C75     -H14     :   1.085851      C76     -C77     :   1.396925
 C77     -C78     :   1.398024      C77     -H82     :   1.086111
 C78     -H83     :   1.086803      C3      -C12     :   1.406451
 C3      -C16     :   1.408198      C4      -C17     :   1.535713
 C4      -C18     :   1.538736      C4      -C19     :   1.534641
 C5      -C20     :   1.538340      C5      -C21     :   1.536036
 C5      -C22     :   1.539339      C6      -C7      :   1.424740
 C6      -C11     :   1.412308      C6      -C12     :   1.498488
 C7      -C8      :   1.391017      C7      -C23     :   1.505325
 C8      -C9      :   1.397395      C8      -H24     :   1.087884
 C9      -C10     :   1.388043      C9      -H25     :   1.086940
 C10     -C11     :   1.395092      C10     -H26     :   1.086488
 C11     -H27     :   1.086031      C12     -C13     :   1.405655
 C13     -C14     :   1.388445      C13     -H28     :   1.087730
 C14     -C15     :   1.394146      C14     -H29     :   1.087498
 C15     -C16     :   1.389778      C15     -H30     :   1.087618
 C16     -H31     :   1.081365      C17     -H32     :   1.091667
 C17     -H33     :   1.098061      C17     -H34     :   1.094019
 C18     -H35     :   1.095496      C18     -H36     :   1.095417
 C18     -H37     :   1.098180      C19     -H38     :   1.094858
 C19     -H39     :   1.098592      C19     -H40     :   1.093797
 C20     -H41     :   1.096039      C20     -H42     :   1.094150
 C20     -H43     :   1.098091      C21     -H44     :   1.092606
 C21     -H45     :   1.098493      C21     -H46     :   1.095568
 C22     -H47     :   1.088446      C22     -H48     :   1.092428
 C22     -H49     :   1.098078      C23     -H50     :   1.097148
 C23     -H51     :   1.095582      C23     -H52     :   1.094909
 O3      -C105    :   1.400794      C105    -C106    :   1.538002
 C105    -C107    :   1.540908      C105    -C108    :   1.535581
 C106    -H109    :   1.098069      C106    -H110    :   1.090759
 C106    -H111    :   1.096157      C107    -H115    :   1.098857
 C107    -H116    :   1.095798      C107    -H117    :   1.090951
 C108    -H112    :   1.098911      C108    -H113    :   1.095278
 C108    -H114    :   1.096279
 
  bond angles:
 
 C3      -P1      -Pd2     : 105.116879  C4      -P1      -Pd2     : 111.976360
 C4      -P1      -C3      : 105.997112  C5      -P1      -Pd2     : 115.935469
 C5      -P1      -C3      : 103.483848  C5      -P1      -C4      : 113.082669
 C76     -Pd2     -P1      :  94.131495  O3      -Pd2     -P1      : 172.257300
 O3      -Pd2     -C76     :  93.451285  C78     -C73     -C74     : 121.828164
 F79     -C73     -C74     : 119.059610  F79     -C73     -C78     : 119.106877
 C75     -C74     -C73     : 118.786040  H80     -C74     -C73     : 119.728669
 H80     -C74     -C75     : 121.484486  C76     -C75     -C74     : 120.694982
 H14     -C75     -C74     : 118.752119  H14     -C75     -C76     : 120.549209
 C75     -C76     -Pd2     : 119.020278  C77     -C76     -Pd2     : 121.740892
 C77     -C76     -C75     : 119.118121  C78     -C77     -C76     : 120.653911
 H82     -C77     -C76     : 120.599563  H82     -C77     -C78     : 118.739707
 C77     -C78     -C73     : 118.815189  H83     -C78     -C73     : 119.716090
 H83     -C78     -C77     : 121.465334  C12     -C3      -P1      : 119.141717
 C16     -C3      -P1      : 122.573192  C16     -C3      -C12     : 118.199564
 C17     -C4      -P1      : 110.309113  C18     -C4      -P1      : 105.445492
 C18     -C4      -C17     : 109.540519  C19     -C4      -P1      : 115.439866
 C19     -C4      -C17     : 108.160519  C19     -C4      -C18     : 107.799614
 C20     -C5      -P1      : 103.922197  C21     -C5      -P1      : 115.589968
 C21     -C5      -C20     : 108.430129  C22     -C5      -P1      : 111.998033
 C22     -C5      -C20     : 109.460384  C22     -C5      -C21     : 107.273978
 C11     -C6      -C7      : 118.965046  C12     -C6      -C7      : 120.577640
 C12     -C6      -C11     : 117.061044  C8      -C7      -C6      : 118.532126
 C23     -C7      -C6      : 120.656497  C23     -C7      -C8      : 120.809915
 C9      -C8      -C7      : 121.703300  H24     -C8      -C7      : 118.982294
 H24     -C8      -C9      : 119.306885  C10     -C9      -C8      : 120.178395
 H25     -C9      -C8      : 119.628511  H25     -C9      -C10     : 120.169683
 C11     -C10     -C9      : 119.313298  H26     -C10     -C9      : 120.753608
 H26     -C10     -C11     : 119.930329  C10     -C11     -C6      : 121.213983
 H27     -C11     -C6      : 118.602223  H27     -C11     -C10     : 119.829472
 C6      -C12     -C3      : 125.957636  C13     -C12     -C3      : 119.297593
 C13     -C12     -C6      : 114.489202  C14     -C13     -C12     : 121.720509
 H28     -C13     -C12     : 118.339460  H28     -C13     -C14     : 119.925002
 C15     -C14     -C13     : 119.149091  H29     -C14     -C13     : 120.132406
 H29     -C14     -C15     : 120.706635  C16     -C15     -C14     : 119.750047
 H30     -C15     -C14     : 120.601246  H30     -C15     -C16     : 119.648619
 C15     -C16     -C3      : 121.831192  H31     -C16     -C3      : 120.179341
 H31     -C16     -C15     : 117.989254  H32     -C17     -C4      : 113.093147
 H33     -C17     -C4      : 108.697611  H33     -C17     -H32     : 107.851764
 H34     -C17     -C4      : 111.374170  H34     -C17     -H32     : 108.362252
 H34     -C17     -H33     : 107.241519  H35     -C18     -C4      : 112.347178
 H36     -C18     -C4      : 111.288452  H36     -C18     -H35     : 108.052256
 H37     -C18     -C4      : 109.249860  H37     -C18     -H35     : 108.304136
 H37     -C18     -H36     : 107.435457  H38     -C19     -C4      : 112.769134
 H39     -C19     -C4      : 108.141597  H39     -C19     -H38     : 106.981867
 H40     -C19     -C4      : 112.322148  H40     -C19     -H38     : 108.907169
 H40     -C19     -H39     : 107.441342  H41     -C20     -C5      : 111.593065
 H42     -C20     -C5      : 111.601215  H42     -C20     -H41     : 108.601239
 H43     -C20     -C5      : 109.188746  H43     -C20     -H41     : 107.713668
 H43     -C20     -H42     : 108.002701  H44     -C21     -C5      : 112.605900
 H45     -C21     -C5      : 108.010392  H45     -C21     -H44     : 107.059461
 H46     -C21     -C5      : 112.610995  H46     -C21     -H44     : 109.223370
 H46     -C21     -H45     : 107.019209  H47     -C22     -C5      : 113.527291
 H48     -C22     -C5      : 111.725293  H48     -C22     -H47     : 108.669241
 H49     -C22     -C5      : 108.040699  H49     -C22     -H47     : 107.466305
 H49     -C22     -H48     : 107.130636  H50     -C23     -C7      : 112.018031
 H51     -C23     -C7      : 110.338499  H51     -C23     -H50     : 107.039687
 H52     -C23     -C7      : 111.059327  H52     -C23     -H50     : 108.185718
 H52     -C23     -H51     : 108.026725  C105    -O3      -Pd2     : 128.323438
 C106    -C105    -O3      : 105.705021  C107    -C105    -O3      : 112.841871
 C107    -C105    -C106    : 107.617180  C108    -C105    -O3      : 111.765779
 C108    -C105    -C106    : 108.418066  C108    -C105    -C107    : 110.216880
 H109    -C106    -C105    : 111.919221  H110    -C106    -C105    : 109.401162
 H110    -C106    -H109    : 108.690658  H111    -C106    -C105    : 109.730673
 H111    -C106    -H109    : 108.777906  H111    -C106    -H110    : 108.242487
 H115    -C107    -C105    : 111.048107  H116    -C107    -C105    : 109.114701
 H116    -C107    -H115    : 108.553124  H117    -C107    -C105    : 112.012146
 H117    -C107    -H115    : 108.113053  H117    -C107    -H116    : 107.890948
 H112    -C108    -C105    : 112.047636  H113    -C108    -C105    : 110.217128
 H113    -C108    -H112    : 108.293231  H114    -C108    -C105    : 109.233007
 H114    -C108    -H112    : 108.843958  H114    -C108    -H113    : 108.114458
 
  torsional angles:
 
 P1      -Pd2     -C76     -C75     : 100.101839
 P1      -Pd2     -C76     -C77     : -83.928870
 P1      -Pd2     -O3      -C105    : 159.222931
 P1      -C3      -C12     -C6      : -11.775548
 P1      -C3      -C12     -C13     : 174.368736
 P1      -C3      -C16     -C15     :-174.533115
 P1      -C3      -C16     -H31     :   5.295278
 P1      -C4      -C17     -H32     :  43.552166
 P1      -C4      -C17     -H33     : 163.296794
 P1      -C4      -C17     -H34     : -78.767419
 P1      -C4      -C18     -H35     : -57.359164
 P1      -C4      -C18     -H36     :  63.957422
 P1      -C4      -C18     -H37     :-177.573173
 P1      -C4      -C19     -H38     :  61.302592
 P1      -C4      -C19     -H39     : 179.391947
 P1      -C4      -C19     -H40     : -62.216965
 P1      -C5      -C20     -H41     : -60.179300
 P1      -C5      -C20     -H42     :  61.534829
 P1      -C5      -C20     -H43     :-179.140365
 P1      -C5      -C21     -H44     :  67.308346
 P1      -C5      -C21     -H45     :-174.688135
 P1      -C5      -C21     -H46     : -56.731252
 P1      -C5      -C22     -H47     : -41.038724
 P1      -C5      -C22     -H48     :  82.280505
 P1      -C5      -C22     -H49     :-160.122597
 Pd2     -P1      -C3      -C12     :   3.505128
 Pd2     -P1      -C3      -C16     :-179.920365
 Pd2     -P1      -C4      -C17     : -41.028675
 Pd2     -P1      -C4      -C18     :  77.152704
 Pd2     -P1      -C4      -C19     :-163.990076
 Pd2     -P1      -C5      -C20     : -47.675647
 Pd2     -P1      -C5      -C21     :-166.351595
 Pd2     -P1      -C5      -C22     :  70.380189
 Pd2     -C76     -C75     -C74     : 179.318330
 Pd2     -C76     -C75     -H14     :   0.025842
 Pd2     -C76     -C77     -C78     :-179.501083
 Pd2     -C76     -C77     -H82     :  -0.463083
 Pd2     -O3      -C105    -C106    : 153.568167
 Pd2     -O3      -C105    -C107    : -89.071493
 Pd2     -O3      -C105    -C108    :  35.814900
 C73     -C74     -C75     -C76     :  -0.726754
 C73     -C74     -C75     -H14     : 178.578256
 C73     -C78     -C77     -C76     :   1.310696
 C73     -C78     -C77     -H82     :-177.744934
 C74     -C73     -C78     -C77     :   1.291073
 C74     -C73     -C78     -H83     :-178.049371
 C74     -C75     -C76     -C77     :   3.241909
 C75     -C74     -C73     -C78     :  -1.578611
 C75     -C74     -C73     -F79     : 179.270542
 C75     -C76     -Pd2     -O3      : -81.464853
 C75     -C76     -C77     -C78     :  -3.535626
 C75     -C76     -C77     -H82     : 175.502373
 C76     -Pd2     -P1      -C3      : 178.551010
 C76     -Pd2     -P1      -C4      :  63.915276
 C76     -Pd2     -P1      -C5      : -67.873530
 C76     -Pd2     -O3      -C105    :  -9.099211
 C76     -C75     -C74     -H80     : 179.600812
 C76     -C77     -C78     -H83     :-179.360874
 C77     -C76     -Pd2     -O3      :  94.504438
 C77     -C76     -C75     -H14     :-176.050579
 C77     -C78     -C73     -F79     :-179.558469
 C78     -C73     -C74     -H80     : 178.099709
 F79     -C73     -C74     -H80     :  -1.051138
 F79     -C73     -C78     -H83     :   1.101086
 H80     -C74     -C75     -H14     :  -1.094178
 H82     -C77     -C78     -H83     :   1.583497
 C3      -P1      -Pd2     -O3      :  10.238189
 C3      -P1      -C4      -C17     :-155.123312
 C3      -P1      -C4      -C18     : -36.941932
 C3      -P1      -C4      -C19     :  81.915287
 C3      -P1      -C5      -C20     :  66.832960
 C3      -P1      -C5      -C21     : -51.842988
 C3      -P1      -C5      -C22     :-175.111203
 C3      -C12     -C6      -C7      : 122.577969
 C3      -C12     -C6      -C11     : -78.434046
 C3      -C12     -C13     -C14     :   0.802333
 C3      -C12     -C13     -H28     : 179.390414
 C3      -C16     -C15     -C14     :  -0.153059
 C3      -C16     -C15     -H30     : 179.740032
 C4      -P1      -Pd2     -O3      :-104.397545
 C4      -P1      -C3      -C12     : 122.236219
 C4      -P1      -C3      -C16     : -61.189274
 C4      -P1      -C5      -C20     :-178.946272
 C4      -P1      -C5      -C21     :  62.377780
 C4      -P1      -C5      -C22     : -60.890436
 C5      -P1      -Pd2     -O3      : 123.813649
 C5      -P1      -C3      -C12     :-118.544297
 C5      -P1      -C3      -C16     :  58.030210
 C5      -P1      -C4      -C17     :  92.179819
 C5      -P1      -C4      -C18     :-149.638802
 C5      -P1      -C4      -C19     : -30.781582
 C6      -C7      -C8      -C9      :   0.290054
 C6      -C7      -C8      -H24     : 179.285148
 C6      -C7      -C23     -H50     :  63.806142
 C6      -C7      -C23     -H51     : -55.337607
 C6      -C7      -C23     -H52     :-175.098870
 C6      -C11     -C10     -C9      :  -0.796455
 C6      -C11     -C10     -H26     : 179.803905
 C6      -C12     -C3      -C16     : 171.499735
 C6      -C12     -C13     -C14     :-173.734714
 C6      -C12     -C13     -H28     :   4.853366
 C7      -C6      -C11     -C10     :   3.084391
 C7      -C6      -C11     -H27     : 176.237356
 C7      -C6      -C12     -C13     : -63.309167
 C7      -C8      -C9      -C10     :   2.033696
 C7      -C8      -C9      -H25     :-179.723080
 C8      -C7      -C6      -C11     :  -2.787609
 C8      -C7      -C6      -C12     : 155.807276
 C8      -C7      -C23     -H50     :-115.747407
 C8      -C7      -C23     -H51     : 125.108844
 C8      -C7      -C23     -H52     :   5.347581
 C8      -C9      -C10     -C11     :  -1.767401
 C8      -C9      -C10     -H26     : 177.627168
 C9      -C8      -C7      -C23     : 179.852907
 C9      -C10     -C11     -H27     :-173.866501
 C10     -C9      -C8      -H24     :-176.958218
 C10     -C11     -C6      -C12     :-156.254702
 C11     -C6      -C7      -C23     : 177.648842
 C11     -C6      -C12     -C13     :  95.678818
 C11     -C10     -C9      -H25     : 179.998945
 C12     -C3      -C16     -C15     :   2.072092
 C12     -C3      -C16     -H31     :-178.099515
 C12     -C6      -C7      -C23     : -23.756272
 C12     -C6      -C11     -H27     :  16.898263
 C12     -C13     -C14     -C15     :   1.141261
 C12     -C13     -C14     -H29     : 179.897071
 C13     -C12     -C3      -C16     :  -2.355980
 C13     -C14     -C15     -C16     :  -1.459920
 C13     -C14     -C15     -H30     : 178.648025
 C14     -C15     -C16     -H31     :-179.985063
 C15     -C14     -C13     -H28     :-177.424868
 C16     -C15     -C14     -H29     : 179.791615
 C17     -C4      -C18     -H35     :  61.336658
 C17     -C4      -C18     -H36     :-177.346757
 C17     -C4      -C18     -H37     : -58.877352
 C17     -C4      -C19     -H38     : -62.790386
 C17     -C4      -C19     -H39     :  55.298969
 C17     -C4      -C19     -H40     : 173.690056
 C18     -C4      -C17     -H32     : -72.085679
 C18     -C4      -C17     -H33     :  47.658949
 C18     -C4      -C17     -H34     : 165.594736
 C18     -C4      -C19     -H38     : 178.849063
 C18     -C4      -C19     -H39     : -63.061582
 C18     -C4      -C19     -H40     :  55.329506
 C19     -C4      -C17     -H32     : 170.669408
 C19     -C4      -C17     -H33     : -69.585964
 C19     -C4      -C17     -H34     :  48.349823
 C19     -C4      -C18     -H35     : 178.807936
 C19     -C4      -C18     -H36     : -59.875479
 C19     -C4      -C18     -H37     :  58.593926
 C20     -C5      -C21     -H44     : -48.845622
 C20     -C5      -C21     -H45     :  69.157897
 C20     -C5      -C21     -H46     :-172.885220
 C20     -C5      -C22     -H47     :  73.667372
 C20     -C5      -C22     -H48     :-163.013399
 C20     -C5      -C22     -H49     : -45.416501
 C21     -C5      -C20     -H41     :  63.301952
 C21     -C5      -C20     -H42     :-174.983920
 C21     -C5      -C20     -H43     : -55.659114
 C21     -C5      -C22     -H47     :-168.879784
 C21     -C5      -C22     -H48     : -45.560555
 C21     -C5      -C22     -H49     :  72.036343
 C22     -C5      -C20     -H41     :-179.973221
 C22     -C5      -C20     -H42     : -58.259093
 C22     -C5      -C20     -H43     :  61.065713
 C22     -C5      -C21     -H44     :-166.969553
 C22     -C5      -C21     -H45     : -48.966034
 C22     -C5      -C21     -H46     :  68.990849
 C23     -C7      -C8      -H24     :  -1.151999
 H24     -C8      -C9      -H25     :   1.285006
 H25     -C9      -C10     -H26     :  -0.606485
 H26     -C10     -C11     -H27     :   6.733859
 H28     -C13     -C14     -H29     :   1.330941
 H29     -C14     -C15     -H30     :  -0.100440
 H30     -C15     -C16     -H31     :  -0.091972
 O3      -C105    -C106    -H109    : 175.794383
 O3      -C105    -C106    -H110    : -63.679101
 O3      -C105    -C106    -H111    :  54.934236
 O3      -C105    -C107    -H115    :-167.768189
 O3      -C105    -C107    -H116    : -48.151558
 O3      -C105    -C107    -H117    :  71.241942
 O3      -C105    -C108    -H112    : 174.640472
 O3      -C105    -C108    -H113    : -64.694059
 O3      -C105    -C108    -H114    :  53.952009
 C106    -C105    -C107    -H115    : -51.541110
 C106    -C105    -C107    -H116    :  68.075521
 C106    -C105    -C107    -H117    :-172.530979
 C106    -C105    -C108    -H112    :  58.526247
 C106    -C105    -C108    -H113    : 179.191716
 C106    -C105    -C108    -H114    : -62.162215
 C107    -C105    -C106    -H109    :  54.972245
 C107    -C105    -C106    -H110    : 175.498761
 C107    -C105    -C106    -H111    : -65.887901
 C107    -C105    -C108    -H112    : -59.026999
 C107    -C105    -C108    -H113    :  61.638470
 C107    -C105    -C108    -H114    :-179.715462
 C108    -C105    -C106    -H109    : -64.230444
 C108    -C105    -C106    -H110    :  56.296072
 C108    -C105    -C106    -H111    : 174.909409
 C108    -C105    -C107    -H115    :  66.506211
 C108    -C105    -C107    -H116    :-173.877158
 C108    -C105    -C107    -H117    : -54.483659
 
  nuclear repulsion energy.......          4802.314531706 hartrees
  
  Detected an organometallic with only one TM atom. 
  
  Oxidation state on metal       2 is     2
  Formal multiplet on metal      2 is     1
  Formal charge on ligand        3 is    -1
  Formal multiplet on ligand     3 is     1
  Formal charge on ligand        4 is    -1
  Formal multiplet on ligand     4 is     1
  
 
  Will use High-Quality Initial guess for organometallics
       including d-d repulsion (iguess=30)
 
 Non-default options chosen:
   SCF calculation type: DFT(b3pw91-d3)              
   DFT=Becke_3_Parameter/HF+Slater+Becke88+PW91+PW-GGAIIC (B3PW91-D3)
   Geometry will be optimized in redundant internal coordinates
   Solvation energy will be computed using PBF
     -solute cavity energy will not be included
     -surface area terms will not be included
   Vibrational frequencies and related properties will be computed
      from analytic second derivatives
   IR intensities will be computed
   Thermochemical properties will be computed
   Maximum number of geometry steps: 100
   Scaling standard convergence criteria by a factor of   5.00
   Solvent: benzene                                                         
   Internal dielectric constant:    1.000
   Continuum dielectric constant:   2.283
   Solvent probe molecule radius:   2.600
  
 Non-default print settings:
     11=  2
  
 Temporary integer options set:
     21= -1  73=  2
  
  atom       vdw   vdw2    cov     mass  grid  daf  charge   basis
  P1        2.147  2.074  1.060   30.974    Y    Y      Y    ps_6-31g*
  Pd2       1.450  1.450  1.280  105.903    Y    Y      Y    lacv3p*
  C73       1.949  1.900  0.770   12.000    Y    Y      Y    ps_6-31g*
  C74       1.949  1.900  0.770   12.000    Y    Y      Y    ps_6-31g*
  C75       1.949  1.900  0.770   12.000    Y    Y      Y    ps_6-31g*
  C76       1.949  1.900  0.770   12.000    Y    Y      Y    ps_6-31g*
  C77       1.949  1.900  0.770   12.000    Y    Y      Y    ps_6-31g*
  C78       1.949  1.900  0.770   12.000    Y    Y      Y    ps_6-31g*
  F79       1.736  1.682  0.720   18.998    Y    Y      Y    ps_6-31g*
  H80       1.597  1.150  0.320    1.008    Y    Y      Y    ps_6-31g*
  H82       1.597  1.150  0.320    1.008    Y    Y      Y    ps_6-31g*
  H83       1.597  1.150  0.320    1.008    Y    Y      Y    ps_6-31g*
  H14       1.597  1.150  0.320    1.008    Y    Y      Y    ps_6-31g*
  C3        1.949  1.900  0.770   12.000    Y    Y      Y    ps_6-31g*
  C4        1.949  1.900  0.770   12.000    Y    Y      Y    ps_6-31g*
  C5        1.949  1.900  0.770   12.000    Y    Y      Y    ps_6-31g*
  C6        1.949  1.900  0.770   12.000    Y    Y      Y    ps_6-31g*
  C7        1.949  1.900  0.770   12.000    Y    Y      Y    ps_6-31g*
  C8        1.949  1.900  0.770   12.000    Y    Y      Y    ps_6-31g*
  C9        1.949  1.900  0.770   12.000    Y    Y      Y    ps_6-31g*
  C10       1.949  1.900  0.770   12.000    Y    Y      Y    ps_6-31g*
  C11       1.949  1.900  0.770   12.000    Y    Y      Y    ps_6-31g*
  C12       1.949  1.900  0.770   12.000    Y    Y      Y    ps_6-31g*
  C13       1.949  1.900  0.770   12.000    Y    Y      Y    ps_6-31g*
  C14       1.949  1.900  0.770   12.000    Y    Y      Y    ps_6-31g*
  C15       1.949  1.900  0.770   12.000    Y    Y      Y    ps_6-31g*
  C16       1.949  1.900  0.770   12.000    Y    Y      Y    ps_6-31g*
  C17       1.949  1.900  0.770   12.000    Y    Y      Y    ps_6-31g*
  C18       1.949  1.900  0.770   12.000    Y    Y      Y    ps_6-31g*
  C19       1.949  1.900  0.770   12.000    Y    Y      Y    ps_6-31g*
  C20       1.949  1.900  0.770   12.000    Y    Y      Y    ps_6-31g*
  C21       1.949  1.900  0.770   12.000    Y    Y      Y    ps_6-31g*
  C22       1.949  1.900  0.770   12.000    Y    Y      Y    ps_6-31g*
  C23       1.949  1.900  0.770   12.000    Y    Y      Y    ps_6-31g*
  H24       1.597  1.150  0.320    1.008    Y    Y      Y    ps_6-31g*
  H25       1.597  1.150  0.320    1.008    Y    Y      Y    ps_6-31g*
  H26       1.597  1.150  0.320    1.008    Y    Y      Y    ps_6-31g*
  H27       1.597  1.150  0.320    1.008    Y    Y      Y    ps_6-31g*
  H28       1.597  1.150  0.320    1.008    Y    Y      Y    ps_6-31g*
  H29       1.597  1.150  0.320    1.008    Y    Y      Y    ps_6-31g*
  H30       1.597  1.150  0.320    1.008    Y    Y      Y    ps_6-31g*
  H31       1.597  1.150  0.320    1.008    Y    Y      Y    ps_6-31g*
  H32       1.597  1.150  0.320    1.008    Y    Y      Y    ps_6-31g*
  H33       1.597  1.150  0.320    1.008    Y    Y      Y    ps_6-31g*
  H34       1.597  1.150  0.320    1.008    Y    Y      Y    ps_6-31g*
  H35       1.597  1.150  0.320    1.008    Y    Y      Y    ps_6-31g*
  H36       1.597  1.150  0.320    1.008    Y    Y      Y    ps_6-31g*
  H37       1.597  1.150  0.320    1.008    Y    Y      Y    ps_6-31g*
  H38       1.597  1.150  0.320    1.008    Y    Y      Y    ps_6-31g*
  H39       1.597  1.150  0.320    1.008    Y    Y      Y    ps_6-31g*
  H40       1.597  1.150  0.320    1.008    Y    Y      Y    ps_6-31g*
  H41       1.597  1.150  0.320    1.008    Y    Y      Y    ps_6-31g*
  H42       1.597  1.150  0.320    1.008    Y    Y      Y    ps_6-31g*
  H43       1.597  1.150  0.320    1.008    Y    Y      Y    ps_6-31g*
  H44       1.597  1.150  0.320    1.008    Y    Y      Y    ps_6-31g*
  H45       1.597  1.150  0.320    1.008    Y    Y      Y    ps_6-31g*
  H46       1.597  1.150  0.320    1.008    Y    Y      Y    ps_6-31g*
  H47       1.597  1.150  0.320    1.008    Y    Y      Y    ps_6-31g*
  H48       1.597  1.150  0.320    1.008    Y    Y      Y    ps_6-31g*
  H49       1.597  1.150  0.320    1.008    Y    Y      Y    ps_6-31g*
  H50       1.597  1.150  0.320    1.008    Y    Y      Y    ps_6-31g*
  H51       1.597  1.150  0.320    1.008    Y    Y      Y    ps_6-31g*
  H52       1.597  1.150  0.320    1.008    Y    Y      Y    ps_6-31g*
  O3        1.702  1.600  0.730   15.995    Y    Y      Y    ps_6-31g*
  C105      1.949  1.900  0.770   12.000    Y    Y      Y    ps_6-31g*
  C106      1.949  1.900  0.770   12.000    Y    Y      Y    ps_6-31g*
  C107      1.949  1.900  0.770   12.000    Y    Y      Y    ps_6-31g*
  C108      1.949  1.900  0.770   12.000    Y    Y      Y    ps_6-31g*
  H109      1.597  1.150  0.320    1.008    Y    Y      Y    ps_6-31g*
  H110      1.597  1.150  0.320    1.008    Y    Y      Y    ps_6-31g*
  H111      1.597  1.150  0.320    1.008    Y    Y      Y    ps_6-31g*
  H112      1.597  1.150  0.320    1.008    Y    Y      Y    ps_6-31g*
  H113      1.597  1.150  0.320    1.008    Y    Y      Y    ps_6-31g*
  H114      1.597  1.150  0.320    1.008    Y    Y      Y    ps_6-31g*
  H115      1.597  1.150  0.320    1.008    Y    Y      Y    ps_6-31g*
  H116      1.597  1.150  0.320    1.008    Y    Y      Y    ps_6-31g*
  H117      1.597  1.150  0.320    1.008    Y    Y      Y    ps_6-31g*
 
  atom      formal  2spin      esp    mulk    frag
  P1           0       0        Y    0.000       0
  Pd2          2       0        Y    0.000       0
  C73         -1       0        Y    0.000       0
  O3          -1       0        Y    0.000       0
  
  end of program pre
   
 Time(pre)  user:       4.872  user+sys:       4.872  wallclock:       1.474
  
  start of program onee
  
  smallest eigenvalue of S:    4.013E-04
  number of canonical orbitals.....          592
  end of program onee
   
 Time(onee)  user:       5.865  user+sys:       5.865  wallclock:       1.061
  
  start of program hfig
  
  initial wavefunction generated automatically from atomic wavefunctions
  Only one state below 0.010000
  Skip d-d repulsion considerations 
 
  Irreducible     Total no   No of occupied orbitals 
  representation  orbitals   Shell_1  Shell_2    ...
  No Symm          592        139
  ------------------------
  Orbital occupation/shell    1.000
 
  end of program hfig
   
 Time(hfig)  user:       2.541  user+sys:       2.541  wallclock:       0.953
  
  start of program probe
  
  end of program probe
   
 Time(probe)  user:       1.424  user+sys:       1.424  wallclock:       0.361
  
  start of program grid
  
   grid     grid set  grid #  grid sym
  ------    --------  ------  --------
  coarse        0        0        1
  medium        2        1        1
  fine          0        0        1
  ultrafine     4        2        1
  charge       -1        3        1
  gradient      4        2        1
  density       0        0        1
  DFT-fine    -11        4        1
  DFT-med.    -10        5        1
  DFT-grad    -12        6        1
  DFT-der2     -8        7        1
  DFT-cphf     -9        8        1
  LMP2-enrg     4        2        1
  LMP2-grad     2        1        1
  DFT-cphf2   -15        9        1
  PBF-dens      0        0        1
  plotting      0        0        1
  Rel-grad    -17        0        1
  
  number of gridpoints: 
     atom           P1         Pd2         C73         C74         C75         C76         C77
  grid # 1         611         352          77          92          92          97          92
  grid # 2         429         298         330         317         301         363         301
  grid # 3           7         220          28          11           6           6           7
  grid # 4        8714        8714        8714        8714        8714        8714        8714
  grid # 5        1192        1192        1192        1192        1192        1192        1192
  grid # 6        9132        9132        5922        5922        5922        5922        5922
  grid # 7       23034       32968       13950       13950       13950       13950       13950
  grid # 8         722        1150         748         748         748         748         748
  grid # 9         366        2198         394         394         394         394         394
   
  number of gridpoints: 
     atom          C78         F79         H80         H82         H83         H14          C3
  grid # 1          92         585         113          97         114         107          93
  grid # 2         318         566         463         399         462         439         379
  grid # 3          14         361         389         137         378         168           8
  grid # 4        8714        8714        8714        8714        8714        8714        8714
  grid # 5        1192        1192        1192        1192        1192        1192        1192
  grid # 6        5922        5922        5922        5922        5922        5922        5922
  grid # 7       13950       23190       15206       15206       15206       15206       13950
  grid # 8         748         770         786         786         786         786         748
  grid # 9         394         420         420         420         420         420         394
   
  number of gridpoints: 
     atom           C4          C5          C6          C7          C8          C9         C10
  grid # 1          88          87          97          98          94          95          96
  grid # 2         366         367         357         359         324         322         321
  grid # 3           6           6           7          14          22          29          25
  grid # 4        8714        8714        8714        8714        8714        8714        8714
  grid # 5        1192        1192        1192        1192        1192        1192        1192
  grid # 6        5922        5922        5922        5922        5922        5922        5922
  grid # 7       13950       13950       13950       13950       13950       13950       13950
  grid # 8         748         748         748         748         748         748         748
  grid # 9         394         394         394         394         394         394         394
   
  number of gridpoints: 
     atom          C11         C12         C13         C14         C15         C16         C17
  grid # 1          93          98          95          97          95          94          79
  grid # 2         321         356         325         324         324         322         240
  grid # 3          14          12          26          43          33          11           6
  grid # 4        8714        8714        8714        8714        8714        8714        8714
  grid # 5        1192        1192        1192        1192        1192        1192        1192
  grid # 6        5922        5922        5922        5922        5922        5922        5922
  grid # 7       13950       13950       13950       13950       13950       13950       13950
  grid # 8         748         748         748         748         748         748         748
  grid # 9         394         394         394         394         394         394         394
   
  number of gridpoints: 
     atom          C18         C19         C20         C21         C22         C23         H24
  grid # 1          80          80          78          81          81          81         113
  grid # 2         235         237         241         235         237         234         455
  grid # 3           6           6           6           6           6           6         304
  grid # 4        8714        8714        8714        8714        8714        8714        8714
  grid # 5        1192        1192        1192        1192        1192        1192        1192
  grid # 6        5922        5922        5922        5922        5922        5922        5922
  grid # 7       13950       13950       13950       13950       13950       13950       15206
  grid # 8         748         748         748         748         748         748         786
  grid # 9         394         394         394         394         394         394         420
   
  number of gridpoints: 
     atom          H25         H26         H27         H28         H29         H30         H31
  grid # 1         115         115         109         115         118         118         102
  grid # 2         458         460         438         453         468         466         427
  grid # 3         322         340         177         287         424         416         105
  grid # 4        8714        8714        8714        8714        8714        8714        8714
  grid # 5        1192        1192        1192        1192        1192        1192        1192
  grid # 6        5922        5922        5922        5922        5922        5922        5922
  grid # 7       15206       15206       15206       15206       15206       15206       15206
  grid # 8         786         786         786         786         786         786         786
  grid # 9         420         420         420         420         420         420         420
   
  number of gridpoints: 
     atom          H32         H33         H34         H35         H36         H37         H38
  grid # 1          84         107         104         102         105         107         102
  grid # 2         366         445         434         429         436         444         425
  grid # 3          22         243         162         129         180         269         143
  grid # 4        8714        8714        8714        8714        8714        8714        8714
  grid # 5        1192        1192        1192        1192        1192        1192        1192
  grid # 6        5922        5922        5922        5922        5922        5922        5922
  grid # 7       15206       15206       15206       15206       15206       15206       15206
  grid # 8         786         786         786         786         786         786         786
  grid # 9         420         420         420         420         420         420         420
   
  number of gridpoints: 
     atom          H39         H40         H41         H42         H43         H44         H45
  grid # 1         109         102         103         103         108         102         109
  grid # 2         447         425         433         433         447         431         446
  grid # 3         268         168         144         116         270         182         264
  grid # 4        8714        8714        8714        8714        8714        8714        8714
  grid # 5        1192        1192        1192        1192        1192        1192        1192
  grid # 6        5922        5922        5922        5922        5922        5922        5922
  grid # 7       15206       15206       15206       15206       15206       15206       15206
  grid # 8         786         786         786         786         786         786         786
  grid # 9         420         420         420         420         420         420         420
   
  number of gridpoints: 
     atom          H46         H47         H48         H49         H50         H51         H52
  grid # 1         103         102         105         108         107         104         109
  grid # 2         421         424         435         446         444         432         453
  grid # 3         134          87         191         257         256         131         307
  grid # 4        8714        8714        8714        8714        8714        8714        8714
  grid # 5        1192        1192        1192        1192        1192        1192        1192
  grid # 6        5922        5922        5922        5922        5922        5922        5922
  grid # 7       15206       15206       15206       15206       15206       15206       15206
  grid # 8         786         786         786         786         786         786         786
  grid # 9         420         420         420         420         420         420         420
   
  number of gridpoints: 
     atom           O3        C105        C106        C107        C108        H109        H110
  grid # 1         119          92          81          79          81         109         110
  grid # 2         474         329         240         242         241         449         452
  grid # 3          32           6           6           6           6         277         279
  grid # 4        8714        8714        8714        8714        8714        8714        8714
  grid # 5        1192        1192        1192        1192        1192        1192        1192
  grid # 6        5922        5922        5922        5922        5922        5922        5922
  grid # 7       23382       13950       13950       13950       13950       15206       15206
  grid # 8         774         748         748         748         748         786         786
  grid # 9         416         394         394         394         394         420         420
   
  number of gridpoints: 
     atom         H111        H112        H113        H114        H115        H116        H117
  grid # 1         106         108          95         104         108         106         107
  grid # 2         444         452         393         425         450         443         445
  grid # 3         204         270          32         137         282         215         205
  grid # 4        8714        8714        8714        8714        8714        8714        8714
  grid # 5        1192        1192        1192        1192        1192        1192        1192
  grid # 6        5922        5922        5922        5922        5922        5922        5922
  grid # 7       15206       15206       15206       15206       15206       15206       15206
  grid # 8         786         786         786         786         786         786         786
  grid # 9         420         420         420         420         420         420         420
   
  number of gridpoints: 
     atom        total
  grid # 1        8896
  grid # 2       29612
  grid # 3       10285
  grid # 4      670978
  grid # 5       91784
  grid # 6      462414
  grid # 7     1173676
  grid # 8       59616
  grid # 9       33254
   
  end of program grid
   
 Time(grid)  user:     328.542  user+sys:     328.542  wallclock:      22.800
  
  start of program rwr
  
  end of program rwr
   
 Time(rwr)  user:      61.232  user+sys:      61.232  wallclock:      13.080
  
  start of program scf
  
 number of electrons..........        278
 number of alpha electrons....        139
 number of beta electrons.....        139
 number of orbitals, total....        592
 number of doubly-occ'd orbs..        139
 number of open shell orbs....          0
 number of occupied orbitals..        139
 number of virtual orbitals...        453
 number of hamiltonians.......          1
 number of shells.............          1
 SCF type: DFT=Becke_3_Parameter/HF+Slater+Becke88+PW91+PW-GGAIIC (B3PW91-D3)
 Energy computed using pseudospectral method.
 Convergence Criterion:
    Energy (econv):       1.00E-05
    RMS density (dconv):  5.00E-06
  
       i  u  d  i  g                   
       t  p  i  c  r                                 RMS    maximum
       e  d  i  u  i                       energy  density   DIIS  
       r  t  s  t  d       total energy    change  change    error 
  
etot    1  N  N  5  M   -1844.50630099996           2.1E-03  1.9E-01
etot    2  Y  Y  6  M   -1847.70477755333  3.2E+00  3.3E-03  1.1E-01
etot    3  Y  Y  6  M   -1848.74858165579  1.0E+00  1.3E-03  6.5E-02
etot    4  N  Y  2  U   -1848.96646318280  2.2E-01  9.7E-04  4.7E-02
etot    5  Y  Y  6  M   -1849.06981790766  1.0E-01  6.6E-04  3.0E-02
etot    6  N  Y  2  U   -1849.08273477727  1.3E-02  7.1E-04  1.6E-02
etot    7  Y  Y  6  M   -1849.09082564285  8.1E-03  1.6E-04  6.9E-03
etot    8  N  Y  2  U   -1849.10110892167  1.0E-02  4.6E-05  1.8E-03
etot    9  N  Y  2  U   -1849.10144877341  3.4E-04  1.5E-05  3.8E-04
etot   10  N  Y  2  U   -1849.10146126884  1.2E-05  5.3E-06  1.2E-04
etot   11  N  Y  2  U   -1849.10146424879  3.0E-06  1.7E-06  4.4E-05
etot   12  N  N  2  U   -1849.10146459405  3.5E-07  0.0E+00  0.0E+00
 
  Computing the dispersion energy correction and its gradients...
  
  
 Energy components, in hartrees:
   (A)  Nuclear repulsion............    4802.31453170616
   (E)  Total one-electron terms.....  -12138.96087293795
   (F)    Electron-nuclear...........  -13898.33815131507
   (H)    Kinetic....................    1759.37727837713
   (I)  Total two-electron terms.....    5487.54487663774
   (J)    Coulomb....................    5726.33903776477
   (K)    Exchange+Correlation.......    -238.79416112703
   (L)  Electronic energy............   -6651.41599630021  (E+I)
   (N0) D3 correction................      -0.14640522552
   (N)  Total energy.................   -1849.24786981956  (A+L+N0)
   (O)  Gas phase energy.............   -1849.24786981956
  
 SCFE: SCF energy: DFT(b3pw91-d3)     -1849.24786981956 hartrees   iterations:  12
  
 
 HOMO energy:    -0.17701
 LUMO energy:    -0.04375
 
  Orbital energies (hartrees): 
   -77.07829   -24.67144   -19.05673   -10.23761   -10.20685   -10.20502
   -10.20387   -10.20076   -10.19490   -10.19314   -10.19155   -10.18997
   -10.18940   -10.18761   -10.18397   -10.17501   -10.17298   -10.17022
   -10.16902   -10.16824   -10.16555   -10.16465   -10.16446   -10.16324
   -10.16244   -10.16242   -10.16228   -10.16144   -10.15869   -10.15654
   -10.14107   -10.11340   -10.11140   -10.08973    -6.57863    -4.73684
    -4.73603    -4.73334    -3.33339    -2.06589    -2.06308    -2.03156
    -1.20363    -0.92124    -0.88835    -0.86100    -0.85770    -0.83542
    -0.81913    -0.79197    -0.77654    -0.76937    -0.75379    -0.74336
    -0.73596    -0.72722    -0.70447    -0.69619    -0.69539    -0.69232
    -0.68983    -0.66349    -0.65006    -0.64692    -0.63141    -0.61749
    -0.61345    -0.59614    -0.59115    -0.58118    -0.56205    -0.54613
    -0.53509    -0.51607    -0.50327    -0.50040    -0.48323    -0.48065
    -0.47490    -0.47144    -0.46509    -0.46432    -0.45642    -0.45346
    -0.44973    -0.44896    -0.44737    -0.44573    -0.43794    -0.43072
    -0.42864    -0.42681    -0.42145    -0.41834    -0.41279    -0.40873
    -0.40800    -0.40665    -0.39913    -0.39667    -0.39109    -0.38538
    -0.38504    -0.38331    -0.38143    -0.37681    -0.37355    -0.37087
    -0.36762    -0.36576    -0.35880    -0.35113    -0.34649    -0.34493
    -0.34302    -0.34210    -0.33973    -0.33821    -0.33414    -0.32359
    -0.32185    -0.31778    -0.30908    -0.30635    -0.30391    -0.29989
    -0.27918    -0.27634    -0.27393    -0.26936    -0.26735    -0.26203
    -0.24586    -0.23562    -0.23252    -0.22053    -0.20008    -0.18425
    -0.17701    -0.04375    -0.04060    -0.02484    -0.00874     0.00166
     0.00245     0.01403     0.03473     0.04551     0.05917
 
  end of program scf
   
 Time(scf)  user:     589.542  user+sys:     589.542  wallclock:      54.183
  
  start of program der1a
  
  end of program der1a
   
 Time(der1a)  user:      14.075  user+sys:      14.075  wallclock:       1.485
  
  start of program rwr
  
  end of program rwr
   
 Time(rwr)  user:      37.569  user+sys:      37.569  wallclock:      14.310
  
  start of program der1b
  
   
  forces (hartrees/bohr) : total     
   
 atom  label           x              y              z
 ---- --------   -------------  -------------  -------------
    1 P1          2.834027E-03   4.936562E-03   7.766044E-03
    2 Pd2         6.682372E-03  -8.907410E-03  -9.413675E-04
    3 C73         3.315102E-03   5.222084E-04   1.077277E-03
    4 C74        -7.292193E-03  -1.172240E-03  -6.209727E-03
    5 C75        -7.069562E-03   2.150778E-02  -4.686967E-02
    6 C76        -5.179997E-03  -5.839278E-03  -4.240027E-02
    7 C77        -6.839622E-03   1.838646E-02   2.432616E-02
    8 C78         2.213256E-03   8.033482E-04   2.750183E-03
    9 F79        -8.006591E-04  -2.515484E-03  -2.785538E-04
   10 H80         6.452282E-04  -3.790929E-04   4.016237E-04
   11 H82         3.550585E-04   1.322287E-02   3.739547E-02
   12 H83        -3.272580E-04   1.867174E-04   9.422448E-04
   13 H14         4.981539E-04   1.273240E-04  -3.758251E-03
   14 C3         -3.372646E-03   7.028007E-04  -3.648905E-03
   15 C4          1.357520E-03  -1.911688E-03  -7.661420E-03
   16 C5          3.444423E-04  -1.295880E-03  -6.201177E-04
   17 C6         -1.618679E-03  -7.014512E-04   7.449936E-04
   18 C7          1.248192E-03  -8.613269E-04  -2.528842E-04
   19 C8          5.383977E-04   3.845160E-04  -2.014459E-04
   20 C9         -1.033322E-03   3.378755E-03  -1.296733E-03
   21 C10        -7.832911E-05   5.911673E-04  -3.120277E-03
   22 C11         1.340475E-04  -3.658236E-03   2.486784E-03
   23 C12         2.076452E-04   5.702242E-04  -7.913287E-06
   24 C13        -7.397666E-06  -1.118142E-04  -1.446027E-03
   25 C14         5.470844E-04   1.319490E-03   5.721572E-04
   26 C15         3.680987E-04   2.152032E-04  -1.891909E-04
   27 C16         4.991629E-04  -1.487388E-03   1.222897E-03
   28 C17        -1.817003E-03  -1.651895E-02  -2.581393E-02
   29 C18         2.697576E-04  -5.480222E-04  -1.054063E-03
   30 C19        -5.143707E-04  -9.213821E-04  -4.673947E-05
   31 C20        -1.124710E-04   1.079464E-03  -6.173348E-04
   32 C21        -7.621340E-04   5.209950E-04  -1.146846E-03
   33 C22         5.658941E-04  -3.137926E-03   1.416898E-03
   34 C23        -2.091341E-06   6.658099E-05  -2.972649E-04
   35 H24         2.651053E-04   1.075505E-04  -3.528839E-04
   36 H25        -2.198503E-05  -1.539081E-05  -1.824404E-04
   37 H26        -3.084411E-04   1.871366E-05  -2.954646E-04
   38 H27        -4.414844E-04   2.122714E-04   2.596506E-05
   39 H28         1.607978E-04   3.743965E-04   1.565319E-04
   40 H29         1.064074E-04   3.242492E-04  -5.677205E-05
   41 H30         2.009598E-05  -9.918967E-05   3.084263E-04
   42 H31         1.895566E-03   1.266661E-03  -3.029791E-04
   43 H32        -6.377377E-05  -1.561609E-02  -5.204805E-02
   44 H33         1.679684E-03   6.689184E-05  -1.999906E-03
   45 H34        -2.055905E-03   7.941816E-04   3.070208E-03
   46 H35         7.498537E-04   2.001722E-03   1.786353E-04
   47 H36         1.637908E-03  -5.238911E-04   1.134500E-03
   48 H37         2.558240E-04   6.197526E-04   1.575306E-03
   49 H38         3.729812E-04  -4.431558E-04   1.037001E-03
   50 H39        -1.935357E-04  -4.457149E-04  -7.552744E-04
   51 H40        -2.530794E-04  -9.703645E-05  -1.737333E-03
   52 H41         1.180899E-04   7.976284E-05   1.740859E-04
   53 H42         6.773966E-04   9.193111E-05   1.387428E-03
   54 H43        -2.672228E-04  -1.109903E-04  -1.960120E-04
   55 H44        -2.632118E-04   7.203059E-05   1.565100E-04
   56 H45        -4.178259E-04  -1.240160E-04  -9.083115E-05
   57 H46        -3.500173E-03  -7.334201E-04   5.543007E-04
   58 H47         1.246597E-03  -4.715765E-04   2.703909E-03
   59 H48         3.050821E-03   7.426716E-05  -4.522140E-04
   60 H49         4.109980E-04   5.484623E-04  -8.186969E-04
   61 H50        -2.849539E-05   1.705531E-04   5.736496E-05
   62 H51        -2.096487E-04  -3.427917E-04   2.609320E-04
   63 H52         2.870781E-04  -2.520041E-05  -3.901914E-04
   64 O3          4.211514E-03   8.849365E-03  -2.145011E-03
   65 C105       -4.692194E-03   7.065884E-03   9.329580E-03
   66 C106        1.034888E-03  -3.011190E-03   7.255051E-04
   67 C107       -2.634031E-03  -2.448585E-03  -2.004973E-03
   68 C108        1.459488E-02  -6.725382E-03   4.005212E-02
   69 H109       -3.634703E-04  -1.396299E-04  -7.024989E-04
   70 H110       -3.790504E-03  -7.259011E-05  -1.601680E-04
   71 H111       -2.215587E-04  -5.477419E-04   7.723272E-04
   72 H112       -2.171571E-03  -1.530406E-03   4.822357E-03
   73 H113       -1.532810E-03  -5.815298E-03   5.850938E-02
   74 H114        3.464790E-03  -1.816445E-03   7.060189E-03
   75 H115        2.532527E-04  -2.151180E-04  -1.750654E-03
   76 H116        1.522158E-04  -6.655418E-04   5.735213E-04
   77 H117        1.029975E-03   1.383450E-03  -4.338327E-03
 -------------   -------------  -------------  -------------
     total        4.150518E-05   6.405927E-04  -2.930804E-03
   
  end of program der1b
   
 Time(der1b)  user:     181.481  user+sys:     181.481  wallclock:      15.955
  
  start of program geopt
  
 ----------------------------------------------------------------------------
  Geometry optimization step  1
  Total energy:     -1849.24786981956 hartrees
 ----------------------------------------------------------------------------
  
  
  Level shifts adjusted to satisfy step-size constraints
   Step size:    0.3001050
   Cos(theta):   0.7611068
   Final level shift:  -5.4748227E-01
  
  gradient maximum:        5.3310E-01 .  (  2.2500E-03 )
  gradient rms:            6.5087E-02 .  (  1.5000E-03 )
  displacement maximum:    9.3136E-02 .  (  9.0000E-03 )
  displacement rms:        1.4923E-02 .  (  6.0000E-03 )
  
  predicted energy change:  -1.2704E-01
  step size:     0.23549
  trust radius:  0.30000
  
  molecular structure not yet converged...
  
  center of mass moved by:
     x:     5.0112E-02     y:     6.5635E-02     z:     4.3413E-03
  
  new geometry: 
                                   angstroms
  atom               x                 y                 z
  P1            0.0340356197     -0.0218327705     -0.0168900881 
  Pd2           0.0506718636      0.0696771199      2.3387171533 
  C73           1.5135208867      4.5982115418      2.7505092228 
  C74           0.1514971033      4.3244197175      2.7450304960 
  C75          -0.2629681166      3.0003458726      2.6160161784 
  C76           0.6708649278      1.9688978498      2.4651697023 
  C77           2.0308119772      2.2689426035      2.5282445137 
  C78           2.4634684441      3.5920861586      2.6597042048 
  F79           1.9240670660      5.8795567337      2.8612099014 
  H80          -0.5619136530      5.1372031466      2.8495912126 
  H82           2.7703670630      1.4809219514      2.5309395103 
  H83           3.5197308740      3.8436685046      2.7025579694 
  H14          -1.3259188965      2.7813025019      2.6310714225 
  C3           -0.4998210497     -1.7309526069     -0.4664288015 
  C4            1.7144364034      0.1799298764     -0.9168230532 
  C5           -1.2905779069      1.0887276256     -0.8339568693 
  C6           -0.6623456793     -2.4130611301      2.0218868029 
  C7           -1.7644203780     -2.4239934722      2.9234200230 
  C8           -1.5281061811     -2.7375481366      4.2570953133 
  C9           -0.2456406682     -3.0335783955      4.7245278825 
  C10           0.8418113263     -2.9777740556      3.8637172176 
  C11           0.6341501170     -2.6620111671      2.5225558123 
  C12          -0.8760948473     -2.6204171885      0.5540007403 
  C13          -1.3959062067     -3.8797520488      0.2097409887 
  C14          -1.5315183754     -4.2754697104     -1.1139187682 
  C15          -1.1206012961     -3.4115095649     -2.1277837167 
  C16          -0.6121613740     -2.1603369556     -1.8019533273 
  C17           2.5155280320      1.3475115622     -0.3415408880 
  C18           2.4905506819     -1.1213325460     -0.6478587179 
  C19           1.6245870797      0.3748676501     -2.4367950076 
  C20          -2.5650853120      0.7986339754     -0.0229541728 
  C21          -1.5997459645      0.8021270116     -2.3116320937 
  C22          -0.9146806405      2.5752453626     -0.7070139871 
  C23          -3.1552400923     -2.1119799923      2.4393845990 
  H24          -2.3626893154     -2.7363152798      4.9546310789 
  H25          -0.0994452239     -3.2790534653      5.7731799389 
  H26           1.8479198894     -3.1686780538      4.2261760569 
  H27           1.4609923281     -2.7132935645      1.8205760578 
  H28          -1.6730309194     -4.5600378413      1.0118888695 
  H29          -1.9353804850     -5.2566550873     -1.3516237098 
  H30          -1.1961250013     -3.7074614186     -3.1714806116 
  H31          -0.2988627144     -1.5105335010     -2.6084526296 
  H32           2.4996424804      1.3977834349      0.7461591526 
  H33           3.5630416102      1.2429628260     -0.6571969039 
  H34           2.1537000892      2.3072711455     -0.7226556478 
  H35           2.6141948797     -1.3147278413      0.4231231720 
  H36           1.9897041298     -1.9872895283     -1.0930226163 
  H37           3.4880296125     -1.0476353723     -1.1010113674 
  H38           1.0749223361      1.2798439239     -2.7139401380 
  H39           2.6445529718      0.4845552578     -2.8298414092 
  H40           1.1713035410     -0.4833327420     -2.9424118537 
  H41          -2.8467061268     -0.2590742749     -0.0787764080 
  H42          -2.4425239969      1.0720963254      1.0300705923 
  H43          -3.3963158686      1.3874613054     -0.4332583537 
  H44          -2.0845001797     -0.1660069199     -2.4584337487 
  H45          -2.3003784967      1.5699562635     -2.6672145005 
  H46          -0.7124794721      0.8592097332     -2.9490316819 
  H47          -0.5087621071      2.8369136347      0.2698303343 
  H48          -0.1971002257      2.8776761171     -1.4747480373 
  H49          -1.8239274742      3.1718887321     -0.8590562315 
  H50          -3.5138389532     -2.8518125172      1.7130202471 
  H51          -3.1754866761     -1.1368227722      1.9408789360 
  H52          -3.8640040963     -2.0805632093      3.2730733222 
  O3           -0.0715114979     -0.2904605805      4.3008735982 
  C105          0.3485341509      0.4256826202      5.4312399447 
  C106         -0.5512207101     -0.0682599129      6.5788854702 
  C107          1.8159645724      0.1248717385      5.7871222073 
  C108          0.1316100478      1.9295728407      5.3028100558 
  H109         -0.2666279978      0.3747356135      7.5420966090 
  H110         -1.5902793953      0.1935320194      6.3661253890 
  H111         -0.4841750166     -1.1596788137      6.6600428855 
  H112          0.4111503923      2.4632693452      6.2230344074 
  H113          0.7082325968      2.3063549815      4.4554221353 
  H114         -0.9233964606      2.1246348779      5.0894194665 
  H115          2.0705516156      0.5171924114      6.7807123159 
  H116          1.9692664854     -0.9605036164      5.7923802699 
  H117          2.5068837131      0.5595159564      5.0603642341 
   
 
  bond lengths (angstroms):
 
 P1      -Pd2     :   2.357443      P1      -C3      :   1.846125
 P1      -C4      :   1.916855      P1      -C5      :   1.911948
 Pd2     -C76     :   2.001916      Pd2     -O3      :   1.998671
 C73     -C74     :   1.389281      C73     -C78     :   1.386699
 C73     -F79     :   1.350055      C74     -C75     :   1.393412
 C74     -H80     :   1.086510      C75     -C76     :   1.399530
 C75     -H14     :   1.085390      C76     -C77     :   1.394081
 C77     -C78     :   1.398278      C77     -H82     :   1.080706
 C78     -H83     :   1.086656      C3      -C12     :   1.404993
 C3      -C16     :   1.407344      C4      -C17     :   1.528380
 C4      -C18     :   1.538824      C4      -C19     :   1.535053
 C5      -C20     :   1.538262      C5      -C21     :   1.536636
 C5      -C22     :   1.538554      C6      -C7      :   1.423886
 C6      -C11     :   1.411930      C6      -C12     :   1.497790
 C7      -C8      :   1.390270      C7      -C23     :   1.505331
 C8      -C9      :   1.396726      C8      -H24     :   1.087698
 C9      -C10     :   1.388042      C9      -H25     :   1.086877
 C10     -C11     :   1.393393      C10     -H26     :   1.086313
 C11     -H27     :   1.085852      C12     -C13     :   1.405220
 C13     -C14     :   1.388185      C13     -H28     :   1.087671
 C14     -C15     :   1.393988      C14     -H29     :   1.087351
 C15     -C16     :   1.389284      C15     -H30     :   1.087472
 C16     -H31     :   1.082054      C17     -H32     :   1.088977
 C17     -H33     :   1.099024      C17     -H34     :   1.094215
 C18     -H35     :   1.095304      C18     -H36     :   1.094943
 C18     -H37     :   1.098063      C19     -H38     :   1.094497
 C19     -H39     :   1.098566      C19     -H40     :   1.094359
 C20     -H41     :   1.095980      C20     -H42     :   1.094835
 C20     -H43     :   1.098185      C21     -H44     :   1.092621
 C21     -H45     :   1.098584      C21     -H46     :   1.093974
 C22     -H47     :   1.089709      C22     -H48     :   1.093527
 C22     -H49     :   1.098103      C23     -H50     :   1.097064
 C23     -H51     :   1.095376      C23     -H52     :   1.094701
 O3      -C105    :   1.402508      C105    -C106    :   1.539684
 C105    -C107    :   1.539640      C105    -C108    :   1.524872
 C106    -H109    :   1.097731      C106    -H110    :   1.092449
 C106    -H111    :   1.096484      C107    -H115    :   1.098158
 C107    -H116    :   1.096161      C107    -H117    :   1.092914
 C108    -H112    :   1.099903      C108    -H113    :   1.092028
 C108    -H114    :   1.093903
 
  bond angles:
 
 C3      -P1      -Pd2     : 106.337313  C4      -P1      -Pd2     : 117.312686
 C4      -P1      -C3      : 103.687715  C5      -P1      -Pd2     : 114.164451
 C5      -P1      -C3      : 103.493874  C5      -P1      -C4      : 110.216893
 C76     -Pd2     -P1      :  95.861778  O3      -Pd2     -P1      : 166.790326
 O3      -Pd2     -C76     :  97.346650  C78     -C73     -C74     : 121.894424
 F79     -C73     -C74     : 119.045085  F79     -C73     -C78     : 119.056949
 C75     -C74     -C73     : 118.636000  H80     -C74     -C73     : 119.730470
 H80     -C74     -C75     : 121.631070  C76     -C75     -C74     : 120.785885
 H14     -C75     -C74     : 118.801787  H14     -C75     -C76     : 120.412006
 C75     -C76     -Pd2     : 119.952660  C77     -C76     -Pd2     : 120.614485
 C77     -C76     -C75     : 119.170600  C78     -C77     -C76     : 120.647921
 H82     -C77     -C76     : 120.713475  H82     -C77     -C78     : 118.555628
 C77     -C78     -C73     : 118.734888  H83     -C78     -C73     : 119.690817
 H83     -C78     -C77     : 121.570921  C12     -C3      -P1      : 119.122800
 C16     -C3      -P1      : 122.453911  C16     -C3      -C12     : 118.339404
 C17     -C4      -P1      : 111.295868  C18     -C4      -P1      : 105.728171
 C18     -C4      -C17     : 108.412424  C19     -C4      -P1      : 115.272679
 C19     -C4      -C17     : 107.840512  C19     -C4      -C18     : 108.057752
 C20     -C5      -P1      : 103.837615  C21     -C5      -P1      : 116.231972
 C21     -C5      -C20     : 107.765230  C22     -C5      -P1      : 110.896571
 C22     -C5      -C20     : 109.946001  C22     -C5      -C21     : 107.981035
 C11     -C6      -C7      : 119.002263  C12     -C6      -C7      : 120.596578
 C12     -C6      -C11     : 117.010368  C8      -C7      -C6      : 118.525297
 C23     -C7      -C6      : 120.659423  C23     -C7      -C8      : 120.813956
 C9      -C8      -C7      : 121.662370  H24     -C8      -C7      : 118.980496
 H24     -C8      -C9      : 119.350189  C10     -C9      -C8      : 120.217664
 H25     -C9      -C8      : 119.621459  H25     -C9      -C10     : 120.135741
 C11     -C10     -C9      : 119.292416  H26     -C10     -C9      : 120.771267
 H26     -C10     -C11     : 119.934278  C10     -C11     -C6      : 121.205670
 H27     -C11     -C6      : 118.574461  H27     -C11     -C10     : 119.871667
 C6      -C12     -C3      : 125.868320  C13     -C12     -C3      : 119.241205
 C13     -C12     -C6      : 114.642456  C14     -C13     -C12     : 121.681917
 H28     -C13     -C12     : 118.300364  H28     -C13     -C14     : 120.001924
 C15     -C14     -C13     : 119.211494  H29     -C14     -C13     : 120.129775
 H29     -C14     -C15     : 120.647280  C16     -C15     -C14     : 119.700493
 H30     -C15     -C14     : 120.590161  H30     -C15     -C16     : 119.709256
 C15     -C16     -C3      : 121.772512  H31     -C16     -C3      : 120.064178
 H31     -C16     -C15     : 118.163308  H32     -C17     -C4      : 113.802120
 H33     -C17     -C4      : 108.590270  H33     -C17     -H32     : 107.768600
 H34     -C17     -C4      : 111.447134  H34     -C17     -H32     : 107.612380
 H34     -C17     -H33     : 107.372197  H35     -C18     -C4      : 112.157146
 H36     -C18     -C4      : 111.531550  H36     -C18     -H35     : 108.030870
 H37     -C18     -C4      : 109.224485  H37     -C18     -H35     : 108.229542
 H37     -C18     -H36     : 107.506584  H38     -C19     -C4      : 112.651550
 H39     -C19     -C4      : 108.216104  H39     -C19     -H38     : 107.044990
 H40     -C19     -C4      : 112.466231  H40     -C19     -H38     : 108.869079
 H40     -C19     -H39     : 107.311233  H41     -C20     -C5      : 111.595152
 H42     -C20     -C5      : 111.544999  H42     -C20     -H41     : 108.590750
 H43     -C20     -C5      : 109.210176  H43     -C20     -H41     : 107.694029
 H43     -C20     -H42     : 108.068860  H44     -C21     -C5      : 112.564773
 H45     -C21     -C5      : 108.011758  H45     -C21     -H44     : 107.029085
 H46     -C21     -C5      : 112.791363  H46     -C21     -H44     : 109.134267
 H46     -C21     -H45     : 106.989591  H47     -C22     -C5      : 113.389320
 H48     -C22     -C5      : 111.691431  H48     -C22     -H47     : 108.572644
 H49     -C22     -C5      : 108.133969  H49     -C22     -H47     : 107.582901
 H49     -C22     -H48     : 107.209921  H50     -C23     -C7      : 112.031898
 H51     -C23     -C7      : 110.361226  H51     -C23     -H50     : 107.037558
 H52     -C23     -C7      : 111.055145  H52     -C23     -H50     : 108.176999
 H52     -C23     -H51     : 108.003363  C105    -O3      -Pd2     : 132.915608
 C106    -C105    -O3      : 105.183829  C107    -C105    -O3      : 111.837892
 C107    -C105    -C106    : 108.783853  C108    -C105    -O3      : 113.147775
 C108    -C105    -C106    : 107.219897  C108    -C105    -C107    : 110.349283
 H109    -C106    -C105    : 111.905044  H110    -C106    -C105    : 109.497930
 H110    -C106    -H109    : 108.709319  H111    -C106    -C105    : 109.801545
 H111    -C106    -H109    : 108.716946  H111    -C106    -H110    : 108.125743
 H115    -C107    -C105    : 111.118321  H116    -C107    -C105    : 109.138821
 H116    -C107    -H115    : 108.480131  H117    -C107    -C105    : 111.785003
 H117    -C107    -H115    : 108.241132  H117    -C107    -H116    : 107.972281
 H112    -C108    -C105    : 111.834398  H113    -C108    -C105    : 109.300437
 H113    -C108    -H112    : 110.340557  H114    -C108    -C105    : 109.237972
 H114    -C108    -H112    : 108.771536  H114    -C108    -H113    : 107.238936
 
  torsional angles:
 
 P1      -Pd2     -C76     -C75     :  95.366300
 P1      -Pd2     -C76     -C77     : -90.564734
 P1      -Pd2     -O3      -C105    : 169.152175
 P1      -C3      -C12     -C6      : -11.688934
 P1      -C3      -C12     -C13     : 174.355119
 P1      -C3      -C16     -C15     :-174.555947
 P1      -C3      -C16     -H31     :   5.426194
 P1      -C4      -C17     -H32     :  43.002074
 P1      -C4      -C17     -H33     : 163.019715
 P1      -C4      -C17     -H34     : -78.908144
 P1      -C4      -C18     -H35     : -57.352958
 P1      -C4      -C18     -H36     :  63.975903
 P1      -C4      -C18     -H37     :-177.334425
 P1      -C4      -C19     -H38     :  61.456165
 P1      -C4      -C19     -H39     : 179.601961
 P1      -C4      -C19     -H40     : -62.033654
 P1      -C5      -C20     -H41     : -60.190709
 P1      -C5      -C20     -H42     :  61.471517
 P1      -C5      -C20     -H43     :-179.142536
 P1      -C5      -C21     -H44     :  67.312623
 P1      -C5      -C21     -H45     :-174.744655
 P1      -C5      -C21     -H46     : -56.716930
 P1      -C5      -C22     -H47     : -41.391392
 P1      -C5      -C22     -H48     :  81.668318
 P1      -C5      -C22     -H49     :-160.599600
 Pd2     -P1      -C3      -C12     :   4.101926
 Pd2     -P1      -C3      -C16     :-179.285700
 Pd2     -P1      -C4      -C17     : -45.900275
 Pd2     -P1      -C4      -C18     :  71.613643
 Pd2     -P1      -C4      -C19     :-169.106608
 Pd2     -P1      -C5      -C20     : -46.344750
 Pd2     -P1      -C5      -C21     :-164.488863
 Pd2     -P1      -C5      -C22     :  71.696675
 Pd2     -C76     -C75     -C74     : 178.110774
 Pd2     -C76     -C75     -H14     :  -2.098239
 Pd2     -C76     -C77     -C78     :-177.939525
 Pd2     -C76     -C77     -H82     :  -1.299630
 Pd2     -O3      -C105    -C106    : 156.252220
 Pd2     -O3      -C105    -C107    : -85.830481
 Pd2     -O3      -C105    -C108    :  39.532206
 C73     -C74     -C75     -C76     :  -1.397077
 C73     -C74     -C75     -H14     : 178.808624
 C73     -C78     -C77     -C76     :   1.152117
 C73     -C78     -C77     -H82     :-175.559093
 C74     -C73     -C78     -C77     :   1.490947
 C74     -C73     -C78     -H83     :-177.851540
 C74     -C75     -C76     -C77     :   3.956202
 C75     -C74     -C73     -C78     :  -1.366985
 C75     -C74     -C73     -F79     : 179.324331
 C75     -C76     -Pd2     -O3      : -84.815510
 C75     -C76     -C77     -C78     :  -3.824656
 C75     -C76     -C77     -H82     : 172.815239
 C76     -Pd2     -P1      -C3      : 179.312458
 C76     -Pd2     -P1      -C4      :  63.914507
 C76     -Pd2     -P1      -C5      : -67.232385
 C76     -Pd2     -O3      -C105    : -10.056344
 C76     -C75     -C74     -H80     : 179.175232
 C76     -C77     -C78     -H83     :-179.518299
 C77     -C76     -Pd2     -O3      :  89.253455
 C77     -C76     -C75     -H14     :-176.252811
 C77     -C78     -C73     -F79     :-179.200449
 C78     -C73     -C74     -H80     : 178.071861
 F79     -C73     -C74     -H80     :  -1.236823
 F79     -C73     -C78     -H83     :   1.457065
 H80     -C74     -C75     -H14     :  -0.619067
 H82     -C77     -C78     -H83     :   3.770491
 C3      -P1      -Pd2     -O3      :   0.101567
 C3      -P1      -C4      -C17     :-162.747434
 C3      -P1      -C4      -C18     : -45.233515
 C3      -P1      -C4      -C19     :  74.046234
 C3      -P1      -C5      -C20     :  68.788558
 C3      -P1      -C5      -C21     : -49.355555
 C3      -P1      -C5      -C22     :-173.170017
 C3      -C12     -C6      -C7      : 122.400319
 C3      -C12     -C6      -C11     : -78.588051
 C3      -C12     -C13     -C14     :   0.848637
 C3      -C12     -C13     -H28     : 179.402259
 C3      -C16     -C15     -C14     :  -0.134658
 C3      -C16     -C15     -H30     : 179.756941
 C4      -P1      -Pd2     -O3      :-115.296384
 C4      -P1      -C3      -C12     : 128.401489
 C4      -P1      -C3      -C16     : -54.986137
 C4      -P1      -C5      -C20     : 179.134930
 C4      -P1      -C5      -C21     :  60.990818
 C4      -P1      -C5      -C22     : -62.823645
 C5      -P1      -Pd2     -O3      : 113.556724
 C5      -P1      -C3      -C12     :-116.497452
 C5      -P1      -C3      -C16     :  60.114922
 C5      -P1      -C4      -C17     :  87.032994
 C5      -P1      -C4      -C18     :-155.453087
 C5      -P1      -C4      -C19     : -36.173339
 C6      -C7      -C8      -C9      :   0.232392
 C6      -C7      -C8      -H24     : 179.267178
 C6      -C7      -C23     -H50     :  63.778634
 C6      -C7      -C23     -H51     : -55.386681
 C6      -C7      -C23     -H52     :-175.130888
 C6      -C11     -C10     -C9      :  -0.717479
 C6      -C11     -C10     -H26     : 179.797918
 C6      -C12     -C3      -C16     : 171.558717
 C6      -C12     -C13     -C14     :-173.764768
 C6      -C12     -C13     -H28     :   4.788853
 C7      -C6      -C11     -C10     :   3.032569
 C7      -C6      -C11     -H27     : 176.247528
 C7      -C6      -C12     -C13     : -63.401129
 C7      -C8      -C9      -C10     :   2.119056
 C7      -C8      -C9      -H25     :-179.701933
 C8      -C7      -C6      -C11     :  -2.747369
 C8      -C7      -C6      -C12     : 155.853443
 C8      -C7      -C23     -H50     :-115.796648
 C8      -C7      -C23     -H51     : 125.038037
 C8      -C7      -C23     -H52     :   5.293829
 C8      -C9      -C10     -C11     :  -1.861555
 C8      -C9      -C10     -H26     : 177.618619
 C9      -C8      -C7      -C23     : 179.816566
 C9      -C10     -C11     -H27     :-173.845538
 C10     -C9      -C8      -H24     :-176.912247
 C10     -C11     -C6      -C12     :-156.326188
 C11     -C6      -C7      -C23     : 177.667791
 C11     -C6      -C12     -C13     :  95.610501
 C11     -C10     -C9      -H25     : 179.968852
 C12     -C3      -C16     -C15     :   2.081753
 C12     -C3      -C16     -H31     :-177.936106
 C12     -C6      -C7      -C23     : -23.731397
 C12     -C6      -C11     -H27     :  16.888771
 C12     -C13     -C14     -C15     :   1.119858
 C12     -C13     -C14     -H29     : 179.896935
 C13     -C12     -C3      -C16     :  -2.397230
 C13     -C14     -C15     -C16     :  -1.470776
 C13     -C14     -C15     -H30     : 178.638597
 C14     -C15     -C16     -H31     : 179.882874
 C15     -C14     -C13     -H28     :-177.409597
 C16     -C15     -C14     -H29     : 179.758643
 C17     -C4      -C18     -H35     :  62.080893
 C17     -C4      -C18     -H36     :-176.590246
 C17     -C4      -C18     -H37     : -57.900574
 C17     -C4      -C19     -H38     : -63.563768
 C17     -C4      -C19     -H39     :  54.582029
 C17     -C4      -C19     -H40     : 172.946413
 C18     -C4      -C17     -H32     : -72.872382
 C18     -C4      -C17     -H33     :  47.145259
 C18     -C4      -C17     -H34     : 165.217400
 C18     -C4      -C19     -H38     : 179.439911
 C18     -C4      -C19     -H39     : -62.414293
 C18     -C4      -C19     -H40     :  55.950092
 C19     -C4      -C17     -H32     : 170.361812
 C19     -C4      -C17     -H33     : -69.620548
 C19     -C4      -C17     -H34     :  48.451594
 C19     -C4      -C18     -H35     : 178.706754
 C19     -C4      -C18     -H36     : -59.964385
 C19     -C4      -C18     -H37     :  58.725287
 C20     -C5      -C21     -H44     : -48.654675
 C20     -C5      -C21     -H45     :  69.288047
 C20     -C5      -C21     -H46     :-172.684228
 C20     -C5      -C22     -H47     :  72.870057
 C20     -C5      -C22     -H48     :-164.070233
 C20     -C5      -C22     -H49     : -46.338151
 C21     -C5      -C20     -H41     :  63.653177
 C21     -C5      -C20     -H42     :-174.684597
 C21     -C5      -C20     -H43     : -55.298650
 C21     -C5      -C22     -H47     :-169.804960
 C21     -C5      -C22     -H48     : -46.745251
 C21     -C5      -C22     -H49     :  70.986831
 C22     -C5      -C20     -H41     :-178.887540
 C22     -C5      -C20     -H42     : -57.225313
 C22     -C5      -C20     -H43     :  62.160634
[...]
    H112     X     0.00152  -0.00083   0.00025   0.00009   0.00017   0.00102
    H112     Y     0.00051  -0.00023   0.00009   0.00004   0.00019   0.00038
    H112     Z     0.00146  -0.00098   0.00030   0.00006  -0.00025   0.00065
    H113     X    -0.00226  -0.00039  -0.00011  -0.00036  -0.00289  -0.00195
    H113     Y    -0.00811  -0.00191  -0.00033  -0.00130  -0.01044  -0.00730
    H113     Z     0.01012   0.00218   0.00039   0.00152   0.01317   0.00953
    H114     X    -0.00341  -0.00425  -0.00017  -0.00136  -0.00653   0.00053
    H114     Y     0.00066   0.00081   0.00003   0.00033   0.00119   0.00009
    H114     Z     0.00091   0.00159   0.00004   0.00043   0.00209  -0.00051
    H115     X     0.00216   0.00106   0.00036   0.00095   0.00073  -0.00016
    H115     Y     0.00061   0.00029   0.00009   0.00039   0.00032   0.00008
    H115     Z     0.00232   0.00116   0.00037   0.00108   0.00077  -0.00012
    H116     X     0.00025   0.00020  -0.00006  -0.00045   0.00020   0.00014
    H116     Y    -0.00543  -0.00417   0.00036   0.00400  -0.00489  -0.00185
    H116     Z    -0.00164  -0.00121   0.00009   0.00118  -0.00135  -0.00053
    H117     X    -0.00367  -0.00249  -0.00006   0.00003  -0.00292  -0.00094
    H117     Y    -0.00980  -0.00656  -0.00016   0.00032  -0.00783  -0.00268
    H117     Z     0.01290   0.00874   0.00018  -0.00033   0.01060   0.00365
  
  vibration #          223       224       225
                 --------- --------- ---------
  frequencies      3224.18   3224.85   3267.98
  intensities         0.65     14.11      5.64
  reduc. mass         0.69      0.39      0.90
  force const         4.20      2.40      5.65
    P1       X    -0.00002   0.00001   0.00001
    P1       Y     0.00011   0.00001   0.00001
    P1       Z    -0.00003  -0.00000  -0.00012
    Pd2      X    -0.00000   0.00001  -0.00000
    Pd2      Y     0.00001   0.00002  -0.00001
    Pd2      Z    -0.00000  -0.00000   0.00000
    C73      X     0.00011  -0.00000   0.00000
    C73      Y     0.00072   0.00005   0.00001
    C73      Z    -0.00003   0.00000   0.00000
    C74      X    -0.00665  -0.00036  -0.00002
    C74      Y     0.00438   0.00025   0.00001
    C74      Z     0.00230   0.00011   0.00001
    C75      X    -0.00829  -0.00045  -0.00002
    C75      Y    -0.00464  -0.00027  -0.00002
    C75      Z     0.00227   0.00008   0.00000
    C76      X     0.00029  -0.00002   0.00000
    C76      Y    -0.00079  -0.00000   0.00003
    C76      Z     0.00054   0.00001  -0.00000
    C77      X     0.00621   0.00048   0.00002
    C77      Y    -0.00362  -0.00031  -0.00002
    C77      Z    -0.00099  -0.00012  -0.00000
    C78      X     0.00480   0.00039   0.00002
    C78      Y     0.00267   0.00023   0.00001
    C78      Z    -0.00063  -0.00005  -0.00000
    F79      X    -0.00001  -0.00000  -0.00000
    F79      Y    -0.00016  -0.00001  -0.00001
    F79      Z    -0.00002  -0.00000   0.00000
    H80      X     0.07379   0.00409   0.00023
    H80      Y    -0.04802  -0.00267  -0.00017
    H80      Z    -0.02412  -0.00131  -0.00008
    H82      X    -0.06743  -0.00534  -0.00017
    H82      Y     0.04049   0.00323   0.00012
    H82      Z     0.01697   0.00146   0.00004
    H83      X    -0.05279  -0.00442  -0.00026
    H83      Y    -0.02990  -0.00254  -0.00016
    H83      Z     0.00660   0.00057   0.00003
    H14      X     0.09364   0.00511   0.00018
    H14      Y     0.05151   0.00282   0.00012
    H14      Z    -0.01900  -0.00094  -0.00005
    C3       X     0.00002  -0.00000   0.00035
    C3       Y    -0.00001   0.00002   0.00104
    C3       Z     0.00002   0.00005   0.00246
    C4       X     0.00003   0.00000  -0.00003
    C4       Y    -0.00002  -0.00003  -0.00004
    C4       Z     0.00006  -0.00001  -0.00008
    C5       X    -0.00026  -0.00001  -0.00003
    C5       Y    -0.00037  -0.00001  -0.00008
    C5       Z     0.00060  -0.00000  -0.00006
    C6       X     0.00001  -0.00077   0.00003
    C6       Y     0.00003   0.00036   0.00004
    C6       Z    -0.00001  -0.00078   0.00003
    C7       X    -0.00001  -0.00036  -0.00003
    C7       Y     0.00000   0.00028   0.00001
    C7       Z     0.00002  -0.00092  -0.00003
    C8       X     0.00012  -0.01562  -0.00002
    C8       Y    -0.00002   0.00316  -0.00000
    C8       Z    -0.00007   0.00826   0.00003
    C9       X     0.00000  -0.00002  -0.00001
    C9       Y     0.00011  -0.01321  -0.00000
    C9       Z    -0.00055   0.06338   0.00005
    C10      X    -0.00028   0.04077   0.00005
    C10      Y     0.00010  -0.01454  -0.00002
    C10      Z    -0.00011   0.01779   0.00002
    C11      X    -0.00009   0.02102   0.00004
    C11      Y     0.00003  -0.00428  -0.00001
    C11      Z     0.00010  -0.01779  -0.00004
    C12      X    -0.00000   0.00007  -0.00026
    C12      Y    -0.00001  -0.00008  -0.00047
    C12      Z    -0.00003  -0.00004   0.00048
    C13      X     0.00003  -0.00008  -0.00036
    C13      Y     0.00006  -0.00011  -0.00057
    C13      Z    -0.00006   0.00030   0.00094
    C14      X     0.00000  -0.00023  -0.00088
    C14      Y     0.00001  -0.00043  -0.00157
    C14      Z     0.00001  -0.00016   0.00042
    C15      X    -0.00001  -0.00000  -0.00185
    C15      Y    -0.00001  -0.00004  -0.00506
    C15      Z    -0.00004  -0.00017  -0.01058
    C16      X     0.00010  -0.00005   0.03033
    C16      Y     0.00016  -0.00006   0.04790
    C16      Z    -0.00019   0.00010  -0.05950
    C17      X     0.00027   0.00000  -0.00000
    C17      Y     0.00016   0.00003   0.00001
    C17      Z     0.00258   0.00005  -0.00005
    C18      X    -0.00003  -0.00021   0.00006
    C18      Y     0.00004  -0.00059  -0.00008
    C18      Z     0.00002  -0.00001  -0.00009
    C19      X     0.00003   0.00003  -0.00068
    C19      Y    -0.00005   0.00000  -0.00078
    C19      Z     0.00007   0.00001  -0.00031
    C20      X     0.00030  -0.00001  -0.00006
    C20      Y     0.00008   0.00006  -0.00005
    C20      Z     0.00060  -0.00002  -0.00014
    C21      X     0.00054   0.00003  -0.00265
    C21      Y     0.00001   0.00004  -0.00289
    C21      Z    -0.00016  -0.00001  -0.00010
    C22      X     0.00363   0.00004  -0.00001
    C22      Y     0.00301   0.00003   0.00001
    C22      Z     0.08426   0.00048  -0.00022
    C23      X     0.00002  -0.00028  -0.00001
    C23      Y     0.00002  -0.00007  -0.00001
    C23      Z    -0.00006   0.00010  -0.00000
    H24      X    -0.00120   0.15208   0.00035
    H24      Y     0.00020  -0.02657  -0.00005
    H24      Z     0.00081  -0.10420  -0.00029
    H25      X     0.00014  -0.01498  -0.00001
    H25      Y    -0.00129   0.14765   0.00011
    H25      Z     0.00608  -0.70330  -0.00051
    H26      X     0.00299  -0.43521  -0.00058
    H26      Y    -0.00109   0.15756   0.00021
    H26      Z     0.00141  -0.20609  -0.00032
    H27      X     0.00119  -0.24220  -0.00025
    H27      Y    -0.00027   0.05407   0.00008
    H27      Z    -0.00092   0.18068   0.00027
    H28      X    -0.00039   0.00110   0.00381
    H28      Y    -0.00065   0.00166   0.00648
    H28      Z     0.00074  -0.00236  -0.00804
    H29      X    -0.00005   0.00254   0.00653
    H29      Y    -0.00010   0.00494   0.01250
    H29      Z    -0.00004   0.00145   0.00236
    H30      X     0.00002   0.00011   0.00816
    H30      Y     0.00010   0.00047   0.03148
    H30      Z     0.00040   0.00196   0.10782
    H31      X    -0.00122   0.00049  -0.34884
    H31      Y    -0.00187   0.00082  -0.55425
    H31      Z     0.00230  -0.00089   0.68220
    H32      X     0.00341   0.00015  -0.00012
    H32      Y    -0.00946  -0.00031   0.00051
    H32      Z    -0.01261  -0.00043   0.00053
    H33      X    -0.00139  -0.00016  -0.00037
    H33      Y     0.00014  -0.00000  -0.00016
    H33      Z     0.00008   0.00002   0.00003
    H34      X    -0.01017  -0.00010   0.00014
    H34      Y     0.01049   0.00009  -0.00024
    H34      Z    -0.01921  -0.00022   0.00033
    H35      X     0.00003  -0.00021  -0.00010
    H35      Y    -0.00028   0.00009   0.00054
    H35      Z    -0.00048   0.00102   0.00081
    H36      X    -0.00005   0.00255   0.00017
    H36      Y    -0.00033   0.00801   0.00040
    H36      Z     0.00007  -0.00128  -0.00013
    H37      X     0.00039   0.00069  -0.00058
    H37      Y     0.00002  -0.00012  -0.00003
    H37      Z    -0.00004  -0.00028   0.00020
    H38      X    -0.00049  -0.00011   0.00942
    H38      Y     0.00027   0.00011  -0.00380
    H38      Z    -0.00077  -0.00020   0.00913
    H39      X     0.00013  -0.00030   0.00706
    H39      Y    -0.00001  -0.00005   0.00199
    H39      Z    -0.00003   0.00008  -0.00101
    H40      X    -0.00001   0.00003   0.00171
    H40      Y     0.00008  -0.00009   0.01422
    H40      Z    -0.00011   0.00003  -0.00171
    H41      X    -0.00023  -0.00019   0.00026
    H41      Y    -0.00032  -0.00047   0.00103
    H41      Z    -0.00057  -0.00014  -0.00010
    H42      X     0.00086   0.00003   0.00006
    H42      Y    -0.00064   0.00011   0.00042
    H42      Z    -0.00775   0.00014   0.00133
    H43      X    -0.00165   0.00020   0.00053
    H43      Y     0.00157  -0.00022  -0.00060
    H43      Z    -0.00069   0.00016   0.00027
    H44      X    -0.00325  -0.00025   0.01925
    H44      Y    -0.00565  -0.00039   0.03694
    H44      Z    -0.00223  -0.00013   0.00980
    H45      X    -0.00286   0.00011  -0.00339
    H45      Y     0.00253  -0.00016   0.00628
    H45      Z    -0.00234   0.00005  -0.00166
    H46      X    -0.00149  -0.00021   0.01051
    H46      Y    -0.00050   0.00001   0.00104
    H46      Z     0.00020   0.00011  -0.00591
    H47      X    -0.21714  -0.00129   0.00076
    H47      Y    -0.16681  -0.00099   0.00067
    H47      Z    -0.82594  -0.00490   0.00268
    H48      X     0.25691   0.00125  -0.00068
    H48      Y     0.07710   0.00037  -0.00018
    H48      Z    -0.18407  -0.00089   0.00051
    H49      X    -0.08106  -0.00045   0.00049
    H49      Y     0.05747   0.00030  -0.00054
    H49      Z    -0.01181  -0.00007   0.00010
    H50      X     0.00011   0.00083   0.00003
    H50      Y     0.00027   0.00038   0.00004
    H50      Z     0.00049   0.00171   0.00021
    H51      X     0.00000   0.00044   0.00000
    H51      Y    -0.00038  -0.00067   0.00011
    H51      Z    -0.00008   0.00032   0.00001
    H52      X    -0.00027   0.00329   0.00017
    H52      Y    -0.00012   0.00066   0.00004
    H52      Z     0.00024  -0.00183  -0.00013
    O3       X    -0.00001  -0.00005  -0.00000
    O3       Y    -0.00001  -0.00001   0.00000
    O3       Z     0.00000  -0.00012  -0.00002
    C105     X     0.00001   0.00011   0.00002
    C105     Y    -0.00001  -0.00004   0.00001
    C105     Z    -0.00000   0.00013   0.00002
    C106     X     0.00000   0.00024   0.00001
    C106     Y    -0.00000  -0.00162   0.00001
    C106     Z    -0.00000  -0.00064   0.00001
    C107     X     0.00002  -0.00004   0.00001
    C107     Y     0.00008  -0.00059   0.00001
    C107     Z    -0.00008   0.00007   0.00001
    C108     X     0.00003  -0.00000   0.00001
    C108     Y     0.00010  -0.00009   0.00000
    C108     Z    -0.00014   0.00020   0.00001
    H109     X    -0.00001   0.00345  -0.00016
    H109     Y    -0.00000   0.00235  -0.00007
    H109     Z    -0.00002   0.00392  -0.00022
    H110     X    -0.00007  -0.00084  -0.00003
    H110     Y    -0.00000  -0.00057   0.00000
    H110     Z     0.00004  -0.00003   0.00003
    H111     X     0.00000  -0.00462   0.00003
    H111     Y     0.00005   0.01907  -0.00007
    H111     Z     0.00000   0.00356  -0.00000
    H112     X     0.00017  -0.00078  -0.00012
    H112     Y     0.00008  -0.00038  -0.00006
    H112     Z     0.00008  -0.00097  -0.00015
    H113     X    -0.00037   0.00052   0.00000
    H113     Y    -0.00137   0.00172  -0.00001
    H113     Z     0.00171  -0.00189   0.00001
    H114     X    -0.00018  -0.00004   0.00001
    H114     Y     0.00006   0.00004   0.00001
    H114     Z     0.00000   0.00009   0.00000
    H115     X    -0.00001  -0.00007  -0.00017
    H115     Y     0.00002   0.00006  -0.00003
    H115     Z    -0.00001   0.00014  -0.00016
    H116     X     0.00001  -0.00056   0.00003
    H116     Y    -0.00026   0.00476  -0.00007
    H116     Z    -0.00006   0.00184  -0.00002
    H117     X    -0.00026   0.00088   0.00001
    H117     Y    -0.00078   0.00261  -0.00000
    H117     Z     0.00100  -0.00304   0.00002
  
  Number of imaginary frequencies:   0
   
  Writing vibrational animation data to L_Ar_OtBu_PL154.vib
  Writing IR vibrational spectrum data to L_Ar_OtBu_PL154_vib.spm
  rotational symmetry number:  1

  rotational temperatures (K):      0.006739      0.005149      0.003775
   
  The Quasi-Harmonic approximation will be applied to compute
  vibrational constributions to thermodynamic properties.
  Frequencies will be adjusted to a minimum value of  100.00 cm^-1.

  vibrational temperatures:
       mode:      1        2        3        4        5        6
  temp. (K):   143.88   143.88   143.88   143.88   143.88   143.88
   
       mode:      7        8        9       10       11       12
  temp. (K):   143.88   143.88   143.88   143.88   143.88   151.11
   
       mode:     13       14       15       16       17       18
  temp. (K):   164.66   175.65   182.61   202.18   204.96   224.15
   
       mode:     19       20       21       22       23       24
  temp. (K):   231.24   240.37   262.82   271.30   285.06   294.32
   
       mode:     25       26       27       28       29       30
  temp. (K):   306.39   334.66   336.66   353.81   358.54   365.74
   
       mode:     31       32       33       34       35       36
  temp. (K):   380.73   382.65   401.83   408.22   423.80   426.81
   
       mode:     37       38       39       40       41       42
  temp. (K):   442.21   461.27   474.40   479.64   493.81   506.42
   
       mode:     43       44       45       46       47       48
  temp. (K):   515.20   525.02   531.78   545.44   554.18   569.25
   
       mode:     49       50       51       52       53       54
  temp. (K):   584.82   588.61   592.15   599.45   617.07   623.59
   
       mode:     55       56       57       58       59       60
  temp. (K):   633.81   665.79   677.17   694.47   703.14   738.75
   
       mode:     61       62       63       64       65       66
  temp. (K):   744.64   764.72   769.58   798.02   835.43   841.10
   
       mode:     67       68       69       70       71       72
  temp. (K):   843.13   855.13   886.64   909.82   914.25   990.00
   
       mode:     73       74       75       76       77       78
  temp. (K):  1026.34  1050.01  1089.80  1109.21  1110.35  1115.25
   
       mode:     79       80       81       82       83       84
  temp. (K):  1151.96  1186.24  1194.59  1197.87  1199.38  1204.27
   
       mode:     85       86       87       88       89       90
  temp. (K):  1210.39  1285.01  1302.28  1310.99  1318.07  1370.16
   
       mode:     91       92       93       94       95       96
  temp. (K):  1373.36  1378.07  1381.40  1385.82  1387.85  1392.09
   
       mode:     97       98       99      100      101      102
  temp. (K):  1400.08  1414.27  1417.96  1425.03  1439.22  1452.28
   
       mode:    103      104      105      106      107      108
  temp. (K):  1465.87  1474.44  1476.45  1481.10  1504.94  1512.41
   
       mode:    109      110      111      112      113      114
  temp. (K):  1513.85  1515.55  1517.94  1523.40  1531.56  1539.88
   
       mode:    115      116      117      118      119      120
  temp. (K):  1562.83  1565.96  1597.15  1619.26  1661.69  1680.52
   
       mode:    121      122      123      124      125      126
  temp. (K):  1721.09  1742.53  1743.28  1743.63  1750.22  1771.55
   
       mode:    127      128      129      130      131      132
  temp. (K):  1776.33  1782.92  1787.25  1789.30  1797.34  1798.26
   
       mode:    133      134      135      136      137      138
  temp. (K):  1816.82  1841.09  1848.90  1876.69  1898.01  1900.47
   
       mode:    139      140      141      142      143      144
  temp. (K):  1928.88  1955.15  1976.31  2016.37  2020.93  2044.17
   
       mode:    145      146      147      148      149      150
  temp. (K):  2048.42  2051.31  2052.77  2057.58  2058.26  2065.21
   
       mode:    151      152      153      154      155      156
  temp. (K):  2091.87  2104.32  2116.89  2136.88  2154.96  2155.46
   
       mode:    157      158      159      160      161      162
  temp. (K):  2161.47  2163.69  2166.63  2172.82  2175.05  2177.08
   
       mode:    163      164      165      166      167      168
  temp. (K):  2178.27  2181.35  2187.09  2190.19  2194.68  2197.01
   
       mode:    169      170      171      172      173      174
  temp. (K):  2199.87  2201.76  2205.68  2209.35  2214.33  2221.43
   
       mode:    175      176      177      178      179      180
  temp. (K):  2222.40  2228.08  2245.04  2343.70  2349.13  2360.80
   
       mode:    181      182      183      184      185      186
  temp. (K):  2374.53  2380.28  2394.71  4372.82  4373.36  4376.58
   
       mode:    187      188      189      190      191      192
  temp. (K):  4380.27  4381.44  4384.53  4389.25  4389.80  4399.82
   
       mode:    193      194      195      196      197      198
  temp. (K):  4407.60  4478.98  4479.53  4482.29  4484.50  4486.48
   
       mode:    199      200      201      202      203      204
  temp. (K):  4490.52  4494.11  4497.57  4507.89  4514.49  4525.04
   
       mode:    205      206      207      208      209      210
  temp. (K):  4530.88  4532.78  4533.43  4534.57  4539.84  4549.25
   
       mode:    211      212      213      214      215      216
  temp. (K):  4574.21  4580.82  4585.98  4586.88  4600.97  4602.52
   
       mode:    217      218      219      220      221      222
  temp. (K):  4604.84  4607.68  4622.02  4624.16  4628.53  4630.15
   
       mode:    223      224      225
  temp. (K):  4638.87  4639.84  4701.89
   
   
  Thermodynamic properties calculated assuming an ideal gas

  In the table below, the units for temperature
  are kelvins, the units for U, H, and G are
  kcal/mol and the units for Cv and S are cal/(mol K)

  The zero point energy (ZPE):    415.736 kcal/mol
  is not included in U, H, or G in the table below
  
 
  =============================================================================
  Thermodynamic properties for P = 1.00E+00 atm, calculated at   1 temperatures


  T =   298.15 K, P = 1.00E+00 atm
   
                  U         Cv          S          H          G        ln(Q)
              =========  =========  =========  =========  =========  =========
  trans.          0.889      2.981     44.990      1.481    -11.932   20.13961
  rot.            0.889      2.981     36.848      0.889    -10.098   17.04281
  vib.           21.573    142.958    129.187     21.573    -16.945   28.59921
  elec.           0.000      0.000      0.000      0.000      0.000    0.00000
  ----------------------------------------------------------------------------
  total          23.350    148.920    211.025     23.943    -38.975   65.78163
   
   Total internal energy, Utot(SCFE + ZPE + U):   -1848.679509 hartrees
   Total enthalpy, Htot (Utot + nRT), with n=1:   -1848.678565 hartrees
    Total Gibbs free energy, Gtot (Htot - T*S):   -1848.778830 hartrees
   
  end of program freq
   
 Time(freq)  user:       0.990  user+sys:       0.990  wallclock:       0.432
  
  start of program post
  
  Writing input files for PBF
  end of program post
   
 Time(post)  user:       0.315  user+sys:       0.315  wallclock:       0.082

 Total cpu seconds     user:  100541.942   user+sys:  100541.942
  
 Total elapsed time:    12156 seconds

Job L_Ar_OtBu_PL154 completed on bp1-compute129.data.bp.acrc.priv at Tue Nov 25 09:28:00 2025
