Job ox_add_Br_trans_L1_PL154_2 started on bp1-compute064.data.bp.acrc.priv at Wed Apr 23 01:15:30 2025
jobid: bp1-compute064-0-6808311c

  +--------------------------------------------------------------------+
  |  Jaguar version 12.5, release 138                                  |
  |                                                                    |
  |  Copyright Schrodinger, Inc.                                       |
  |  All Rights Reserved.                                              |
  |                                                                    |
  |  The following have contributed to Jaguar (listed alphabetically): |
  |  Ty Balduf, Mike Beachy, Chandler Bennett, Art Bochevarov,         |
  |  Dale Braden, Yixiang Cao, Alan Chien, Chris Cortis,               |
  |  Rich Friesner, Jim Furness, Bill Goddard, Hod Greeley,            |
  |  Tom Hughes, Leif Jacobson, Jean-Marc Langlois, Daniel Levine,     |
  |  Rob Murphy, Dean Philipp, Tom Pollard, Murco Ringnalda,           |
  |  Daniel Mainz, Pablo Videla, Mark Watson, Haoyu Yu.                |
  |                                                                    |
  |  Use of this program should be acknowledged in publications as:    |
  |                                                                    |
  |  Jaguar, version 12.5, Schrodinger, Inc., New York, NY, 2024.      |
  |                                                                    |
  |  A. D. Bochevarov, E. Harder, T. F. Hughes, J. R. Greenwood,       |
  |  D. A. Braden, D. M. Philipp, D. Rinaldo, M. D. Halls,             |
  |  J. Zhang, R. A. Friesner, "Jaguar: A High-Performance Quantum     |
  |  Chemistry Software Program with Strengths in Life and Materials   |
  |  Sciences", Int. J. Quantum Chem., 2013, 113(18), 2110-2142.       |
  +--------------------------------------------------------------------+
  
  start of program pre
  
  Job name: ox_add_Br_trans_L1_PL154_2
  Executables used: /software/local/apps/schrodinger2024-3/jaguar-v12.5/bin/Linux-x86_64
  Temporary files : /tmp/ar21627/ox_add_Br_trans_L1_PL154_2#bp1-compute064-0-6808311c
  Basis file : using default basis file from /software/local/apps/schrodinger2024-3
  Maestro file (input):  ox_add_Br_trans_L1_PL154_2.mae
  Maestro file (output): ox_add_Br_trans_L1_PL154_2.01.mae
  
 Contents of input file: &gen and (if present) &atomic sections only
 ----------------Contents start----------------
&gen
dftname=b3pw91-d3
basis=6-31G*
numd=5
ip11=2
iaccg=3
isolv=2
igeopt=1
solvent=benzene
ifreq=1
&
&atomic
atom basis
Pd2 lacv3p*
Br3 lacv3p*
&
 -----------------Contents end-----------------
 
  PS calculation requested. Using PS version of 6-31g*
  basis set:               non_standard                    
  net molecular charge:    0
  multiplicity:            1
  
  Using up to   4 threads per process
  
  This run will use ECP on            2  atoms
  number of basis functions....          516
  
 Input geometry:
                                   angstroms
  atom               x                 y                 z
  P1            0.0000000000      0.0000000000      0.0000000000 
  Pd2           0.0000000000      0.0000000000      2.3939100518 
  Br3          -2.4356423847     -0.0000000363      2.9438771575 
  C73           1.3099704586      0.1220839619      6.9743739903 
  C74           1.0539546955     -1.1086734959      6.3855515605 
  C75           0.5609059742     -1.1340261724      5.0773016488 
  C76           0.3472548233      0.0530180754      4.3631094256 
  C77           0.5915657855      1.2748483031      5.0022370772 
  C78           1.0813195180      1.3194478893      6.3101427576 
  F79           1.7900114745      0.1569033930      8.2397291806 
  H80           1.2304428507     -2.0212751708      6.9491590222 
  H81           0.3433661041     -2.0960382470      4.6160493344 
  H82           0.4023637691      2.2111601882      4.4813268881 
  H83           1.2800057180      2.2609324633      6.8166244065 
  C3            1.8168740000      0.0000000000     -0.5778410000 
  C4           -0.8434890000      1.4252840000     -0.9715180000 
  C5           -0.8972560000     -1.6587410000     -0.3454820000 
  C6            3.2779502913      0.1829711478      1.5598952293 
  C7            3.4947359870     -0.8344206912      2.5461523718 
  C8            3.7063144766     -0.4896003386      3.9002619363 
  C9            3.7167616963      0.8256733904      4.3720725884 
  C10           3.5036302586      1.8377286177      3.4391647903 
  C11           3.3001743471      1.4820653912      2.1006524067 
  C12           3.0641106319      0.0486615362      0.1421152159 
  C13           4.2112739229     -0.0303148923     -0.6837806851 
  C14           4.2270187251     -0.1410636778     -2.0791395916 
  C15           3.0127345128     -0.1714365588     -2.7565739359 
  C16           1.8525513834     -0.0964939280     -1.9837158764 
  C17          -2.3917700000      1.4641300000     -0.9448800000 
  C18          -0.3788420000      2.8361950000     -0.5323130000 
  C19          -0.4455240000      1.3408580000     -2.4674050000 
  C20          -0.0177960000     -2.8755410000      0.0296550000 
  C21          -1.4453590000     -1.9535040000     -1.7679970000 
  C22          -2.1262300000     -1.7392700000      0.5941800000 
  C23           3.4460550130     -2.3329009006      2.3313435744 
  H24           3.8663173860     -1.2754720698      4.6571890897 
  H25           3.8832774449      1.0573379860      5.4375444169 
  H26           3.5041761856      2.8961711965      3.7509059951 
  H27           3.1815054813      2.3338536604      1.4437350674 
  H28           5.2234472063      0.0359531173     -0.2879350038 
  H29           5.1759514685     -0.1887892853     -2.6410444140 
  H30           2.9733751409     -0.2491535154     -3.8564377912 
  H31           0.9264339432     -0.1208070489     -2.5613689489 
  H32          -2.8081380000      1.6140360000      0.0705490000 
  H33          -2.7931410000      2.3029860000     -1.5580800000 
  H34          -2.8583580000      0.5482850000     -1.3582140000 
  H35          -0.6553110000      3.0576040000      0.5218020000 
  H36           0.7195950000      2.9676930000     -0.6585650000 
  H37          -0.8498760000      3.6399150000     -1.1432090000 
  H38          -0.7462210000      0.3798070000     -2.9348810000 
  H39          -0.9210170000      2.1442960000     -3.0752880000 
  H40           0.6524840000      1.4549820000     -2.6096750000 
  H41           0.9648250000     -2.8622550000     -0.4905250000 
  H42           0.1711760000     -2.9295420000      1.1223420000 
  H43          -0.5069560000     -3.8419160000     -0.2300880000 
  H44          -0.6634350000     -2.0908620000     -2.5422720000 
  H45          -2.0275400000     -2.9029450000     -1.7892070000 
  H46          -2.1492470000     -1.1796830000     -2.1325550000 
  H47          -1.8356470000     -1.6862910000      1.6668530000 
  H48          -2.8513880000     -0.9189660000      0.4051340000 
  H49          -2.6842430000     -2.6960970000      0.4765580000 
  H50           4.4206650806     -2.7314912348      1.9679693980 
  H51           2.5857148248     -2.6342626495      1.6917946774 
  H52           3.2444703505     -2.8892121557      3.2745177715 
   
  principal moments of inertia:
        amu*angstrom^2:              3293.55108              4973.53714              6733.31903
                g*cm^2:          5.46906956E-37          8.25875169E-37          1.11809379E-36
   
  rotational constants:
               cm^(-1):      0.00511837      0.00338946      0.00250361
                   GHz:      0.15344502      0.10161360      0.07505645
   
  Molecular weight:     592.05 amu
   
  Stoichiometry: PdC27PH33BrF
  Molecular Point Group: C1      
  Point Group used: C1
  
 
Number of optimization coordinates:   211
Number of independent coordinates:    211
Number of non-redundant coordinates:  186
Number of frozen coordinates:           0
Number of harmonic constraints:         0
 
Number of geometric degrees of freedom:   186
Maximum geometric degrees of freedom:     186
 " " " " " excluding dummy atoms:         186
 
 
  bond lengths (angstroms):
 
 P1      -Pd2     :   2.393910      P1      -C3      :   1.906550
 P1      -C4      :   1.920093      P1      -C5      :   1.917250
 Pd2     -Br3     :   2.496962      Pd2     -C76     :   2.000286
 C73     -C74     :   1.388171      C73     -C78     :   1.388224
 C73     -F79     :   1.353800      C74     -C75     :   1.398305
 C74     -H80     :   1.087034      C75     -C76     :   1.401710
 C75     -H81     :   1.088827      C76     -C77     :   1.400372
 C77     -C78     :   1.397306      C77     -H82     :   1.088037
 C78     -H83     :   1.087379      C3      -C12     :   1.440939
 C3      -C16     :   1.409634      C4      -C17     :   1.548997
 C4      -C18     :   1.549022      C4      -C19     :   1.550220
 C5      -C20     :   1.547508      C5      -C21     :   1.552692
 C5      -C22     :   1.549137      C6      -C7      :   1.433452
 C6      -C11     :   1.407323      C6      -C12     :   1.440093
 C7      -C8      :   1.413251      C7      -C23     :   1.514581
 C8      -C9      :   1.397376      C8      -H24     :   1.102785
 C9      -C10     :   1.392838      C9      -H25     :   1.103008
 C10     -C11     :   1.399824      C10     -H26     :   1.103396
 C11     -H27     :   1.082204      C12     -C13     :   1.415742
 C13     -C14     :   1.399836      C13     -H28     :   1.088843
 C14     -C15     :   1.390800      C14     -H29     :   1.103851
 C15     -C16     :   1.396048      C15     -H30     :   1.103308
 C16     -H31     :   1.091773      C17     -H32     :   1.107669
 C17     -H33     :   1.113909      C17     -H34     :   1.107845
 C18     -H35     :   1.112032      C18     -H36     :   1.113461
 C18     -H37     :   1.114017      C19     -H38     :   1.110212
 C19     -H39     :   1.114059      C19     -H40     :   1.113053
 C20     -H41     :   1.111894      C20     -H42     :   1.110221
 C20     -H43     :   1.113833      C21     -H44     :   1.108952
 C21     -H45     :   1.113922      C21     -H46     :   1.107772
 C22     -H47     :   1.112597      C22     -H48     :   1.111077
 C22     -H49     :   1.113881      C23     -H50     :   1.113903
 C23     -H51     :   1.113565      C23     -H52     :   1.113416
 
  bond angles:
 
 C3      -P1      -Pd2     : 107.642814  C4      -P1      -Pd2     : 120.396068
 C4      -P1      -C3      : 105.383690  C5      -P1      -Pd2     : 100.381213
 C5      -P1      -C3      : 113.039431  C5      -P1      -C4      : 110.209354
 Br3     -Pd2     -P1      : 102.723983  C76     -Pd2     -P1      : 169.885589
 C76     -Pd2     -Br3     :  87.277873  C78     -C73     -C74     : 122.098525
 F79     -C73     -C74     : 118.990092  F79     -C73     -C78     : 118.910051
 C75     -C74     -C73     : 118.552117  H80     -C74     -C73     : 119.634489
 H80     -C74     -C75     : 121.810823  C76     -C75     -C74     : 121.003524
 H81     -C75     -C74     : 118.868929  H81     -C75     -C76     : 120.127545
 C75     -C76     -Pd2     : 120.371939  C77     -C76     -Pd2     : 120.180024
 C77     -C76     -C75     : 118.669095  C78     -C77     -C76     : 121.077373
 H82     -C77     -C76     : 120.131815  H82     -C77     -C78     : 118.790726
 C77     -C78     -C73     : 118.558919  H83     -C78     -C73     : 119.592635
 H83     -C78     -C77     : 121.847482  C12     -C3      -P1      : 132.332083
 C16     -C3      -P1      : 109.049994  C16     -C3      -C12     : 118.601565
 C17     -C4      -P1      : 116.680003  C18     -C4      -P1      : 113.633317
 C18     -C4      -C17     : 105.789550  C19     -C4      -P1      : 109.575020
 C19     -C4      -C17     : 105.935583  C19     -C4      -C18     : 104.252746
 C20     -C5      -P1      : 111.754645  C21     -C5      -P1      : 119.639032
 C21     -C5      -C20     : 105.868645  C22     -C5      -P1      : 107.875063
 C22     -C5      -C20     : 105.244514  C22     -C5      -C21     : 105.414608
 C11     -C6      -C7      : 112.855389  C12     -C6      -C7      : 129.318543
 C12     -C6      -C11     : 117.822169  C8      -C7      -C6      : 120.577643
 C23     -C7      -C6      : 126.852870  C23     -C7      -C8      : 112.463886
 C9      -C8      -C7      : 123.661511  H24     -C8      -C7      : 120.364684
 H24     -C8      -C9      : 115.971317  C10     -C9      -C8      : 117.169856
 H25     -C9      -C8      : 121.666137  H25     -C9      -C10     : 121.163760
 C11     -C10     -C9      : 118.559909  H26     -C10     -C9      : 120.510758
 H26     -C10     -C11     : 120.927422  C10     -C11     -C6      : 127.174781
 H27     -C11     -C6      : 119.444547  H27     -C11     -C10     : 113.352565
 C6      -C12     -C3      : 128.578123  C13     -C12     -C3      : 114.079668
 C13     -C12     -C6      : 117.336141  C14     -C13     -C12     : 126.514616
 H28     -C13     -C12     : 122.531223  H28     -C13     -C14     : 110.900352
 C15     -C14     -C13     : 118.517836  H29     -C14     -C13     : 121.365931
 H29     -C14     -C15     : 120.110049  C16     -C15     -C14     : 117.048897
 H30     -C15     -C14     : 121.214686  H30     -C15     -C16     : 121.736280
 C15     -C16     -C3      : 125.228312  H31     -C16     -C3      : 120.513439
 H31     -C16     -C15     : 114.258064  H32     -C17     -C4      : 113.258537
 H33     -C17     -C4      : 111.689655  H33     -C17     -H32     : 105.503065
 H34     -C17     -C4      : 113.192670  H34     -C17     -H32     : 107.193094
 H34     -C17     -H33     : 105.391539  H35     -C18     -C4      : 112.058038
 H36     -C18     -C4      : 111.797889  H36     -C18     -H35     : 109.222001
 H37     -C18     -C4      : 112.013244  H37     -C18     -H35     : 105.726505
 H37     -C18     -H36     : 105.648678  H38     -C19     -C4      : 112.576983
 H39     -C19     -C4      : 112.189921  H39     -C19     -H38     : 106.196471
 H40     -C19     -C4      : 111.777365  H40     -C19     -H38     : 107.585060
 H40     -C19     -H39     : 106.102308  H41     -C20     -C5      : 112.298348
 H42     -C20     -C5      : 111.935505  H42     -C20     -H41     : 108.095584
 H43     -C20     -C5      : 112.091550  H43     -C20     -H41     : 106.820756
 H43     -C20     -H42     : 105.192635  H44     -C21     -C5      : 114.473937
 H45     -C21     -C5      : 111.330423  H45     -C21     -H44     : 104.456631
 H46     -C21     -C5      : 113.153150  H46     -C21     -H44     : 107.744798
 H46     -C21     -H45     : 104.894240  H47     -C22     -C5      : 112.032471
 H48     -C22     -C5      : 112.097904  H48     -C22     -H47     : 107.418253
 H49     -C22     -C5      : 112.211684  H49     -C22     -H47     : 105.875619
 H49     -C22     -H48     : 106.814392  H50     -C23     -C7      : 111.849660
 H51     -C23     -C7      : 111.964901  H51     -C23     -H50     : 113.066083
 H52     -C23     -C7      : 112.334273  H52     -C23     -H50     : 104.830478
 H52     -C23     -H51     : 102.205211
 
  torsional angles:
 
 P1      -Pd2     -C76     -C75     : -94.452095
 P1      -Pd2     -C76     -C77     :  75.306101
 P1      -C3      -C12     -C6      :  -3.538704
 P1      -C3      -C12     -C13     : 177.391602
 P1      -C3      -C16     -C15     :-177.644279
 P1      -C3      -C16     -H31     :   2.190069
 P1      -C4      -C17     -H32     :  62.775020
 P1      -C4      -C17     -H33     :-178.274494
 P1      -C4      -C17     -H34     : -59.513232
 P1      -C4      -C18     -H35     : -63.928460
 P1      -C4      -C18     -H36     :  59.071534
 P1      -C4      -C18     -H37     : 177.433697
 P1      -C4      -C19     -H38     :  59.682494
 P1      -C4      -C19     -H39     : 179.407630
 P1      -C4      -C19     -H40     : -61.546178
 P1      -C5      -C20     -H41     : -56.022773
 P1      -C5      -C20     -H42     :  65.784275
 P1      -C5      -C20     -H43     :-176.287823
 P1      -C5      -C21     -H44     :  67.566361
 P1      -C5      -C21     -H45     :-174.255908
 P1      -C5      -C21     -H46     : -56.409800
 P1      -C5      -C22     -H47     : -59.157476
 P1      -C5      -C22     -H48     :  61.695607
 P1      -C5      -C22     -H49     :-178.104440
 Pd2     -P1      -C3      -C12     :  -2.618306
 Pd2     -P1      -C3      -C16     : 175.847045
 Pd2     -P1      -C4      -C17     : -71.513102
 Pd2     -P1      -C4      -C18     :  52.011638
 Pd2     -P1      -C4      -C19     : 168.168159
 Pd2     -P1      -C5      -C20     : -70.217488
 Pd2     -P1      -C5      -C21     : 165.326564
 Pd2     -P1      -C5      -C22     :  45.006587
 Pd2     -C76     -C75     -C74     : 167.622400
 Pd2     -C76     -C75     -H81     : -12.357611
 Pd2     -C76     -C77     -C78     :-167.803463
 Pd2     -C76     -C77     -H82     :  12.088620
 Br3     -Pd2     -P1      -C3      :-179.999999
 Br3     -Pd2     -P1      -C4      :  59.382778
 Br3     -Pd2     -P1      -C5      : -61.589895
 Br3     -Pd2     -C76     -C75     :  94.023527
 Br3     -Pd2     -C76     -C77     : -96.218277
 C73     -C74     -C75     -C76     :   0.978288
 C73     -C74     -C75     -H81     :-179.041455
 C73     -C78     -C77     -C76     :  -0.660408
 C73     -C78     -C77     -H82     : 179.446091
 C74     -C73     -C78     -C77     :  -0.712150
 C74     -C73     -C78     -H83     : 178.937316
 C74     -C75     -C76     -C77     :  -2.288612
 C75     -C74     -C73     -C78     :   0.554537
 C75     -C74     -C73     -F79     :-179.870066
 C75     -C76     -C77     -C78     :   2.127464
 C75     -C76     -C77     -H82     :-177.980453
 C76     -Pd2     -P1      -C3      :   8.680752
 C76     -Pd2     -P1      -C4      :-111.936471
 C76     -Pd2     -P1      -C5      : 127.090857
 C76     -C75     -C74     -H80     :-179.607446
 C76     -C77     -C78     -H83     : 179.698421
 C77     -C76     -C75     -H81     : 177.731377
 C77     -C78     -C73     -F79     : 179.712125
 C78     -C73     -C74     -H80     :-178.872806
 F79     -C73     -C74     -H80     :   0.702591
 F79     -C73     -C78     -H83     :  -0.638409
 H80     -C74     -C75     -H81     :   0.372812
 H82     -C77     -C78     -H83     :  -0.195079
 C3      -P1      -C4      -C17     : 166.762405
 C3      -P1      -C4      -C18     : -69.712856
 C3      -P1      -C4      -C19     :  46.443665
 C3      -P1      -C5      -C20     :  44.159859
 C3      -P1      -C5      -C21     : -80.296088
 C3      -P1      -C5      -C22     : 159.383935
 C3      -C12     -C6      -C7      :  95.273206
 C3      -C12     -C6      -C11     : -85.502545
 C3      -C12     -C13     -C14     :   0.274863
 C3      -C12     -C13     -H28     : 177.359151
 C3      -C16     -C15     -C14     :  -0.346891
 C3      -C16     -C15     -H30     : 179.785728
 C4      -P1      -C3      -C12     : 127.038236
 C4      -P1      -C3      -C16     : -54.496413
 C4      -P1      -C5      -C20     : 161.788653
 C4      -P1      -C5      -C21     :  37.332705
 C4      -P1      -C5      -C22     : -82.987272
 C5      -P1      -C3      -C12     :-112.540243
 C5      -P1      -C3      -C16     :  65.925108
 C5      -P1      -C4      -C17     :  44.498558
 C5      -P1      -C4      -C18     : 168.023298
 C5      -P1      -C4      -C19     : -75.820182
 C6      -C7      -C8      -C9      :   0.204575
 C6      -C7      -C8      -H24     : 179.607156
 C6      -C7      -C23     -H50     :  85.260242
 C6      -C7      -C23     -H51     : -42.827948
 C6      -C7      -C23     -H52     :-157.167381
 C6      -C11     -C10     -C9      :   0.273642
 C6      -C11     -C10     -H26     : 179.773359
 C6      -C12     -C3      -C16     : 178.113550
 C6      -C12     -C13     -C14     :-178.906444
 C6      -C12     -C13     -H28     :  -1.822156
 C7      -C6      -C11     -C10     :  -0.019764
 C7      -C6      -C11     -H27     : 177.915884
 C7      -C6      -C12     -C13     : -85.682919
 C7      -C8      -C9      -C10     :   0.054983
 C7      -C8      -C9      -H25     : 179.876051
 C8      -C7      -C6      -C11     :  -0.212327
 C8      -C7      -C6      -C12     : 179.043146
 C8      -C7      -C23     -H50     : -98.492928
 C8      -C7      -C23     -H51     : 133.418882
 C8      -C7      -C23     -H52     :  19.079450
 C8      -C9      -C10     -C11     :  -0.276610
 C8      -C9      -C10     -H26     :-179.778484
 C9      -C8      -C7      -C23     :-176.307482
 C9      -C10     -C11     -H27     :-177.768294
 C10     -C9      -C8      -H24     :-179.371646
 C10     -C11     -C6      -C12     :-179.368488
 C11     -C6      -C7      -C23     : 175.758639
 C11     -C6      -C12     -C13     :  93.541330
 C11     -C10     -C9      -H25     : 179.901367
 C12     -C3      -C16     -C15     :   1.063585
 C12     -C3      -C16     -H31     :-179.102067
 C12     -C6      -C7      -C23     :  -4.985888
 C12     -C6      -C11     -H27     :  -1.432840
 C12     -C13     -C14     -C15     :   0.419544
 C12     -C13     -C14     -H29     : 179.515586
 C13     -C12     -C3      -C16     :  -0.956143
 C13     -C14     -C15     -C16     :  -0.387844
 C13     -C14     -C15     -H30     : 179.480274
 C14     -C15     -C16     -H31     : 179.809641
 C15     -C14     -C13     -H28     :-176.949296
 C16     -C15     -C14     -H29     :-179.495593
 C17     -C4      -C18     -H35     :  65.348403
 C17     -C4      -C18     -H36     :-171.651602
 C17     -C4      -C18     -H37     : -53.289439
 C17     -C4      -C19     -H38     : -66.981941
 C17     -C4      -C19     -H39     :  52.743195
 C17     -C4      -C19     -H40     : 171.789387
 C18     -C4      -C17     -H32     : -64.694553
 C18     -C4      -C17     -H33     :  54.255933
 C18     -C4      -C17     -H34     : 173.017195
 C18     -C4      -C19     -H38     :-178.358513
 C18     -C4      -C19     -H39     : -58.633377
 C18     -C4      -C19     -H40     :  60.412815
 C19     -C4      -C17     -H32     :-174.987439
 C19     -C4      -C17     -H33     : -56.036953
 C19     -C4      -C17     -H34     :  62.724309
 C19     -C4      -C18     -H35     : 176.830700
 C19     -C4      -C18     -H36     : -60.169305
 C19     -C4      -C18     -H37     :  58.192858
 C20     -C5      -C21     -H44     : -59.667052
 C20     -C5      -C21     -H45     :  58.510680
 C20     -C5      -C21     -H46     : 176.356787
 C20     -C5      -C22     -H47     :  60.283556
 C20     -C5      -C22     -H48     :-178.863361
 C20     -C5      -C22     -H49     : -58.663408
 C21     -C5      -C20     -H41     :  75.812279
 C21     -C5      -C20     -H42     :-162.380674
 C21     -C5      -C20     -H43     : -44.452771
 C21     -C5      -C22     -H47     : 171.945031
 C21     -C5      -C22     -H48     : -67.201886
 C21     -C5      -C22     -H49     :  52.998068
 C22     -C5      -C20     -H41     :-172.848971
 C22     -C5      -C20     -H42     : -51.041923
 C22     -C5      -C20     -H43     :  66.885980
 C22     -C5      -C21     -H44     :-170.886081
 C22     -C5      -C21     -H45     : -52.708349
 C22     -C5      -C21     -H46     :  65.137758
 C23     -C7      -C8      -H24     :   3.095099
 H24     -C8      -C9      -H25     :   0.449421
 H25     -C9      -C10     -H26     :   0.399493
 H26     -C10     -C11     -H27     :   1.731423
 H28     -C13     -C14     -H29     :   2.146746
 H29     -C14     -C15     -H30     :   0.372525
 H30     -C15     -C16     -H31     :  -0.057740
 
  nuclear repulsion energy.......          3696.220849704 hartrees
  
  Detected an organometallic with only one TM atom. 
  
  Oxidation state on metal       2 is     2
  Formal multiplet on metal      2 is     1
  Formal charge on ligand        3 is    -1
  Formal multiplet on ligand     3 is     1
  Formal charge on ligand        4 is    -1
  Formal multiplet on ligand     4 is     1
  
 
  Will use High-Quality Initial guess for organometallics
       including d-d repulsion (iguess=30)
 
 Non-default options chosen:
   SCF calculation type: DFT(b3pw91-d3)              
   DFT=Becke_3_Parameter/HF+Slater+Becke88+PW91+PW-GGAIIC (B3PW91-D3)
   Geometry will be optimized in redundant internal coordinates
   Solvation energy will be computed using PBF
     -solute cavity energy will not be included
     -surface area terms will not be included
   Vibrational frequencies and related properties will be computed
      from analytic second derivatives
   IR intensities will be computed
   Thermochemical properties will be computed
   Maximum number of geometry steps: 100
   Scaling standard convergence criteria by a factor of   5.00
   Solvent: benzene                                                         
   Internal dielectric constant:    1.000
   Continuum dielectric constant:   2.283
   Solvent probe molecule radius:   2.600
  
 Non-default print settings:
     11=  2
  
 Temporary integer options set:
     21= -1  73=  2
  
  atom       vdw   vdw2    cov     mass  grid  daf  charge   basis
  P1        2.147  2.074  1.060   30.974    Y    Y      Y    ps_6-31g*
  Pd2       1.450  1.450  1.280  105.903    Y    Y      Y    lacv3p*
  Br3       2.095  2.095  1.140   78.918    Y    Y      Y    lav3p*
  C73       1.949  1.900  0.770   12.000    Y    Y      Y    ps_6-31g*
  C74       1.949  1.900  0.770   12.000    Y    Y      Y    ps_6-31g*
  C75       1.949  1.900  0.770   12.000    Y    Y      Y    ps_6-31g*
  C76       1.949  1.900  0.770   12.000    Y    Y      Y    ps_6-31g*
  C77       1.949  1.900  0.770   12.000    Y    Y      Y    ps_6-31g*
  C78       1.949  1.900  0.770   12.000    Y    Y      Y    ps_6-31g*
  F79       1.736  1.682  0.720   18.998    Y    Y      Y    ps_6-31g*
  H80       1.597  1.150  0.320    1.008    Y    Y      Y    ps_6-31g*
  H81       1.597  1.150  0.320    1.008    Y    Y      Y    ps_6-31g*
  H82       1.597  1.150  0.320    1.008    Y    Y      Y    ps_6-31g*
  H83       1.597  1.150  0.320    1.008    Y    Y      Y    ps_6-31g*
  C3        1.949  1.900  0.770   12.000    Y    Y      Y    ps_6-31g*
  C4        1.949  1.900  0.770   12.000    Y    Y      Y    ps_6-31g*
  C5        1.949  1.900  0.770   12.000    Y    Y      Y    ps_6-31g*
  C6        1.949  1.900  0.770   12.000    Y    Y      Y    ps_6-31g*
  C7        1.949  1.900  0.770   12.000    Y    Y      Y    ps_6-31g*
  C8        1.949  1.900  0.770   12.000    Y    Y      Y    ps_6-31g*
  C9        1.949  1.900  0.770   12.000    Y    Y      Y    ps_6-31g*
  C10       1.949  1.900  0.770   12.000    Y    Y      Y    ps_6-31g*
  C11       1.949  1.900  0.770   12.000    Y    Y      Y    ps_6-31g*
  C12       1.949  1.900  0.770   12.000    Y    Y      Y    ps_6-31g*
  C13       1.949  1.900  0.770   12.000    Y    Y      Y    ps_6-31g*
  C14       1.949  1.900  0.770   12.000    Y    Y      Y    ps_6-31g*
  C15       1.949  1.900  0.770   12.000    Y    Y      Y    ps_6-31g*
  C16       1.949  1.900  0.770   12.000    Y    Y      Y    ps_6-31g*
  C17       1.949  1.900  0.770   12.000    Y    Y      Y    ps_6-31g*
  C18       1.949  1.900  0.770   12.000    Y    Y      Y    ps_6-31g*
  C19       1.949  1.900  0.770   12.000    Y    Y      Y    ps_6-31g*
  C20       1.949  1.900  0.770   12.000    Y    Y      Y    ps_6-31g*
  C21       1.949  1.900  0.770   12.000    Y    Y      Y    ps_6-31g*
  C22       1.949  1.900  0.770   12.000    Y    Y      Y    ps_6-31g*
  C23       1.949  1.900  0.770   12.000    Y    Y      Y    ps_6-31g*
  H24       1.597  1.150  0.320    1.008    Y    Y      Y    ps_6-31g*
  H25       1.597  1.150  0.320    1.008    Y    Y      Y    ps_6-31g*
  H26       1.597  1.150  0.320    1.008    Y    Y      Y    ps_6-31g*
  H27       1.597  1.150  0.320    1.008    Y    Y      Y    ps_6-31g*
  H28       1.597  1.150  0.320    1.008    Y    Y      Y    ps_6-31g*
  H29       1.597  1.150  0.320    1.008    Y    Y      Y    ps_6-31g*
  H30       1.597  1.150  0.320    1.008    Y    Y      Y    ps_6-31g*
  H31       1.597  1.150  0.320    1.008    Y    Y      Y    ps_6-31g*
  H32       1.597  1.150  0.320    1.008    Y    Y      Y    ps_6-31g*
  H33       1.597  1.150  0.320    1.008    Y    Y      Y    ps_6-31g*
  H34       1.597  1.150  0.320    1.008    Y    Y      Y    ps_6-31g*
  H35       1.597  1.150  0.320    1.008    Y    Y      Y    ps_6-31g*
  H36       1.597  1.150  0.320    1.008    Y    Y      Y    ps_6-31g*
  H37       1.597  1.150  0.320    1.008    Y    Y      Y    ps_6-31g*
  H38       1.597  1.150  0.320    1.008    Y    Y      Y    ps_6-31g*
  H39       1.597  1.150  0.320    1.008    Y    Y      Y    ps_6-31g*
  H40       1.597  1.150  0.320    1.008    Y    Y      Y    ps_6-31g*
  H41       1.597  1.150  0.320    1.008    Y    Y      Y    ps_6-31g*
  H42       1.597  1.150  0.320    1.008    Y    Y      Y    ps_6-31g*
  H43       1.597  1.150  0.320    1.008    Y    Y      Y    ps_6-31g*
  H44       1.597  1.150  0.320    1.008    Y    Y      Y    ps_6-31g*
  H45       1.597  1.150  0.320    1.008    Y    Y      Y    ps_6-31g*
  H46       1.597  1.150  0.320    1.008    Y    Y      Y    ps_6-31g*
  H47       1.597  1.150  0.320    1.008    Y    Y      Y    ps_6-31g*
  H48       1.597  1.150  0.320    1.008    Y    Y      Y    ps_6-31g*
  H49       1.597  1.150  0.320    1.008    Y    Y      Y    ps_6-31g*
  H50       1.597  1.150  0.320    1.008    Y    Y      Y    ps_6-31g*
  H51       1.597  1.150  0.320    1.008    Y    Y      Y    ps_6-31g*
  H52       1.597  1.150  0.320    1.008    Y    Y      Y    ps_6-31g*
 
  atom      formal  2spin      esp    mulk    frag
  P1           0       0        Y    0.000       0
  Pd2          2       0        Y    0.000       0
  Br3         -1       0        Y    0.000       0
  C73         -1       0        Y    0.000       0
  
  end of program pre
   
 Time(pre)  user:       1.126  user+sys:       1.126  wallclock:       1.160
  
  start of program onee
  
  smallest eigenvalue of S:    3.952E-04
  number of canonical orbitals.....          514
  end of program onee
   
 Time(onee)  user:       6.245  user+sys:       6.245  wallclock:       4.907
  
  start of program hfig
  
  initial wavefunction generated automatically from atomic wavefunctions
  Only one state below 0.010000
  Skip d-d repulsion considerations 
 
  Irreducible     Total no   No of occupied orbitals 
  representation  orbitals   Shell_1  Shell_2    ...
  No Symm          514        122
  ------------------------
  Orbital occupation/shell    1.000
 
  end of program hfig
   
 Time(hfig)  user:       0.901  user+sys:       0.901  wallclock:       1.010
  
  start of program probe
  
  end of program probe
   
 Time(probe)  user:       0.466  user+sys:       0.466  wallclock:       0.417
  
  start of program grid
  
   grid     grid set  grid #  grid sym
  ------    --------  ------  --------
  coarse        0        0        1
  medium        2        1        1
  fine          0        0        1
  ultrafine     4        2        1
  charge       -1        3        1
  gradient      4        2        1
  density       0        0        1
  DFT-fine    -11        4        1
  DFT-med.    -10        5        1
  DFT-grad    -12        6        1
  DFT-der2     -8        7        1
  DFT-cphf     -9        8        1
  LMP2-enrg     4        2        1
  LMP2-grad     2        1        1
  DFT-cphf2   -15        9        1
  PBF-dens      0        0        1
  plotting      0        0        1
  Rel-grad    -17        0        1
  
  number of gridpoints: 
     atom           P1         Pd2         Br3         C73         C74         C75         C76
  grid # 1         619         354         497          80          94          96         100
  grid # 2         437         324         473         334         320         323         398
  grid # 3           9         263         311          34          31          22          13
  grid # 4        8714        8714        8714        8714        8714        8714        8714
  grid # 5        1192        1192        1192        1192        1192        1192        1192
  grid # 6        9132        9132        9132        5922        5922        5922        5922
  grid # 7       23034       32968       11582       13950       13950       13950       13950
  grid # 8         722        1150         694         748         748         748         748
  grid # 9         366        2198         358         394         394         394         394
   
  number of gridpoints: 
     atom          C77         C78         F79         H80         H81         H82         H83
  grid # 1          96          94         584         114         116         117         114
  grid # 2         323         320         565         464         458         459         463
  grid # 3          21          29         346         391         262         269         377
  grid # 4        8714        8714        8714        8714        8714        8714        8714
  grid # 5        1192        1192        1192        1192        1192        1192        1192
  grid # 6        5922        5922        5922        5922        5922        5922        5922
  grid # 7       13950       13950       23190       15206       15206       15206       15206
  grid # 8         748         748         770         786         786         786         786
  grid # 9         394         394         420         420         420         420         420
   
  number of gridpoints: 
     atom           C3          C4          C5          C6          C7          C8          C9
  grid # 1          92          91          88          99         100          94          96
  grid # 2         389         369         378         355         364         326         320
  grid # 3          13           6           6           9          21          29          29
  grid # 4        8714        8714        8714        8714        8714        8714        8714
  grid # 5        1192        1192        1192        1192        1192        1192        1192
  grid # 6        5922        5922        5922        5922        5922        5922        5922
  grid # 7       13950       13950       13950       13950       13950       13950       13950
  grid # 8         748         748         748         748         748         748         748
  grid # 9         394         394         394         394         394         394         394
   
  number of gridpoints: 
     atom          C10         C11         C12         C13         C14         C15         C16
  grid # 1          96          93          98          93          97          95          91
  grid # 2         321         325         359         324         324         322         321
  grid # 3          29          18          14          30          49          34          16
  grid # 4        8714        8714        8714        8714        8714        8714        8714
  grid # 5        1192        1192        1192        1192        1192        1192        1192
  grid # 6        5922        5922        5922        5922        5922        5922        5922
  grid # 7       13950       13950       13950       13950       13950       13950       13950
  grid # 8         748         748         748         748         748         748         748
  grid # 9         394         394         394         394         394         394         394
   
  number of gridpoints: 
     atom          C17         C18         C19         C20         C21         C22         C23
  grid # 1          83          84          82          80          82          79          81
  grid # 2         239         240         242         246         241         248         243
  grid # 3           6           6           6           6           6           6           6
  grid # 4        8714        8714        8714        8714        8714        8714        8714
  grid # 5        1192        1192        1192        1192        1192        1192        1192
  grid # 6        5922        5922        5922        5922        5922        5922        5922
  grid # 7       13950       13950       13950       13950       13950       13950       13950
  grid # 8         748         748         748         748         748         748         748
  grid # 9         394         394         394         394         394         394         394
   
  number of gridpoints: 
     atom          H24         H25         H26         H27         H28         H29         H30
  grid # 1         113         114         117         116         117         118         118
  grid # 2         447         457         464         451         457         467         468
  grid # 3         260         289         368         278         347         423         406
  grid # 4        8714        8714        8714        8714        8714        8714        8714
  grid # 5        1192        1192        1192        1192        1192        1192        1192
  grid # 6        5922        5922        5922        5922        5922        5922        5922
  grid # 7       15206       15206       15206       15206       15206       15206       15206
  grid # 8         786         786         786         786         786         786         786
  grid # 9         420         420         420         420         420         420         420
   
  number of gridpoints: 
     atom          H31         H32         H33         H34         H35         H36         H37
  grid # 1          96         104         108         101         108         107         109
  grid # 2         399         442         444         424         450         445         446
  grid # 3          57         185         267         146         236         226         267
  grid # 4        8714        8714        8714        8714        8714        8714        8714
  grid # 5        1192        1192        1192        1192        1192        1192        1192
  grid # 6        5922        5922        5922        5922        5922        5922        5922
  grid # 7       15206       15206       15206       15206       15206       15206       15206
  grid # 8         786         786         786         786         786         786         786
  grid # 9         420         420         420         420         420         420         420
   
  number of gridpoints: 
     atom          H38         H39         H40         H41         H42         H43         H44
  grid # 1          99         109         101         105         104         107         107
  grid # 2         418         445         417         441         437         446         442
  grid # 3         132         269         145         204         147         273         226
  grid # 4        8714        8714        8714        8714        8714        8714        8714
  grid # 5        1192        1192        1192        1192        1192        1192        1192
  grid # 6        5922        5922        5922        5922        5922        5922        5922
  grid # 7       15206       15206       15206       15206       15206       15206       15206
  grid # 8         786         786         786         786         786         786         786
  grid # 9         420         420         420         420         420         420         420
   
  number of gridpoints: 
     atom          H45         H46         H47         H48         H49         H50         H51
  grid # 1         107         101          95         101         107         113         105
  grid # 2         443         427         423         429         447         464         438
  grid # 3         259         148          98         125         274         369         137
  grid # 4        8714        8714        8714        8714        8714        8714        8714
  grid # 5        1192        1192        1192        1192        1192        1192        1192
  grid # 6        5922        5922        5922        5922        5922        5922        5922
  grid # 7       15206       15206       15206       15206       15206       15206       15206
  grid # 8         786         786         786         786         786         786         786
  grid # 9         420         420         420         420         420         420         420
   
  number of gridpoints: 
     atom          H52       total
  grid # 1         106        8082
  grid # 2         443       24978
  grid # 3         239        9523
  grid # 4        8714      557696
  grid # 5        1192       76288
  grid # 6        5922      388638
  grid # 7       15206      969222
  grid # 8         786       49470
  grid # 9         420       27840
   
  end of program grid
   
 Time(grid)  user:     192.817  user+sys:     192.817  wallclock:      99.199
  
  start of program rwr
  
  end of program rwr
   
 Time(rwr)  user:      13.438  user+sys:      13.438  wallclock:      16.965
  
  start of program scf
  
 number of electrons..........        244
 number of alpha electrons....        122
 number of beta electrons.....        122
 number of orbitals, total....        514
 number of doubly-occ'd orbs..        122
 number of open shell orbs....          0
 number of occupied orbitals..        122
 number of virtual orbitals...        392
 number of hamiltonians.......          1
 number of shells.............          1
 SCF type: DFT=Becke_3_Parameter/HF+Slater+Becke88+PW91+PW-GGAIIC (B3PW91-D3)
 Energy computed using pseudospectral method.
 Convergence Criterion:
    Energy (econv):       1.00E-05
    RMS density (dconv):  5.00E-06
  
       i  u  d  i  g                   
       t  p  i  c  r                                 RMS    maximum
       e  d  i  u  i                       energy  density   DIIS  
       r  t  s  t  d       total energy    change  change    error 
  
etot    1  N  N  5  M   -1625.57049284717           2.3E-03  1.8E-01
etot    2  Y  Y  6  M   -1628.21923070440  2.6E+00  3.3E-03  1.2E-01
etot    3  Y  Y  6  M   -1629.09243276714  8.7E-01  1.4E-03  6.9E-02
etot    4  N  Y  2  U   -1629.30286104509  2.1E-01  8.8E-04  2.8E-02
etot    5  Y  Y  6  M   -1629.37113332510  6.8E-02  5.7E-04  1.6E-02
etot    6  N  Y  2  U   -1629.37891142746  7.8E-03  5.0E-04  8.0E-03
etot    7  Y  Y  6  M   -1629.37939761940  4.9E-04  1.2E-04  3.4E-03
etot    8  Y  Y  6  M   -1629.38311751078  3.7E-03  3.8E-05  1.6E-03
etot    9  N  Y  2  U   -1629.38404552731  9.3E-04  1.5E-05  2.0E-04
etot   10  N  Y  2  U   -1629.38405055387  5.0E-06  6.4E-06  5.5E-05
etot   11  N  Y  2  U   -1629.38405160587  1.1E-06  2.1E-06  3.8E-05
etot   12  N  N  2  U   -1629.38405188554  2.8E-07  0.0E+00  0.0E+00
 
  Computing the dispersion energy correction and its gradients...
  
  
 Energy components, in hartrees:
   (A)  Nuclear repulsion............    3696.22084970445
   (E)  Total one-electron terms.....   -9635.28232586601
   (F)    Electron-nuclear...........  -11166.32083396218
   (H)    Kinetic....................    1531.03850809617
   (I)  Total two-electron terms.....    4309.67742427602
   (J)    Coulomb....................    4517.08730087515
   (K)    Exchange+Correlation.......    -207.40987659912
   (L)  Electronic energy............   -5325.60490158999  (E+I)
   (N0) D3 correction................      -0.11448626186
   (N)  Total energy.................   -1629.49853814740  (A+L+N0)
   (O)  Gas phase energy.............   -1629.49853814740
  
 SCFE: SCF energy: DFT(b3pw91-d3)     -1629.49853814740 hartrees   iterations:  12
  
 
 HOMO energy:    -0.20495
 LUMO energy:    -0.09651
 
  Orbital energies (hartrees): 
   -77.08179   -24.67655   -10.24282   -10.21866   -10.21849   -10.21650
   -10.21014   -10.20162   -10.20034   -10.19570   -10.19320   -10.19258
   -10.19033   -10.18151   -10.17800   -10.17751   -10.17547   -10.17227
   -10.17198   -10.17187   -10.17066   -10.17060   -10.16982   -10.16970
   -10.16942   -10.16916   -10.16773   -10.16744   -10.14323    -6.58249
    -4.74072    -4.74011    -4.73669    -3.33884    -2.07718    -2.06298
    -2.04056    -1.20794    -0.88811    -0.86277    -0.85023    -0.83347
    -0.81402    -0.79826    -0.77681    -0.77033    -0.74665    -0.73845
    -0.73101    -0.70149    -0.69643    -0.69427    -0.69010    -0.68772
    -0.67146    -0.66314    -0.63434    -0.61247    -0.61188    -0.60039
    -0.59137    -0.58343    -0.56421    -0.54355    -0.53125    -0.51747
    -0.49966    -0.48409    -0.47888    -0.47300    -0.47122    -0.46921
    -0.46257    -0.45972    -0.45306    -0.44832    -0.44637    -0.44124
    -0.43558    -0.43372    -0.42965    -0.42764    -0.42395    -0.41907
    -0.41080    -0.40711    -0.39641    -0.39194    -0.38784    -0.38731
    -0.38453    -0.38091    -0.37925    -0.37065    -0.36881    -0.36657
    -0.36440    -0.35332    -0.35051    -0.34811    -0.34304    -0.33872
    -0.33553    -0.33464    -0.33252    -0.32799    -0.32391    -0.31842
    -0.31125    -0.29788    -0.27458    -0.27293    -0.26720    -0.26690
    -0.25946    -0.25547    -0.24620    -0.24023    -0.23337    -0.22198
    -0.21835    -0.20495    -0.09651    -0.04854    -0.02974    -0.01823
    -0.00766     0.00145     0.01267     0.02243     0.03300     0.04215
 
  end of program scf
   
 Time(scf)  user:     312.706  user+sys:     312.706  wallclock:     168.001
  
  start of program der1a
  
  end of program der1a
   
 Time(der1a)  user:      18.601  user+sys:      18.601  wallclock:       9.943
  
  start of program rwr
  
  end of program rwr
   
 Time(rwr)  user:      14.510  user+sys:      14.510  wallclock:      18.922
  
  start of program der1b
  
   
  forces (hartrees/bohr) : total     
   
 atom  label           x              y              z
 ---- --------   -------------  -------------  -------------
    1 P1          3.213919E-03   2.528638E-03   2.745483E-02
    2 Pd2         1.520828E-02   1.513255E-02   1.157074E-02
    3 Br3        -3.377169E-03   2.766090E-02   2.994739E-02
    4 C73         9.090415E-04   5.563502E-04   3.320458E-03
    5 C74         7.904217E-04   2.609005E-04  -2.757187E-03
    6 C75        -2.042472E-03  -1.233843E-03  -2.084084E-03
    7 C76        -9.245329E-04  -4.196176E-03   2.673875E-03
    8 C77        -3.844028E-03   2.357450E-03  -3.060210E-03
    9 C78        -4.216934E-04  -1.307377E-03  -1.500489E-03
   10 F79        -1.663508E-03  -2.085297E-04  -3.821796E-03
   11 H80         1.808894E-06   5.314160E-04  -4.971733E-04
   12 H81        -5.206271E-04   4.912985E-04   5.498878E-04
   13 H82        -5.930088E-04  -2.876152E-04   3.243723E-04
   14 H83        -1.521064E-04  -7.138514E-04  -7.448394E-04
   15 C3         -1.241092E-02  -5.196407E-03  -1.420977E-02
   16 C4         -4.168490E-03   1.890390E-02  -3.193773E-02
   17 C5         -1.688908E-02  -3.135846E-02  -1.563966E-02
   18 C6         -4.520211E-03   4.200120E-03   6.534913E-02
   19 C7         -6.280830E-03  -1.109168E-02   1.195458E-02
   20 C8          4.051530E-03   7.575859E-03   8.057574E-03
   21 C9          3.316212E-03  -1.181759E-04  -2.621914E-03
   22 C10         2.121706E-03  -4.275046E-03   9.350850E-04
   23 C11        -6.295644E-04   2.359897E-02   6.046829E-04
   24 C12        -8.705396E-03  -1.629864E-02  -5.280997E-02
   25 C13         1.482857E-02   1.759094E-03  -5.390665E-03
   26 C14        -5.613561E-03   1.271416E-03  -4.611068E-03
   27 C15         4.922824E-03  -1.505929E-04   1.811560E-03
   28 C16         7.092186E-03  -1.698896E-02  -1.439871E-02
   29 C17        -1.373159E-02  -1.081958E-02   1.009190E-02
   30 C18         1.162741E-02   4.193619E-03   1.609702E-02
   31 C19        -2.234914E-03   1.002139E-02  -1.680576E-02
   32 C20         1.824077E-02  -8.545883E-04   4.571996E-03
   33 C21        -3.675664E-05   4.049355E-03  -1.572677E-02
   34 C22        -4.276982E-03  -1.776554E-03  -7.143418E-05
   35 C23        -7.352702E-03  -1.293618E-02  -5.809948E-03
   36 H24        -3.109993E-03   3.488198E-03  -1.156124E-02
   37 H25        -2.504712E-03  -4.478998E-03  -1.104190E-02
   38 H26        -1.010525E-03  -1.016085E-02  -5.986082E-03
   39 H27        -3.348451E-03  -5.360511E-04  -9.588064E-03
   40 H28        -5.243234E-03  -8.540817E-04   1.484879E-02
   41 H29        -7.729489E-03   5.569220E-04   9.174217E-03
   42 H30        -1.992325E-03   3.443046E-04   1.097550E-02
   43 H31         1.505685E-02  -1.716364E-02   1.349600E-02
   44 H32         6.391943E-03  -3.856769E-03  -4.154331E-03
   45 H33         1.100362E-02  -6.152320E-03   3.803776E-03
   46 H34         5.061052E-03   6.131359E-03   4.066294E-03
   47 H35         4.904748E-03  -4.495359E-03  -7.672692E-03
   48 H36        -8.939299E-03  -2.848293E-03   4.557828E-03
   49 H37         1.441263E-03  -1.267150E-02   1.967406E-03
   50 H38         2.258376E-04   9.036185E-03   3.032688E-03
   51 H39        -3.261625E-04  -5.322534E-03   1.022462E-02
   52 H40        -2.198836E-02   1.187477E-02   3.137699E-04
   53 H41        -7.589530E-03   2.315970E-04   4.157236E-03
   54 H42         4.865992E-04   4.232240E-03  -7.339256E-03
   55 H43         2.295331E-04   1.276330E-02  -8.512248E-05
   56 H44        -1.338371E-03   4.678164E-03   6.587667E-03
   57 H45         6.403104E-03   8.067295E-03   6.400507E-03
   58 H46         6.845997E-03  -4.320184E-03   3.612733E-03
   59 H47        -2.718047E-03  -8.834103E-03  -2.577152E-02
   60 H48         8.092524E-03  -9.681803E-03   2.741496E-03
   61 H49         8.821894E-03   6.195314E-03  -6.434070E-03
   62 H50        -1.267278E-02   3.004570E-03  -4.995978E-03
   63 H51         1.535574E-02   3.635413E-03  -3.817426E-03
   64 H52         3.995126E-03   1.160416E-02  -5.209495E-03
 -------------   -------------  -------------  -------------
     total       -2.609233E-04  -2.517191E-04  -2.880734E-03
   
  end of program der1b
   
 Time(der1b)  user:     104.366  user+sys:     104.366  wallclock:      56.182
  
  start of program geopt
  
 ----------------------------------------------------------------------------
  Geometry optimization step  1
  Total energy:     -1629.49853814740 hartrees
 ----------------------------------------------------------------------------
  
  
  Level shifts adjusted to satisfy step-size constraints
   Step size:    0.3000092
   Cos(theta):   0.9501285
   Final level shift:  -8.6557997E-01
  
  gradient maximum:        3.1695E-01 .  (  2.2500E-03 )
  gradient rms:            3.9291E-02 .  (  1.5000E-03 )
  displacement maximum:    1.3956E-01 .  (  9.0000E-03 )
  displacement rms:        2.0653E-02 .  (  6.0000E-03 )
  
  predicted energy change:  -1.2029E-01
  step size:     0.30000
  trust radius:  0.30000
  
  molecular structure not yet converged...
  
  center of mass moved by:
     x:     4.4675E-02     y:     1.7240E-01     z:     6.4905E-02
  
  new geometry: 
                                   angstroms
  atom               x                 y                 z
  P1           -0.0225742151     -0.0495952327     -0.0098092152 
  Pd2           0.0219771444      0.0339466240      2.3931208458 
  Br3          -2.3319478505      0.4208684442      3.1391821981 
  C73           1.4070806833      0.2468638234      6.9343432619 
  C74           1.0725641692     -0.9884189992      6.3963491317 
  C75           0.5564233588     -1.0338640669      5.0989671371 
  C76           0.3982564174      0.1375366438      4.3481317757 
  C77           0.7202040088      1.3668853831      4.9331496735 
  C78           1.2341940341      1.4303843362      6.2297521469 
  F79           1.9093557221      0.3006702063      8.1885516409 
  H80           1.2079187550     -1.8880085210      6.9908337528 
  H81           0.2764946204     -1.9979023264      4.6779496485 
  H82           0.5750610327      2.2910885178      4.3778988478 
  H83           1.4940607741      2.3766631650      6.6971897396 
  C3            1.7530124218     -0.1837989769     -0.6638133379 
  C4           -0.9891043121      1.3893821503     -0.8381203117 
  C5           -0.7197435707     -1.7568711881     -0.5432342446 
  C6            3.1329495546      0.0089385135      1.5130074955 
  C7            3.2405531791     -1.0012950454      2.5145305667 
  C8            3.4359187946     -0.6410006165      3.8631136178 
  C9            3.5303391957      0.6805452990      4.2996734513 
  C10           3.4088233703      1.6840478144      3.3401820148 
  C11           3.2218834560      1.3237461567      2.0051357886 
  C12           2.9736477451     -0.1823657349      0.0809397414 
  C13           4.1555369529     -0.3764034803     -0.6609047627 
  C14           4.2143680845     -0.5661841511     -2.0426570755 
  C15           3.0252586291     -0.5619555528     -2.7640717677 
  C16           1.8373430580     -0.3694999215     -2.0568140003 
  C17          -2.5218201257      1.3088719926     -0.6636089796 
  C18          -0.5190822485      2.7583055911     -0.2963787678 
  C19          -0.7560136899      1.4779838977     -2.3666968572 
  C20           0.2902146537     -2.8675333222     -0.1796634538 
  C21          -1.1022664375     -1.9485830459     -2.0320081893 
  C22          -2.0053024117     -2.0747009962      0.2443046357 
  C23           3.0938965267     -2.4857739803      2.2592420080 
  H24           3.5103737960     -1.4220828736      4.6311630924 
  H25           3.6805226692      0.9239663374      5.3594636690 
  H26           3.4758369258      2.7430828685      3.6235194678 
  H27           3.1794737174      2.1492410527      1.3027493377 
  H28           5.1328511984     -0.3508270862     -0.1810542147 
  H29           5.1771661639     -0.7039277183     -2.5539517907 
  H30           3.0171834975     -0.7004403950     -3.8537288402 
  H31           0.9320791553     -0.4034410325     -2.6544598764 
  H32          -2.8367933381      1.3698718745      0.3934632029 
  H33          -3.0239387990      2.1495198324     -1.1844743137 
  H34          -2.9576549493      0.3866367047     -1.0858066351 
  H35          -0.7349939507      2.8716843119      0.7842986747 
  H36           0.5650486334      2.9183922020     -0.4672230525 
  H37          -1.0410105317      3.5937880522     -0.8060645991 
  H38          -1.0469640257      0.5517477740     -2.8966981120 
  H39          -1.3503917219      2.2981913638     -2.8203848655 
  H40           0.3002433174      1.6975887260     -2.6072095576 
  H41           1.2878122777     -2.6919401307     -0.6287452473 
  H42           0.4203281337     -2.9603632147      0.9156964774 
  H43          -0.0558992251     -3.8609887908     -0.5300170121 
  H44          -0.2396518499     -1.9338854560     -2.7243809315 
  H45          -1.5810122855     -2.9367985908     -2.1893239160 
  H46          -1.8375627761     -1.2060123057     -2.3878636892 
  H47          -1.8298526561     -2.0975806904      1.3336592708 
  H48          -2.8047117718     -1.3352242355      0.0550689853 
  H49          -2.4106918157     -3.0705728960     -0.0306479011 
  H50           4.0473453684     -2.9475363183      1.9306253708 
  H51           2.2619631573     -2.7074866931      1.5605933035 
  H52           2.8127297843     -3.0326372365      3.1815885695 
   
 
  bond lengths (angstroms):
 
 P1      -Pd2     :   2.404795      P1      -C3      :   1.896955
 P1      -C4      :   1.921181      P1      -C5      :   1.919734
 Pd2     -Br3     :   2.499456      Pd2     -C76     :   1.993586
 C73     -C74     :   1.388259      C73     -C78     :   1.388186
 C73     -F79     :   1.352115      C74     -C75     :   1.397021
 C74     -H80     :   1.086736      C75     -C76     :   1.400339
 C75     -H81     :   1.088570      C76     -C77     :   1.398998
 C77     -C78     :   1.396208      C77     -H82     :   1.087898
 C78     -H83     :   1.086955      C3      -C12     :   1.429899
 C3      -C16     :   1.407852      C4      -C17     :   1.544718
 C4      -C18     :   1.545431      C4      -C19     :   1.548783
 C5      -C20     :   1.544594      C5      -C21     :   1.549040
 C5      -C22     :   1.540745      C6      -C7      :   1.426604
 C6      -C11     :   1.406705      C6      -C12     :   1.453545
 C7      -C8      :   1.409488      C7      -C23     :   1.513393
 C8      -C9      :   1.394985      C8      -H24     :   1.097968
 C9      -C10     :   1.393703      C9      -H25     :   1.097709
 C10     -C11     :   1.395390      C10     -H26     :   1.098329
 C11     -H27     :   1.084706      C12     -C13     :   1.408846
 C13     -C14     :   1.395965      C13     -H28     :   1.089061
 C14     -C15     :   1.390841      C14     -H29     :   1.098806
 C15     -C16     :   1.395850      C15     -H30     :   1.098452
 C16     -H31     :   1.085281      C17     -H32     :   1.104686
 C17     -H33     :   1.109104      C17     -H34     :   1.103957
 C18     -H35     :   1.107852      C18     -H36     :   1.109124
 C18     -H37     :   1.109153      C19     -H38     :   1.106104
 C19     -H39     :   1.109891      C19     -H40     :   1.105329
 C20     -H41     :   1.108020      C20     -H42     :   1.106960
 C20     -H43     :   1.108826      C21     -H44     :   1.106210
 C21     -H45     :   1.109286      C21     -H46     :   1.103950
 C22     -H47     :   1.103630      C22     -H48     :   1.105301
 C22     -H49     :   1.109820      C23     -H50     :   1.109179
 C23     -H51     :   1.108774      C23     -H52     :   1.108529
 
  bond angles:
 
 C3      -P1      -Pd2     : 109.245399  C4      -P1      -Pd2     : 114.463447
 C4      -P1      -C3      : 112.039701  C5      -P1      -Pd2     : 108.377208
 C5      -P1      -C3      : 100.440187  C5      -P1      -C4      : 111.322132
 Br3     -Pd2     -P1      : 106.629905  C76     -Pd2     -P1      : 170.127578
 C76     -Pd2     -Br3     :  82.934589  C78     -C73     -C74     : 122.134845
 F79     -C73     -C74     : 118.972545  F79     -C73     -C78     : 118.891126
 C75     -C74     -C73     : 118.545890  H80     -C74     -C73     : 119.641263
 H80     -C74     -C75     : 121.810378  C76     -C75     -C74     : 120.827669
 H81     -C75     -C74     : 118.881052  H81     -C75     -C76     : 120.291253
 C75     -C76     -Pd2     : 120.242320  C77     -C76     -Pd2     : 119.945357
 C77     -C76     -C75     : 119.003669  C78     -C77     -C76     : 120.865145
 H82     -C77     -C76     : 120.157689  H82     -C77     -C78     : 118.976855
 C77     -C78     -C73     : 118.582693  H83     -C78     -C73     : 119.615446
 H83     -C78     -C77     : 121.800934  C12     -C3      -P1      : 128.271955
 C16     -C3      -P1      : 113.986900  C16     -C3      -C12     : 117.667985
 C17     -C4      -P1      : 114.295127  C18     -C4      -P1      : 111.058217
 C18     -C4      -C17     : 107.959127  C19     -C4      -P1      : 113.119847
 C19     -C4      -C17     : 105.296288  C19     -C4      -C18     : 104.449394
 C20     -C5      -P1      : 109.671252  C21     -C5      -P1      : 117.826635
 C21     -C5      -C20     : 107.379512  C22     -C5      -P1      : 110.147426
 C22     -C5      -C20     : 106.076766  C22     -C5      -C21     : 105.051276
 C11     -C6      -C7      : 114.299496  C12     -C6      -C7      : 127.353198
 C12     -C6      -C11     : 118.334519  C8      -C7      -C6      : 120.075279
 C23     -C7      -C6      : 124.671947  C23     -C7      -C8      : 115.186505
 C9      -C8      -C7      : 123.433728  H24     -C8      -C7      : 119.791545
 H24     -C8      -C9      : 116.771527  C10     -C9      -C8      : 117.436778
 H25     -C9      -C8      : 121.431523  H25     -C9      -C10     : 121.126332
 C11     -C10     -C9      : 118.975764  H26     -C10     -C9      : 120.753595
 H26     -C10     -C11     : 120.262373  C10     -C11     -C6      : 125.769503
 H27     -C11     -C6      : 118.836079  H27     -C11     -C10     : 115.357616
 C6      -C12     -C3      : 127.361056  C13     -C12     -C3      : 116.214909
 C13     -C12     -C6      : 116.421300  C14     -C13     -C12     : 125.119223
 H28     -C13     -C12     : 121.170374  H28     -C13     -C14     : 113.671792
 C15     -C14     -C13     : 118.487330  H29     -C14     -C13     : 120.967405
 H29     -C14     -C15     : 120.541176  C16     -C15     -C14     : 117.723428
 H30     -C15     -C14     : 121.361680  H30     -C15     -C16     : 120.914330
 C15     -C16     -C3      : 124.785437  H31     -C16     -C3      : 119.936145
 H31     -C16     -C15     : 115.247942  H32     -C17     -C4      : 112.838500
 H33     -C17     -C4      : 110.894450  H33     -C17     -H32     : 106.167652
 H34     -C17     -C4      : 113.082784  H34     -C17     -H32     : 107.428828
 H34     -C17     -H33     : 105.953021  H35     -C18     -C4      : 111.920768
 H36     -C18     -C4      : 111.785833  H36     -C18     -H35     : 109.025324
 H37     -C18     -C4      : 111.286368  H37     -C18     -H35     : 106.227763
 H37     -C18     -H36     : 106.287356  H38     -C19     -C4      : 112.669624
 H39     -C19     -C4      : 111.414634  H39     -C19     -H38     : 106.385312
 H40     -C19     -C4      : 111.711831  H40     -C19     -H38     : 108.268525
 H40     -C19     -H39     : 106.020714  H41     -C20     -C5      : 112.293394
 H42     -C20     -C5      : 111.720143  H42     -C20     -H41     : 107.969835
 H43     -C20     -C5      : 111.455164  H43     -C20     -H41     : 107.155166
 H43     -C20     -H42     : 105.915055  H44     -C21     -C5      : 114.037707
 H45     -C21     -C5      : 110.678809  H45     -C21     -H44     : 105.047317
 H46     -C21     -C5      : 113.018995  H46     -C21     -H44     : 107.980621
 H46     -C21     -H45     : 105.430052  H47     -C22     -C5      : 112.096128
 H48     -C22     -C5      : 112.206229  H48     -C22     -H47     : 107.327991
 H49     -C22     -C5      : 111.299736  H49     -C22     -H47     : 106.499527
 H49     -C22     -H48     : 107.081733  H50     -C23     -C7      : 112.026340
 H51     -C23     -C7      : 112.033133  H51     -C23     -H50     : 112.027024
 H52     -C23     -C7      : 111.599882  H52     -C23     -H50     : 105.020397
 H52     -C23     -H51     : 103.610673
 
  torsional angles:
 
 P1      -Pd2     -C76     -C75     : -94.878897
 P1      -Pd2     -C76     -C77     :  74.722373
 P1      -C3      -C12     -C6      :  -4.271139
 P1      -C3      -C12     -C13     : 176.356172
 P1      -C3      -C16     -C15     :-176.671643
 P1      -C3      -C16     -H31     :   1.221702
 P1      -C4      -C17     -H32     :  62.531369
 P1      -C4      -C17     -H33     :-178.509968
 P1      -C4      -C17     -H34     : -59.661524
 P1      -C4      -C18     -H35     : -63.963754
 P1      -C4      -C18     -H36     :  58.669480
 P1      -C4      -C18     -H37     : 177.345799
 P1      -C4      -C19     -H38     :  58.799447
 P1      -C4      -C19     -H39     : 178.284574
 P1      -C4      -C19     -H40     : -63.339554
 P1      -C5      -C20     -H41     : -56.333821
 P1      -C5      -C20     -H42     :  65.149220
 P1      -C5      -C20     -H43     :-176.575947
 P1      -C5      -C21     -H44     :  67.334544
 P1      -C5      -C21     -H45     :-174.488784
 P1      -C5      -C21     -H46     : -56.496662
 P1      -C5      -C22     -H47     : -59.374244
 P1      -C5      -C22     -H48     :  61.485031
 P1      -C5      -C22     -H49     :-178.535884
 Pd2     -P1      -C3      -C12     :  -2.586367
 Pd2     -P1      -C3      -C16     : 174.196385
 Pd2     -P1      -C4      -C17     : -71.512142
 Pd2     -P1      -C4      -C18     :  50.921133
 Pd2     -P1      -C4      -C19     : 167.993700
 Pd2     -P1      -C5      -C20     : -68.434551
 Pd2     -P1      -C5      -C21     : 168.377792
 Pd2     -P1      -C5      -C22     :  47.951260
 Pd2     -C76     -C75     -C74     : 167.417777
 Pd2     -C76     -C75     -H81     : -12.641046
 Pd2     -C76     -C77     -C78     :-167.606151
 Pd2     -C76     -C77     -H82     :  12.189016
 Br3     -Pd2     -P1      -C3      : 174.902240
 Br3     -Pd2     -P1      -C4      :  48.354051
 Br3     -Pd2     -P1      -C5      : -76.541603
 Br3     -Pd2     -C76     -C75     :  99.247421
 Br3     -Pd2     -C76     -C77     : -91.151309
 C73     -C74     -C75     -C76     :   0.967149
 C73     -C74     -C75     -H81     :-178.974845
 C73     -C78     -C77     -C76     :  -0.658326
 C73     -C78     -C77     -H82     : 179.544125
 C74     -C73     -C78     -C77     :  -0.706463
 C74     -C73     -C78     -H83     : 178.949745
 C74     -C75     -C76     -C77     :  -2.280699
 C75     -C74     -C73     -C78     :   0.552952
 C75     -C74     -C73     -F79     :-179.895358
 C75     -C76     -C77     -C78     :   2.123557
 C75     -C76     -C77     -H82     :-178.081276
 C76     -Pd2     -P1      -C3      :   9.544328
 C76     -Pd2     -P1      -C4      :-117.003861
 C76     -Pd2     -P1      -C5      : 118.100484
 C76     -C75     -C74     -H80     :-179.606794
 C76     -C77     -C78     -H83     : 179.693345
 C77     -C76     -C75     -H81     : 177.660479
 C77     -C78     -C73     -F79     : 179.741496
 C78     -C73     -C74     -H80     :-178.885878
 F79     -C73     -C74     -H80     :   0.665812
 F79     -C73     -C78     -H83     :  -0.602297
 H80     -C74     -C75     -H81     :   0.451212
 H82     -C77     -C78     -H83     :  -0.104203
 C3      -P1      -C4      -C17     : 163.398444
 C3      -P1      -C4      -C18     : -74.168280
 C3      -P1      -C4      -C19     :  42.904287
 C3      -P1      -C5      -C20     :  46.046265
 C3      -P1      -C5      -C21     : -77.141392
 C3      -P1      -C5      -C22     : 162.432076
 C3      -C12     -C6      -C7      :  95.553472
 C3      -C12     -C6      -C11     : -85.828098
 C3      -C12     -C13     -C14     :  -0.023643
 C3      -C12     -C13     -H28     : 177.570127
 C3      -C16     -C15     -C14     :  -0.243216
 C3      -C16     -C15     -H30     :-179.974183
 C4      -P1      -C3      -C12     : 125.332297
 C4      -P1      -C3      -C16     : -57.884951
 C4      -P1      -C5      -C20     : 164.831293
 C4      -P1      -C5      -C21     :  41.643637
 C4      -P1      -C5      -C22     : -78.782896
 C5      -P1      -C3      -C12     :-116.407603
 C5      -P1      -C3      -C16     :  60.375150
 C5      -P1      -C4      -C17     :  51.813673
 C5      -P1      -C4      -C18     : 174.246948
 C5      -P1      -C4      -C19     : -68.680485
 C6      -C7      -C8      -C9      :   0.203194
 C6      -C7      -C8      -H24     : 179.530880
 C6      -C7      -C23     -H50     :  85.358235
 C6      -C7      -C23     -H51     : -41.524096
 C6      -C7      -C23     -H52     :-157.199212
 C6      -C11     -C10     -C9      :   0.398081
 C6      -C11     -C10     -H26     : 179.360041
 C6      -C12     -C3      -C16     : 179.047880
 C6      -C12     -C13     -C14     :-179.466886
 C6      -C12     -C13     -H28     :  -1.873116
 C7      -C6      -C11     -C10     :   0.477744
 C7      -C6      -C11     -H27     : 178.162243
 C7      -C6      -C12     -C13     : -85.074958
 C7      -C8      -C9      -C10     :   0.693375
 C7      -C8      -C9      -H25     : 179.859592
 C8      -C7      -C6      -C11     :  -0.755593
 C8      -C7      -C6      -C12     : 177.910164
 C8      -C7      -C23     -H50     : -97.613131
 C8      -C7      -C23     -H51     : 135.504538
 C8      -C7      -C23     -H52     :  19.829422
 C8      -C9      -C10     -C11     :  -0.965152
 C8      -C9      -C10     -H26     :-179.921854
 C9      -C8      -C7      -C23     :-176.973021
 C9      -C10     -C11     -H27     :-177.357303
 C10     -C9      -C8      -H24     :-178.653115
 C10     -C11     -C6      -C12     :-178.317307
 C11     -C6      -C7      -C23     : 176.137077
 C11     -C6      -C12     -C13     :  93.543472
 C11     -C10     -C9      -H25     : 179.865937
 C12     -C3      -C16     -C15     :   0.476778
 C12     -C3      -C16     -H31     : 178.370123
 C12     -C6      -C7      -C23     :  -5.197166
 C12     -C6      -C11     -H27     :  -0.632807
 C12     -C13     -C14     -C15     :   0.259202
 C12     -C13     -C14     -H29     : 179.527470
 C13     -C12     -C3      -C16     :  -0.324809
 C13     -C14     -C15     -C16     :  -0.125721
 C13     -C14     -C15     -H30     : 179.603974
 C14     -C15     -C16     -H31     :-178.224846
 C15     -C14     -C13     -H28     :-177.492890
 C16     -C15     -C14     -H29     :-179.397221
 C17     -C4      -C18     -H35     :  62.070048
 C17     -C4      -C18     -H36     :-175.296718
 C17     -C4      -C18     -H37     : -56.620398
 C17     -C4      -C19     -H38     : -66.690949
 C17     -C4      -C19     -H39     :  52.794178
 C17     -C4      -C19     -H40     : 171.170050
 C18     -C4      -C17     -H32     : -61.575601
 C18     -C4      -C17     -H33     :  57.383062
 C18     -C4      -C17     -H34     : 176.231505
 C18     -C4      -C19     -H38     : 179.694703
 C18     -C4      -C19     -H39     : -60.820170
 C18     -C4      -C19     -H40     :  57.555702
 C19     -C4      -C17     -H32     :-172.711939
 C19     -C4      -C17     -H33     : -53.753276
 C19     -C4      -C17     -H34     :  65.095168
 C19     -C4      -C18     -H35     : 173.779621
 C19     -C4      -C18     -H36     : -63.587145
 C19     -C4      -C18     -H37     :  55.089174
 C20     -C5      -C21     -H44     : -57.001998
 C20     -C5      -C21     -H45     :  61.174675
 C20     -C5      -C21     -H46     : 179.166796
 C20     -C5      -C22     -H47     :  59.238847
 C20     -C5      -C22     -H48     :-179.901878
 C20     -C5      -C22     -H49     : -59.922794
 C21     -C5      -C20     -H41     :  72.814618
 C21     -C5      -C20     -H42     :-165.702340
 C21     -C5      -C20     -H43     : -47.427507
 C21     -C5      -C22     -H47     : 172.779409
 C21     -C5      -C22     -H48     : -66.361316
 C21     -C5      -C22     -H49     :  53.617769
 C22     -C5      -C20     -H41     :-175.261005
 C22     -C5      -C20     -H42     : -53.777963
 C22     -C5      -C20     -H43     :  64.496869
 C22     -C5      -C21     -H44     :-169.623751
 C22     -C5      -C21     -H45     : -51.447078
 C22     -C5      -C21     -H46     :  66.545044
 C23     -C7      -C8      -H24     :   2.354665
 H24     -C8      -C9      -H25     :   0.513102
 H25     -C9      -C10     -H26     :   0.909235
 H26     -C10     -C11     -H27     :   1.604657
 H28     -C13     -C14     -H29     :   1.775378
 H29     -C14     -C15     -H30     :   0.332474
 H30     -C15     -C16     -H31     :   2.044187
 
  nuclear repulsion energy.......          3726.290329691 hartrees
 -------------------------------------------------
   end of geometry optimization iteration  1
 -------------------------------------------------
   
  end of program geopt
   
 Time(geopt)  user:       0.651  user+sys:       0.651  wallclock:       0.792
  
  start of program onee
  
  smallest eigenvalue of S:    3.855E-04
  number of canonical orbitals.....          514
  end of program onee
   
 Time(onee)  user:       5.895  user+sys:       5.895  wallclock:       4.465
  
  start of program probe
  
  end of program probe
   
 Time(probe)  user:       0.431  user+sys:       0.431  wallclock:       0.335
  
  start of program grid
  
  end of program grid
   
 Time(grid)  user:     192.698  user+sys:     192.698  wallclock:      98.818
  
  start of program rwr
  
  end of program rwr
   
 Time(rwr)  user:      13.914  user+sys:      13.914  wallclock:      17.893
  
  start of program scf
  
 Energy computed using pseudospectral method.
 Convergence Criterion:
    Energy (econv):       1.00E-05
    RMS density (dconv):  5.00E-06
  
       i  u  d  i  g                   
       t  p  i  c  r                                 RMS    maximum
       e  d  i  u  i                       energy  density   DIIS  
       r  t  s  t  d       total energy    change  change    error 
  
etot    1  N  N  2  U   -1629.33728562531           7.6E-04  3.2E-02
etot    2  Y  Y  6  M   -1629.43975012970  1.0E-01  1.6E-04  2.0E-03
etot    3  N  Y  2  U   -1629.44214113635  2.4E-03  6.4E-05  1.6E-03
etot    4  Y  Y  6  M   -1629.44306606572  9.2E-04  2.7E-05  1.2E-03
etot    5  N  Y  2  U   -1629.44305859899 -7.5E-06  1.3E-05  1.1E-03
etot    6  N  Y  2  U   -1629.44310999037  5.1E-05  5.7E-06  1.3E-04
etot    7  N  Y  2  U   -1629.44311409438  4.1E-06  2.6E-06  5.2E-05
etot    8  N  N  2  U   -1629.44311532966  1.2E-06  0.0E+00  0.0E+00
 
  Computing the dispersion energy correction and its gradients...
  
  
 Energy components, in hartrees:
   (A)  Nuclear repulsion............    3726.29032969082
   (E)  Total one-electron terms.....   -9695.42855531007
   (F)    Electron-nuclear...........  -11226.60679840208
   (H)    Kinetic....................    1531.17824309201
   (I)  Total two-electron terms.....    4339.69511028959
   (J)    Coulomb....................    4547.15203922263
   (K)    Exchange+Correlation.......    -207.45692893305
   (L)  Electronic energy............   -5355.73344502048  (E+I)
   (N0) D3 correction................      -0.12099664571
   (N)  Total energy.................   -1629.56411197537  (A+L+N0)
   (O)  Gas phase energy.............   -1629.56411197537
  
 SCFE: SCF energy: DFT(b3pw91-d3)     -1629.56411197537 hartrees   iterations:   8
  
 
 HOMO energy:    -0.21245
 LUMO energy:    -0.09144
 
  Orbital energies (hartrees): 
   -77.08041   -24.67805   -10.24399   -10.21465   -10.21369   -10.21318
   -10.21002   -10.20037   -10.19870   -10.19476   -10.19312   -10.19260
   -10.19213   -10.18113   -10.17668   -10.17607   -10.17399   -10.17279
   -10.17219   -10.17084   -10.16982   -10.16941   -10.16935   -10.16922
   -10.16910   -10.16818   -10.16774   -10.16318   -10.15638    -6.58094
    -4.73925    -4.73850    -4.73513    -3.33673    -2.07562    -2.06023
    -2.03848    -1.20999    -0.88897    -0.86363    -0.85218    -0.83308
    -0.81646    -0.79708    -0.77725    -0.76963    -0.74877    -0.73823
    -0.73279    -0.70053    -0.69387    -0.69092    -0.68898    -0.68449
    -0.68231    -0.66433    -0.63408    -0.61430    -0.61356    -0.60047
    -0.59317    -0.58274    -0.56346    -0.54192    -0.53291    -0.51981
    -0.50056    -0.48051    -0.47659    -0.47524    -0.47377    -0.46691
    -0.46336    -0.46019    -0.45397    -0.45011    -0.44777    -0.44327
    -0.43533    -0.43323    -0.43114    -0.42848    -0.42363    -0.42094
    -0.41188    -0.40903    -0.39948    -0.39488    -0.39010    -0.38766
    -0.38614    -0.38052    -0.37846    -0.37682    -0.37371    -0.36663
    -0.36239    -0.35312    -0.35139    -0.34754    -0.34279    -0.34057
    -0.33642    -0.33409    -0.33346    -0.33036    -0.32494    -0.31644
    -0.31255    -0.29678    -0.27956    -0.27226    -0.26927    -0.26625
    -0.26100    -0.25989    -0.25020    -0.23883    -0.23146    -0.22109
    -0.22031    -0.21245    -0.09144    -0.04576    -0.02897    -0.01616
    -0.01077     0.00270     0.01365     0.02155     0.03845     0.04356
 
  end of program scf
   
 Time(scf)  user:     268.057  user+sys:     268.057  wallclock:     143.487
  
  start of program der1a
  
  end of program der1a
   
 Time(der1a)  user:      18.427  user+sys:      18.427  wallclock:       9.895
  
  start of program rwr
  
  end of program rwr
   
 Time(rwr)  user:      14.548  user+sys:      14.548  wallclock:      18.939
  
  start of program der1b
  
   
  forces (hartrees/bohr) : total     
   
 atom  label           x              y              z
 ---- --------   -------------  -------------  -------------
    1 P1          3.867081E-03  -1.055855E-02   1.537643E-02
    2 Pd2         1.262410E-02   5.790711E-03   6.638992E-03
    3 Br3         9.533509E-04  -4.244250E-04  -2.538427E-03
    4 C73         1.816711E-05   6.660542E-04   3.143192E-03
    5 C74         7.352885E-04   5.636890E-04  -1.749240E-03
    6 C75        -4.194423E-03  -9.900795E-04  -2.643071E-03
    7 C76        -1.578709E-03  -1.808523E-03   3.000377E-03
    8 C77        -5.939377E-03   2.121774E-03  -1.585987E-03
    9 C78        -2.699697E-03  -9.022315E-04   2.086995E-04
   10 F79        -1.080021E-03  -2.471995E-04  -2.580054E-03
   11 H80         7.650924E-05   3.884559E-04  -3.946370E-04
   12 H81        -2.603659E-04   5.644947E-04   1.928028E-04
   13 H82        -7.694631E-04  -6.474979E-04   5.338087E-04
   14 H83        -8.090888E-05  -5.019888E-04  -4.382667E-04
   15 C3         -5.903137E-03   7.889427E-03  -1.025252E-02
   16 C4         -2.871092E-03   1.709441E-02  -2.979036E-02
   17 C5         -1.290981E-02  -1.927569E-02  -1.136784E-02
   18 C6         -1.007827E-02   6.605608E-03   4.930370E-02
   19 C7         -6.613398E-03  -8.978639E-03   6.643480E-03
   20 C8          6.926904E-03   3.599076E-03   6.315637E-03
   21 C9          6.678219E-03  -1.022013E-03  -5.668485E-03
   22 C10         4.598512E-03  -2.853412E-03   3.531704E-04
   23 C11         9.249461E-04   1.890451E-02  -2.244741E-03
   24 C12        -5.326771E-03  -1.247368E-02  -3.297498E-02
   25 C13         1.273271E-02  -2.785302E-04  -4.496459E-03
   26 C14        -3.120361E-03   7.709801E-04  -3.398207E-03
   27 C15         7.636867E-04   1.949085E-04   2.531954E-03
   28 C16         3.976428E-04  -2.069001E-03  -1.070648E-02
   29 C17        -8.602952E-03  -8.636076E-03   1.289827E-02
   30 C18         7.533388E-03   1.380788E-03   1.486720E-02
   31 C19         6.264918E-03  -3.715988E-03  -1.110640E-02
   32 C20         1.197368E-02   4.049059E-04   2.896347E-03
   33 C21         1.124438E-03   1.625383E-03  -1.185477E-02
   34 C22        -9.572251E-03   5.683338E-03   1.073228E-02
   35 C23        -5.689146E-03  -8.987335E-03  -1.680786E-03
   36 H24        -1.662053E-03   2.485143E-03  -8.581707E-03
   37 H25        -6.462470E-04  -3.925849E-03  -9.321222E-03
   38 H26        -1.425136E-03  -7.320195E-03  -3.450420E-03
   39 H27        -2.653794E-03  -6.135591E-04  -6.011318E-03
   40 H28        -4.911408E-03  -4.015344E-04   9.681406E-03
   41 H29        -5.989852E-03   1.172558E-03   5.936389E-03
   42 H30        -1.341650E-03   6.844394E-04   7.892725E-03
   43 H31         1.261561E-03   2.501366E-03   4.714098E-03
   44 H32         4.427065E-03  -3.001891E-03  -4.260911E-03
   45 H33         8.954076E-03  -3.616752E-03   1.746836E-03
   46 H34         4.160157E-03   4.542946E-03   1.405560E-03
   47 H35         3.591204E-03  -2.978520E-03  -5.837802E-03
   48 H36        -6.577162E-03  -2.597025E-03   3.179561E-03
   49 H37         1.051354E-03  -9.256538E-03   4.438006E-04
   50 H38         2.597304E-03   7.586806E-03   3.166889E-03
   51 H39         2.278181E-03  -4.966552E-03   7.076689E-03
   52 H40        -5.881080E-03  -2.010917E-03   1.239557E-03
   53 H41        -7.716246E-03  -2.373249E-03   2.927430E-03
   54 H42        -1.803187E-03   3.562922E-03  -6.313472E-03
   55 H43        -1.594580E-03   8.912382E-03   4.372093E-04
   56 H44        -5.018653E-03   1.115968E-03   6.035732E-03
   57 H45         3.839279E-03   5.326602E-03   5.525813E-03
   58 H46         4.355850E-03  -3.439008E-03   3.761962E-03
   59 H47        -9.312056E-04   3.123871E-03  -5.167579E-03
   60 H48         5.226643E-03  -5.576396E-03   3.141020E-03
   61 H49         5.857028E-03   6.590047E-03  -1.455918E-03
   62 H50        -8.833605E-03   3.550194E-03  -4.989957E-03
   63 H51         1.551215E-02   2.813149E-03  -3.788366E-04
   64 H52         3.337191E-03   8.276227E-03  -3.128324E-03
 -------------   -------------  -------------  -------------
     total        3.665929E-04   4.428593E-05  -2.420173E-03
   
  end of program der1b
   
 Time(der1b)  user:     105.071  user+sys:     105.071  wallclock:      55.723
  
  start of program geopt
  
 ----------------------------------------------------------------------------
  Geometry optimization step  2
  Total energy:     -1629.56411197537 hartrees
 ----------------------------------------------------------------------------
  
  
  Level shifts adjusted to satisfy step-size constraints
   Step size:    0.3008744
   Cos(theta):   0.8930651
   Final level shift:  -2.5256431E-01
  
[...]
    C76      X     0.00020  -0.00000   0.00026  -0.00001   0.00004   0.00002
    C76      Y    -0.00106   0.00003   0.00140  -0.00015   0.00007   0.00000
    C76      Z     0.00048   0.00004   0.00161  -0.00010   0.00001  -0.00001
    C77      X    -0.00009   0.00019   0.01170  -0.00133   0.00049   0.00001
    C77      Y    -0.00027  -0.00084  -0.05066   0.00566  -0.00204  -0.00004
    C77      Z    -0.00042   0.00040   0.02428  -0.00266   0.00090   0.00002
    C78      X     0.00056  -0.00007  -0.00397   0.00034  -0.00007  -0.00001
    C78      Y     0.00520  -0.00085  -0.04945   0.00477  -0.00085  -0.00003
    C78      Z     0.00447  -0.00064  -0.03705   0.00363  -0.00069  -0.00002
    F79      X     0.00011  -0.00000   0.00013  -0.00001   0.00000   0.00000
    F79      Y     0.00013  -0.00000  -0.00018   0.00001   0.00000  -0.00000
    F79      Z     0.00049  -0.00001   0.00044  -0.00004   0.00001   0.00001
    H80      X     0.15647  -0.00133   0.00863  -0.00060   0.00011   0.00008
    H80      Y    -0.82292   0.00699  -0.04615   0.00332  -0.00051  -0.00041
    H80      Z     0.38144  -0.00328   0.02066  -0.00155   0.00025   0.00020
    H81      X    -0.01938   0.00024  -0.00209   0.00006   0.00013   0.00000
    H81      Y    -0.18977   0.00224  -0.02140   0.00042   0.00039  -0.00028
    H81      Z    -0.13037   0.00155  -0.01383   0.00032   0.00025  -0.00020
    H82      X    -0.00016  -0.00215  -0.12750   0.01443  -0.00530  -0.00006
    H82      Y     0.00110   0.00973   0.57952  -0.06485   0.02320   0.00039
    H82      Z     0.00018  -0.00421  -0.25174   0.02820  -0.00991  -0.00019
    H83      X    -0.00471   0.00070   0.04087  -0.00385   0.00070   0.00003
    H83      Y    -0.06207   0.00955   0.55567  -0.05416   0.00981   0.00037
    H83      Z    -0.04597   0.00694   0.40430  -0.03962   0.00730   0.00028
    C3       X    -0.00002  -0.00015  -0.00002  -0.00003  -0.00001   0.00081
    C3       Y    -0.00000  -0.00003  -0.00000   0.00001   0.00000  -0.00056
    C3       Z    -0.00003  -0.00023  -0.00004  -0.00004  -0.00010  -0.00259
    C4       X     0.00001   0.00000   0.00002  -0.00005  -0.00009  -0.00005
    C4       Y    -0.00002   0.00003  -0.00003   0.00002   0.00002   0.00002
    C4       Z    -0.00002  -0.00001  -0.00004   0.00001   0.00003   0.00007
    C5       X     0.00001  -0.00002   0.00001  -0.00000  -0.00000  -0.00014
    C5       Y     0.00002  -0.00002   0.00002  -0.00001  -0.00001   0.00003
    C5       Z    -0.00004  -0.00000  -0.00004   0.00001   0.00002   0.00007
    C6       X     0.00003   0.00010   0.00002  -0.00017  -0.00003   0.00004
    C6       Y     0.00001  -0.00000   0.00005   0.00103   0.00202  -0.00002
    C6       Z     0.00000   0.00003  -0.00001   0.00036   0.00099  -0.00004
    C7       X     0.00000  -0.00000  -0.00008  -0.00054  -0.00004  -0.00000
    C7       Y     0.00005  -0.00007  -0.00007  -0.00048   0.00062   0.00003
    C7       Z     0.00002  -0.00005  -0.00021  -0.00139   0.00005   0.00003
    C8       X    -0.00029   0.00005   0.00164   0.00925  -0.00329  -0.00002
    C8       Y     0.00047  -0.00012  -0.00313  -0.01867   0.00687   0.00002
    C8       Z    -0.00050   0.00011   0.00292   0.01630  -0.00562  -0.00003
    C9       X     0.00004   0.00001   0.00318   0.02344  -0.01006  -0.00002
    C9       Y     0.00000   0.00004   0.00304   0.02161  -0.00713  -0.00001
    C9       Z     0.00009   0.00002   0.00774   0.05648  -0.02354  -0.00005
    C10      X     0.00001  -0.00001  -0.00019  -0.00318   0.00199   0.00000
    C10      Y    -0.00002  -0.00016   0.00040   0.02403  -0.04137  -0.00006
    C10      Z     0.00002  -0.00005  -0.00020   0.00173  -0.01021  -0.00001
    C11      X     0.00000   0.00023   0.00027   0.01273   0.02247   0.00000
    C11      Y    -0.00003  -0.00046  -0.00073  -0.02664  -0.04255  -0.00000
    C11      Z    -0.00000   0.00042   0.00065   0.02723   0.04840   0.00002
    C12      X    -0.00001  -0.00158   0.00003   0.00001  -0.00004  -0.00057
    C12      Y     0.00000   0.00035  -0.00001  -0.00013  -0.00021  -0.00002
    C12      Z     0.00001   0.00090  -0.00003  -0.00000   0.00007  -0.00043
    C13      X     0.00022   0.02875  -0.00051  -0.00026  -0.00029  -0.00114
    C13      Y     0.00001   0.00160  -0.00002  -0.00001  -0.00002  -0.00008
    C13      Z     0.00022   0.02710  -0.00047  -0.00032  -0.00047  -0.00122
    C14      X     0.00064   0.06147  -0.00096  -0.00009  -0.00043  -0.00290
    C14      Y    -0.00012  -0.01145   0.00018   0.00003   0.00011   0.00036
    C14      Z    -0.00022  -0.02196   0.00035   0.00008   0.00023   0.00002
    C15      X     0.00002   0.00237  -0.00004  -0.00002  -0.00003  -0.00446
    C15      Y    -0.00007  -0.00672   0.00011  -0.00000   0.00002   0.00302
    C15      Z    -0.00038  -0.03717   0.00063  -0.00002   0.00011   0.01411
    C16      X     0.00003   0.00452  -0.00009   0.00006  -0.00006   0.06286
    C16      Y     0.00000   0.00053  -0.00001  -0.00000  -0.00001   0.00161
    C16      Z     0.00004   0.00601  -0.00013   0.00003  -0.00010   0.05226
    C17      X     0.00001  -0.00002   0.00001   0.00001   0.00003   0.00002
    C17      Y    -0.00000   0.00000  -0.00003  -0.00000  -0.00001   0.00003
    C17      Z     0.00001  -0.00002   0.00005  -0.00001   0.00001   0.00002
    C18      X     0.00000  -0.00004  -0.00003  -0.00046  -0.00041  -0.00003
    C18      Y    -0.00002   0.00002  -0.00003   0.00002  -0.00003  -0.00005
    C18      Z     0.00002   0.00001   0.00002   0.00006   0.00008   0.00011
    C19      X    -0.00001  -0.00033  -0.00001  -0.00004   0.00001  -0.00187
    C19      Y     0.00000   0.00007  -0.00001   0.00002   0.00002  -0.00042
    C19      Z     0.00002   0.00004   0.00002  -0.00000   0.00001   0.00008
    C20      X     0.00000  -0.00005  -0.00001  -0.00004   0.00002  -0.00010
    C20      Y     0.00003  -0.00004   0.00002  -0.00002   0.00002   0.00003
    C20      Z     0.00000   0.00005   0.00000   0.00001   0.00001   0.00021
    C21      X    -0.00000  -0.00088   0.00002  -0.00004   0.00001  -0.00383
    C21      Y     0.00001   0.00009  -0.00001   0.00001   0.00001   0.00058
    C21      Z     0.00002   0.00041   0.00002   0.00000  -0.00001   0.00211
    C22      X     0.00001  -0.00001   0.00003  -0.00003  -0.00000   0.00008
    C22      Y     0.00005  -0.00001   0.00001   0.00001  -0.00001  -0.00002
    C22      Z     0.00001   0.00002   0.00001  -0.00002  -0.00001   0.00015
    C23      X    -0.00004   0.00024  -0.00001   0.00019  -0.00000  -0.00002
    C23      Y     0.00001  -0.00001  -0.00003  -0.00008   0.00010   0.00001
    C23      Z    -0.00021  -0.00006   0.00005   0.00044   0.00004  -0.00001
    H24      X     0.00316  -0.00083  -0.01830  -0.10388   0.03627   0.00022
    H24      Y    -0.00525   0.00129   0.03225   0.18414  -0.06467  -0.00033
    H24      Z     0.00567  -0.00147  -0.03364  -0.19131   0.06653   0.00041
    H25      X    -0.00049  -0.00013  -0.03571  -0.25947   0.10314   0.00021
    H25      Y    -0.00034  -0.00017  -0.03326  -0.23916   0.09242   0.00019
    H25      Z    -0.00098  -0.00046  -0.08727  -0.63290   0.25088   0.00052
    H26      X     0.00001  -0.00012   0.00044   0.01853  -0.02688  -0.00003
    H26      Y     0.00005   0.00165  -0.00148  -0.25881   0.44860   0.00075
    H26      Z     0.00003   0.00033  -0.00017  -0.05261   0.10027   0.00020
    H27      X    -0.00002  -0.00252  -0.00391  -0.15098  -0.25057   0.00005
    H27      Y    -0.00000   0.00532   0.00793   0.30412   0.49823  -0.00008
    H27      Z    -0.00002  -0.00558  -0.00839  -0.32406  -0.53796  -0.00002
    H28      X    -0.00253  -0.33230   0.00593   0.00353   0.00411   0.01270
    H28      Y    -0.00008  -0.01184   0.00020   0.00006   0.00004   0.00048
    H28      Z    -0.00214  -0.27808   0.00491   0.00289   0.00365   0.01073
    H29      X    -0.00703  -0.67953   0.01063   0.00114   0.00508   0.02461
    H29      Y     0.00130   0.12592  -0.00197  -0.00025  -0.00101  -0.00438
    H29      Z     0.00249   0.24137  -0.00377  -0.00042  -0.00189  -0.00736
    H30      X    -0.00052  -0.05336   0.00095  -0.00003   0.00013   0.02379
    H30      Y     0.00077   0.07630  -0.00132   0.00004  -0.00025  -0.02801
    H30      Z     0.00404   0.40181  -0.00691   0.00018  -0.00127  -0.14455
    H31      X    -0.00032  -0.07171   0.00166  -0.00063   0.00087  -0.72319
    H31      Y    -0.00000  -0.00239   0.00006   0.00001   0.00005  -0.01835
    H31      Z    -0.00027  -0.06254   0.00149  -0.00053   0.00061  -0.59937
    H32      X     0.00001  -0.00003   0.00011  -0.00000   0.00005   0.00025
    H32      Y    -0.00002   0.00001   0.00002   0.00003   0.00004   0.00003
    H32      Z     0.00009   0.00008  -0.00043   0.00002  -0.00014  -0.00051
    H33      X    -0.00009   0.00020  -0.00021   0.00010   0.00000  -0.00027
    H33      Y     0.00019  -0.00033   0.00042  -0.00011   0.00013   0.00020
    H33      Z    -0.00007   0.00012  -0.00015   0.00006  -0.00002  -0.00004
    H34      X    -0.00005   0.00008  -0.00002  -0.00015  -0.00035  -0.00017
    H34      Y    -0.00010   0.00019  -0.00007  -0.00010  -0.00035  -0.00020
    H34      Z    -0.00007   0.00012  -0.00002  -0.00007  -0.00022  -0.00013
    H35      X     0.00004   0.00001   0.00001  -0.00052  -0.00072   0.00027
    H35      Y    -0.00004   0.00002  -0.00004   0.00012   0.00010   0.00002
    H35      Z    -0.00010  -0.00012  -0.00002   0.00041   0.00083  -0.00090
    H36      X     0.00005   0.00034   0.00048   0.00860   0.01054   0.00058
    H36      Y    -0.00001   0.00009  -0.00000   0.00028   0.00013   0.00000
    H36      Z     0.00001  -0.00002  -0.00004   0.00007   0.00084   0.00005
    H37      X    -0.00012   0.00019  -0.00015   0.00038  -0.00009  -0.00031
    H37      Y     0.00027  -0.00039   0.00036  -0.00120  -0.00078   0.00050
    H37      Z    -0.00013   0.00018  -0.00016   0.00080   0.00065  -0.00024
    H38      X    -0.00004  -0.00021   0.00001  -0.00003  -0.00006   0.00199
    H38      Y    -0.00011  -0.00074  -0.00001  -0.00006  -0.00018  -0.00076
    H38      Z    -0.00005  -0.00041   0.00003  -0.00007  -0.00014   0.00067
    H39      X    -0.00010   0.00115  -0.00022   0.00019   0.00002   0.00408
    H39      Y     0.00020  -0.00165   0.00039  -0.00031  -0.00004  -0.00486
    H39      Z    -0.00014   0.00058  -0.00028   0.00015   0.00004   0.00138
    H40      X     0.00015   0.00364   0.00015   0.00036   0.00004   0.02179
    H40      Y     0.00002   0.00072  -0.00000   0.00008   0.00000   0.00312
    H40      Z    -0.00002  -0.00080  -0.00002  -0.00013  -0.00005  -0.00444
    H41      X     0.00007   0.00043   0.00011   0.00032  -0.00013   0.00192
    H41      Y     0.00001  -0.00018   0.00000  -0.00002   0.00003   0.00002
    H41      Z    -0.00006  -0.00024  -0.00009  -0.00023   0.00016  -0.00068
    H42      X    -0.00001  -0.00008   0.00001   0.00001   0.00001  -0.00027
    H42      Y     0.00006  -0.00007   0.00005  -0.00002  -0.00003  -0.00012
    H42      Z     0.00001  -0.00035   0.00007   0.00010  -0.00028  -0.00174
    H43      X    -0.00017   0.00037  -0.00008   0.00017  -0.00010  -0.00031
    H43      Y    -0.00039   0.00065  -0.00023   0.00032  -0.00017  -0.00048
    H43      Z    -0.00006   0.00003  -0.00002   0.00003  -0.00003   0.00006
    H44      X     0.00013   0.00831  -0.00006   0.00021  -0.00009   0.04195
    H44      Y     0.00003   0.00040   0.00001  -0.00001  -0.00000   0.00381
    H44      Z    -0.00008  -0.00648   0.00007  -0.00019   0.00008  -0.03255
    H45      X    -0.00019   0.00075  -0.00020   0.00009  -0.00001   0.00191
    H45      Y    -0.00036   0.00168  -0.00040   0.00019  -0.00006   0.00443
    H45      Z    -0.00012   0.00014  -0.00013   0.00005   0.00003   0.00029
    H46      X    -0.00002   0.00228  -0.00014   0.00020  -0.00001   0.00913
    H46      Y     0.00005  -0.00255   0.00018  -0.00022   0.00002  -0.00999
    H46      Z    -0.00000   0.00116  -0.00006   0.00010  -0.00001   0.00447
    H47      X    -0.00001  -0.00008   0.00004   0.00000   0.00003  -0.00043
    H47      Y     0.00006  -0.00004   0.00000  -0.00000  -0.00000  -0.00008
    H47      Z    -0.00013  -0.00032  -0.00002   0.00014   0.00015  -0.00207
    H48      X     0.00019   0.00002  -0.00019   0.00020  -0.00003  -0.00022
    H48      Y    -0.00016  -0.00004   0.00021  -0.00020   0.00005   0.00034
    H48      Z     0.00007   0.00000  -0.00008   0.00005  -0.00001  -0.00009
    H49      X    -0.00024   0.00021  -0.00015   0.00009   0.00003  -0.00026
    H49      Y    -0.00050   0.00036  -0.00028   0.00017   0.00005  -0.00039
    H49      Z    -0.00012   0.00004  -0.00004   0.00003   0.00003  -0.00001
    H50      X    -0.00006  -0.00288  -0.00006  -0.00122   0.00110   0.00026
    H50      Y    -0.00006   0.00098   0.00013   0.00071  -0.00071  -0.00010
    H50      Z    -0.00003   0.00026   0.00009   0.00073  -0.00025  -0.00005
    H51      X     0.00101   0.00019   0.00001  -0.00151  -0.00067   0.00003
    H51      Y     0.00040  -0.00007   0.00018   0.00020  -0.00062   0.00007
    H51      Z     0.00150  -0.00008   0.00007  -0.00194  -0.00102   0.00002
    H52      X    -0.00045  -0.00042   0.00020   0.00110  -0.00016  -0.00002
    H52      Y    -0.00094  -0.00032   0.00048   0.00220  -0.00074  -0.00008
    H52      Z     0.00097   0.00066  -0.00047  -0.00222   0.00038   0.00013
  
  Number of imaginary frequencies:   0
   
  Writing vibrational animation data to ox_add_Br_trans_L1_PL154_2.vib
  Writing IR vibrational spectrum data to ox_add_Br_trans_L1_PL154_2_vib.spm
  rotational symmetry number:  1

  rotational temperatures (K):      0.008184      0.004939      0.003831
   
  The Quasi-Harmonic approximation will be applied to compute
  vibrational constributions to thermodynamic properties.
  Frequencies will be adjusted to a minimum value of  100.00 cm^-1.

  vibrational temperatures:
       mode:      1        2        3        4        5        6
  temp. (K):   143.88   143.88   143.88   143.88   143.88   143.88
   
       mode:      7        8        9       10       11       12
  temp. (K):   143.88   143.88   143.88   146.44   157.64   164.11
   
       mode:     13       14       15       16       17       18
  temp. (K):   177.44   181.42   188.68   206.75   236.12   253.50
   
       mode:     19       20       21       22       23       24
  temp. (K):   277.98   296.25   300.35   307.11   327.38   349.05
   
       mode:     25       26       27       28       29       30
  temp. (K):   356.11   358.45   371.67   392.45   396.13   414.07
   
       mode:     31       32       33       34       35       36
  temp. (K):   436.07   450.97   460.89   482.24   487.20   503.57
   
       mode:     37       38       39       40       41       42
  temp. (K):   507.57   527.18   530.13   557.34   580.78   587.27
   
       mode:     43       44       45       46       47       48
  temp. (K):   590.47   593.76   598.25   612.83   621.85   669.81
   
       mode:     49       50       51       52       53       54
  temp. (K):   704.55   733.77   745.03   751.61   766.59   819.44
   
       mode:     55       56       57       58       59       60
  temp. (K):   831.66   850.94   857.33   896.72   907.49   909.62
   
       mode:     61       62       63       64       65       66
  temp. (K):   990.59  1012.79  1056.51  1089.26  1108.05  1115.47
   
       mode:     67       68       69       70       71       72
  temp. (K):  1148.70  1176.17  1184.18  1193.41  1195.66  1201.03
   
       mode:     73       74       75       76       77       78
  temp. (K):  1202.92  1287.93  1312.78  1350.25  1368.51  1376.98
   
       mode:     79       80       81       82       83       84
  temp. (K):  1382.14  1387.77  1393.44  1394.86  1414.18  1420.75
   
       mode:     85       86       87       88       89       90
  temp. (K):  1430.99  1450.60  1462.19  1469.54  1472.50  1477.17
   
       mode:     91       92       93       94       95       96
  temp. (K):  1504.63  1518.73  1523.37  1525.58  1529.58  1544.76
   
       mode:     97       98       99      100      101      102
  temp. (K):  1554.21  1563.19  1597.37  1615.53  1655.13  1685.48
   
       mode:    103      104      105      106      107      108
  temp. (K):  1714.52  1740.46  1743.76  1750.66  1757.49  1771.90
   
       mode:    109      110      111      112      113      114
  temp. (K):  1775.20  1787.08  1798.14  1801.27  1835.30  1842.31
   
       mode:    115      116      117      118      119      120
  temp. (K):  1873.29  1895.16  1897.71  1941.92  1951.53  1980.58
   
       mode:    121      122      123      124      125      126
  temp. (K):  2043.99  2049.88  2051.56  2056.95  2059.20  2066.62
   
       mode:    127      128      129      130      131      132
  temp. (K):  2096.51  2108.15  2116.32  2133.08  2157.78  2164.15
   
       mode:    133      134      135      136      137      138
  temp. (K):  2166.53  2171.39  2173.67  2176.41  2181.31  2186.62
   
       mode:    139      140      141      142      143      144
  temp. (K):  2190.94  2197.85  2202.47  2203.46  2208.37  2213.95
   
       mode:    145      146      147      148      149      150
  temp. (K):  2218.69  2228.03  2238.56  2333.67  2346.80  2365.06
   
       mode:    151      152      153      154      155      156
  temp. (K):  2370.76  2378.66  2382.86  4371.08  4373.95  4378.45
   
       mode:    157      158      159      160      161      162
  temp. (K):  4382.79  4383.58  4385.29  4392.57  4471.35  4473.60
   
       mode:    163      164      165      166      167      168
  temp. (K):  4475.03  4484.84  4487.14  4494.34  4510.65  4516.19
   
       mode:    169      170      171      172      173      174
  temp. (K):  4521.38  4535.61  4540.22  4548.51  4553.64  4568.47
   
       mode:    175      176      177      178      179      180
  temp. (K):  4574.32  4590.44  4594.68  4604.08  4604.92  4609.42
   
       mode:    181      182      183      184      185      186
  temp. (K):  4619.90  4624.77  4627.43  4630.63  4644.31  4681.43
   
   
  Thermodynamic properties calculated assuming an ideal gas

  In the table below, the units for temperature
  are kelvins, the units for U, H, and G are
  kcal/mol and the units for Cv and S are cal/(mol K)

  The zero point energy (ZPE):    336.260 kcal/mol
  is not included in U, H, or G in the table below
  
 
  =============================================================================
  Thermodynamic properties for P = 1.00E+00 atm, calculated at   1 temperatures


  T =   298.15 K, P = 1.00E+00 atm
   
                  U         Cv          S          H          G        ln(Q)
              =========  =========  =========  =========  =========  =========
  trans.          0.889      2.981     45.019      1.481    -11.941   20.15452
  rot.            0.889      2.981     36.682      0.889    -10.048   16.95914
  vib.           18.446    121.256    111.192     18.446    -14.706   24.82036
  elec.           0.000      0.000      0.000      0.000      0.000    0.00000
  ----------------------------------------------------------------------------
  total          20.224    127.217    192.893     20.816    -36.695   61.93401
   
   Total internal energy, Utot(SCFE + ZPE + U):   -1629.053373 hartrees
   Total enthalpy, Htot (Utot + nRT), with n=1:   -1629.052429 hartrees
    Total Gibbs free energy, Gtot (Htot - T*S):   -1629.144079 hartrees
   
  end of program freq
   
 Time(freq)  user:       0.355  user+sys:       0.355  wallclock:       0.505
  
  start of program post
  
  Writing input files for PBF
  end of program post
   
 Time(post)  user:       0.176  user+sys:       0.176  wallclock:       0.143

 Total cpu seconds     user:   49990.465   user+sys:   49990.465
  
 Total elapsed time:    28726 seconds

Job ox_add_Br_trans_L1_PL154_2 completed on bp1-compute064.data.bp.acrc.priv at Wed Apr 23 09:14:16 2025
