Job ox_add_TS_L1_PL154_3 started on bp1-compute097.data.bp.acrc.priv at Thu Apr 10 13:34:40 2025
jobid: bp1-compute097-0-67f7bad0

  +--------------------------------------------------------------------+
  |  Jaguar version 12.5, release 138                                  |
  |                                                                    |
  |  Copyright Schrodinger, Inc.                                       |
  |  All Rights Reserved.                                              |
  |                                                                    |
  |  The following have contributed to Jaguar (listed alphabetically): |
  |  Ty Balduf, Mike Beachy, Chandler Bennett, Art Bochevarov,         |
  |  Dale Braden, Yixiang Cao, Alan Chien, Chris Cortis,               |
  |  Rich Friesner, Jim Furness, Bill Goddard, Hod Greeley,            |
  |  Tom Hughes, Leif Jacobson, Jean-Marc Langlois, Daniel Levine,     |
  |  Rob Murphy, Dean Philipp, Tom Pollard, Murco Ringnalda,           |
  |  Daniel Mainz, Pablo Videla, Mark Watson, Haoyu Yu.                |
  |                                                                    |
  |  Use of this program should be acknowledged in publications as:    |
  |                                                                    |
  |  Jaguar, version 12.5, Schrodinger, Inc., New York, NY, 2024.      |
  |                                                                    |
  |  A. D. Bochevarov, E. Harder, T. F. Hughes, J. R. Greenwood,       |
  |  D. A. Braden, D. M. Philipp, D. Rinaldo, M. D. Halls,             |
  |  J. Zhang, R. A. Friesner, "Jaguar: A High-Performance Quantum     |
  |  Chemistry Software Program with Strengths in Life and Materials   |
  |  Sciences", Int. J. Quantum Chem., 2013, 113(18), 2110-2142.       |
  +--------------------------------------------------------------------+
  
  start of program pre
  
  Job name: ox_add_TS_L1_PL154_3
  Executables used: /software/local/apps/schrodinger2024-3/jaguar-v12.5/bin/Linux-x86_64
  Temporary files : /tmp/ar21627/ox_add_TS_L1_PL154_3#bp1-compute097-0-67f7bad0
  Basis file : using default basis file from /software/local/apps/schrodinger2024-3
  Maestro file (input):  ox_add_TS_L1_PL154_3.mae
  Maestro file (output): ox_add_TS_L1_PL154_3.01.mae
  
 Contents of input file: &gen and (if present) &atomic sections only
 ----------------Contents start----------------
&gen
dftname=b3pw91-d3
basis=6-31G*
numd=5
ip11=2
iaccg=3
isolv=2
igeopt=2
solvent=benzene
ifreq=1
&
&atomic
atom basis
Pd2 lacv3p*
Br3 lacv3p*
&
 -----------------Contents end-----------------
 
  PS calculation requested. Using PS version of 6-31g*
  basis set:               non_standard                    
  net molecular charge:    0
  multiplicity:            1
  
  Using up to   4 threads per process
  
  This run will use ECP on            2  atoms
  number of basis functions....          516
  
 Input geometry:
                                   angstroms
  atom               x                 y                 z
  P1            0.0000000000      0.0000000000      0.0000000000 
  Pd2           0.0000000000      0.0000000000      2.3517789536 
  Br3           0.2177891030      0.7346406723      4.9368598229 
  C73          -4.2040814192     -0.0617039410      2.9127357591 
  C74          -3.6434302909      1.2057308652      2.8048140424 
  C75          -2.3328212646      1.4022375892      3.2293132251 
  C76          -1.5980276442      0.2949075245      3.6996056735 
  C77          -2.2048796404     -0.9620407076      3.8869168860 
  C78          -3.5201223575     -1.1410725407      3.4545447261 
  F79          -5.4716356675     -0.2493926753      2.4716146853 
  H80          -4.2167948022      2.0142725029      2.3637187193 
  H81          -1.8668543449      2.3777844464      3.1519386351 
  H82          -1.6507994612     -1.7766879020      4.3407327667 
  H83          -4.0128835612     -2.1060262633      3.5340289843 
  C3            1.8168740000      0.0000000000     -0.5778410000 
  C4           -0.8434890000      1.4252840000     -0.9715180000 
  C5           -0.8972560000     -1.6587410000     -0.3454820000 
  C6            3.2706737804      0.3898515544      1.5370160921 
  C7            3.7477042751     -0.4959757230      2.5580632433 
  C8            3.9025904091     -0.0431915451      3.8878286434 
  C9            3.6093217185      1.2588306290      4.3018227875 
  C10           3.1383742999      2.1430289631      3.3341453684 
  C11           2.9943340728      1.6824413864      2.0201371733 
  C12           3.0617454194      0.1375331147      0.1346784070 
  C13           4.2113786752      0.0220685676     -0.6834513183 
  C14           4.2313405688     -0.1991612231     -2.0655506536 
  C15           3.0189040571     -0.3142433292     -2.7371753738 
  C16           1.8564111845     -0.2073579763     -1.9715797139 
  C17          -2.3917700000      1.4641300000     -0.9448800000 
  C18          -0.3788420000      2.8361950000     -0.5323130000 
  C19          -0.4455240000      1.3408580000     -2.4674050000 
  C20          -0.0177960000     -2.8755410000      0.0296550000 
  C21          -1.4453590000     -1.9535040000     -1.7679970000 
  C22          -2.1262300000     -1.7392700000      0.5941800000 
  C23           4.0537419123     -1.9718983193      2.4099111291 
  H24           4.2637189520     -0.7294551227      4.6718965627 
  H25           3.7407119423      1.5766432354      5.3498485281 
  H26           2.8931366070      3.1855269783      3.5997389145 
  H27           2.6599255993      2.4474951864      1.3316390965 
  H28           5.2211442616      0.1453396804     -0.2951760276 
  H29           5.1817471681     -0.2674607460     -2.6228213111 
  H30           2.9826424773     -0.4803912797     -3.8272990099 
  H31           0.9317938515     -0.3011365448     -2.5445160809 
  H32          -2.8081380000      1.6140360000      0.0705490000 
  H33          -2.7931410000      2.3029860000     -1.5580800000 
  H34          -2.8583580000      0.5482850000     -1.3582140000 
  H35          -0.6553110000      3.0576040000      0.5218020000 
  H36           0.7195950000      2.9676930000     -0.6585650000 
  H37          -0.8498760000      3.6399150000     -1.1432090000 
  H38          -0.7462210000      0.3798070000     -2.9348810000 
  H39          -0.9210170000      2.1442960000     -3.0752880000 
  H40           0.6524840000      1.4549820000     -2.6096750000 
  H41           0.9648250000     -2.8622550000     -0.4905250000 
  H42           0.1711760000     -2.9295420000      1.1223420000 
  H43          -0.5069560000     -3.8419160000     -0.2300880000 
  H44          -0.6634350000     -2.0908620000     -2.5422720000 
  H45          -2.0275400000     -2.9029450000     -1.7892070000 
  H46          -2.1492470000     -1.1796830000     -2.1325550000 
  H47          -1.8356470000     -1.6862910000      1.6668530000 
  H48          -2.8513880000     -0.9189660000      0.4051340000 
  H49          -2.6842430000     -2.6960970000      0.4765580000 
  H50           5.0865349358     -2.1450586794      2.0302614341 
  H51           3.2755844609     -2.5008989248      1.8143808823 
  H52           4.0133769401     -2.5121034778      3.3826624902 
   
  principal moments of inertia:
        amu*angstrom^2:              3615.44720              4453.37262              6519.66200
                g*cm^2:          6.00359056E-37          7.39499829E-37          1.08261521E-36
   
  rotational constants:
               cm^(-1):      0.00466267      0.00378536      0.00258566
                   GHz:      0.13978326      0.11348231      0.07751614
   
  Molecular weight:     592.05 amu
   
  Stoichiometry: PdC27PH33BrF
  Molecular Point Group: C1      
  Point Group used: C1
  
 
Number of optimization coordinates:   217
Number of independent coordinates:    217
Number of non-redundant coordinates:  186
Number of frozen coordinates:           0
Number of harmonic constraints:         0
 
Number of geometric degrees of freedom:   186
Maximum geometric degrees of freedom:     186
 " " " " " excluding dummy atoms:         186
 
 
  bond lengths (angstroms):
 
 P1      -Pd2     :   2.351779      P1      -C3      :   1.906550
 P1      -C4      :   1.920093      P1      -C5      :   1.917250
 Pd2     -Br3     :   2.696251      Pd2     -C76     :   2.111232
 Br3     -C76     :   2.240838      C73     -C74     :   1.390096
 C73     -C78     :   1.387946      C73     -F79     :   1.355178
 C74     -C75     :   1.391586      C74     -H80     :   1.084920
 C75     -C76     :   1.409708      C75     -H81     :   1.083884
 C76     -C77     :   1.408288      C77     -C78     :   1.396016
 C77     -H82     :   1.084714      C78     -H83     :   1.086401
 C3      -C12     :   1.440939      C3      -C16     :   1.409634
 C4      -C17     :   1.548997      C4      -C18     :   1.549022
 C4      -C19     :   1.550220      C5      -C20     :   1.547508
 C5      -C21     :   1.552692      C5      -C22     :   1.549137
 C6      -C7      :   1.433452      C6      -C11     :   1.407323
 C6      -C12     :   1.440093      C7      -C8      :   1.413251
 C7      -C23     :   1.514581      C8      -C9      :   1.397376
 C8      -H24     :   1.102785      C9      -C10     :   1.392838
 C9      -H25     :   1.103008      C10     -C11     :   1.399824
 C10     -H26     :   1.103396      C11     -H27     :   1.082204
 C12     -C13     :   1.415742      C13     -C14     :   1.399836
 C13     -H28     :   1.088843      C14     -C15     :   1.390800
 C14     -H29     :   1.103851      C15     -C16     :   1.396048
 C15     -H30     :   1.103308      C16     -H31     :   1.091773
 C17     -H32     :   1.107669      C17     -H33     :   1.113909
 C17     -H34     :   1.107845      C18     -H35     :   1.112032
 C18     -H36     :   1.113461      C18     -H37     :   1.114017
 C19     -H38     :   1.110212      C19     -H39     :   1.114059
 C19     -H40     :   1.113053      C20     -H41     :   1.111894
 C20     -H42     :   1.110221      C20     -H43     :   1.113833
 C21     -H44     :   1.108952      C21     -H45     :   1.113922
 C21     -H46     :   1.107772      C22     -H47     :   1.112597
 C22     -H48     :   1.111077      C22     -H49     :   1.113881
 C23     -H50     :   1.113903      C23     -H51     :   1.113565
 C23     -H52     :   1.113416
 
  bond angles:
 
 C3      -P1      -Pd2     : 107.642814  C4      -P1      -Pd2     : 120.396068
 C4      -P1      -C3      : 105.383690  C5      -P1      -Pd2     : 100.381213
 C5      -P1      -C3      : 113.039431  C5      -P1      -C4      : 110.209354
 Br3     -Pd2     -P1      : 163.489658  C76     -Pd2     -P1      : 129.673191
 C76     -Pd2     -Br3     :  53.913567  C76     -Br3     -Pd2     :  49.586774
 C78     -C73     -C74     : 122.725126  F79     -C73     -C74     : 118.570871
 F79     -C73     -C78     : 118.703960  C75     -C74     -C73     : 119.007012
 H80     -C74     -C73     : 119.861843  H80     -C74     -C75     : 121.098960
 C76     -C75     -C74     : 118.799927  H81     -C75     -C74     : 120.677739
 H81     -C75     -C76     : 120.445769  Br3     -C76     -Pd2     :  76.499659
 C75     -C76     -Pd2     : 106.934489  C75     -C76     -Br3     : 116.899675
 C77     -C76     -Pd2     : 106.642858  C77     -C76     -Br3     : 116.800982
 C77     -C76     -C75     : 121.389509  C78     -C77     -C76     : 118.636478
 H82     -C77     -C76     : 120.387739  H82     -C77     -C78     : 120.965076
 C77     -C78     -C73     : 119.041570  H83     -C78     -C73     : 119.721544
 H83     -C78     -C77     : 121.236849  C12     -C3      -P1      : 132.332083
 C16     -C3      -P1      : 109.049994  C16     -C3      -C12     : 118.601565
 C17     -C4      -P1      : 116.680003  C18     -C4      -P1      : 113.633317
 C18     -C4      -C17     : 105.789550  C19     -C4      -P1      : 109.575020
 C19     -C4      -C17     : 105.935583  C19     -C4      -C18     : 104.252746
 C20     -C5      -P1      : 111.754645  C21     -C5      -P1      : 119.639032
 C21     -C5      -C20     : 105.868645  C22     -C5      -P1      : 107.875063
 C22     -C5      -C20     : 105.244514  C22     -C5      -C21     : 105.414608
 C11     -C6      -C7      : 112.855389  C12     -C6      -C7      : 129.318543
 C12     -C6      -C11     : 117.822169  C8      -C7      -C6      : 120.577643
 C23     -C7      -C6      : 126.852870  C23     -C7      -C8      : 112.463886
 C9      -C8      -C7      : 123.661511  H24     -C8      -C7      : 120.364684
 H24     -C8      -C9      : 115.971317  C10     -C9      -C8      : 117.169856
 H25     -C9      -C8      : 121.666137  H25     -C9      -C10     : 121.163760
 C11     -C10     -C9      : 118.559909  H26     -C10     -C9      : 120.510758
 H26     -C10     -C11     : 120.927422  C10     -C11     -C6      : 127.174781
 H27     -C11     -C6      : 119.444547  H27     -C11     -C10     : 113.352565
 C6      -C12     -C3      : 128.578123  C13     -C12     -C3      : 114.079668
 C13     -C12     -C6      : 117.336141  C14     -C13     -C12     : 126.514616
 H28     -C13     -C12     : 122.531223  H28     -C13     -C14     : 110.900352
 C15     -C14     -C13     : 118.517836  H29     -C14     -C13     : 121.365931
 H29     -C14     -C15     : 120.110049  C16     -C15     -C14     : 117.048897
 H30     -C15     -C14     : 121.214686  H30     -C15     -C16     : 121.736280
 C15     -C16     -C3      : 125.228312  H31     -C16     -C3      : 120.513439
 H31     -C16     -C15     : 114.258064  H32     -C17     -C4      : 113.258537
 H33     -C17     -C4      : 111.689655  H33     -C17     -H32     : 105.503065
 H34     -C17     -C4      : 113.192670  H34     -C17     -H32     : 107.193094
 H34     -C17     -H33     : 105.391539  H35     -C18     -C4      : 112.058038
 H36     -C18     -C4      : 111.797889  H36     -C18     -H35     : 109.222001
 H37     -C18     -C4      : 112.013244  H37     -C18     -H35     : 105.726505
 H37     -C18     -H36     : 105.648678  H38     -C19     -C4      : 112.576983
 H39     -C19     -C4      : 112.189921  H39     -C19     -H38     : 106.196471
 H40     -C19     -C4      : 111.777365  H40     -C19     -H38     : 107.585060
 H40     -C19     -H39     : 106.102308  H41     -C20     -C5      : 112.298348
 H42     -C20     -C5      : 111.935505  H42     -C20     -H41     : 108.095584
 H43     -C20     -C5      : 112.091550  H43     -C20     -H41     : 106.820756
 H43     -C20     -H42     : 105.192635  H44     -C21     -C5      : 114.473937
 H45     -C21     -C5      : 111.330423  H45     -C21     -H44     : 104.456631
 H46     -C21     -C5      : 113.153150  H46     -C21     -H44     : 107.744798
 H46     -C21     -H45     : 104.894240  H47     -C22     -C5      : 112.032471
 H48     -C22     -C5      : 112.097904  H48     -C22     -H47     : 107.418253
 H49     -C22     -C5      : 112.211684  H49     -C22     -H47     : 105.875619
 H49     -C22     -H48     : 106.814392  H50     -C23     -C7      : 111.849660
 H51     -C23     -C7      : 111.964901  H51     -C23     -H50     : 113.066083
 H52     -C23     -C7      : 112.334273  H52     -C23     -H50     : 104.830478
 H52     -C23     -H51     : 102.205211
 
  torsional angles:
 
 P1      -Pd2     -Br3     -C76     : 108.714754
 P1      -Pd2     -C76     -Br3     :-159.531096
 P1      -Pd2     -C76     -C75     : -45.120369
 P1      -Pd2     -C76     -C77     :  86.125022
 P1      -C3      -C12     -C6      :  -3.538704
 P1      -C3      -C12     -C13     : 177.391602
 P1      -C3      -C16     -C15     :-177.644279
 P1      -C3      -C16     -H31     :   2.190069
 P1      -C4      -C17     -H32     :  62.775020
 P1      -C4      -C17     -H33     :-178.274494
 P1      -C4      -C17     -H34     : -59.513232
 P1      -C4      -C18     -H35     : -63.928460
 P1      -C4      -C18     -H36     :  59.071534
 P1      -C4      -C18     -H37     : 177.433697
 P1      -C4      -C19     -H38     :  59.682494
 P1      -C4      -C19     -H39     : 179.407630
 P1      -C4      -C19     -H40     : -61.546178
 P1      -C5      -C20     -H41     : -56.022773
 P1      -C5      -C20     -H42     :  65.784275
 P1      -C5      -C20     -H43     :-176.287823
 P1      -C5      -C21     -H44     :  67.566361
 P1      -C5      -C21     -H45     :-174.255908
 P1      -C5      -C21     -H46     : -56.409800
 P1      -C5      -C22     -H47     : -59.157476
 P1      -C5      -C22     -H48     :  61.695607
 P1      -C5      -C22     -H49     :-178.104440
 Pd2     -P1      -C3      -C12     :  -7.418306
 Pd2     -P1      -C3      -C16     : 171.047045
 Pd2     -P1      -C4      -C17     : -71.513102
 Pd2     -P1      -C4      -C18     :  52.011638
 Pd2     -P1      -C4      -C19     : 168.168159
 Pd2     -P1      -C5      -C20     : -70.217488
 Pd2     -P1      -C5      -C21     : 165.326564
 Pd2     -P1      -C5      -C22     :  45.006587
 Pd2     -Br3     -C76     -C75     :-102.362682
 Pd2     -Br3     -C76     -C77     : 102.046844
 Pd2     -C76     -C75     -C74     : 115.286439
 Pd2     -C76     -C75     -H81     : -61.553386
 Pd2     -C76     -C77     -C78     :-115.364195
 Pd2     -C76     -C77     -H82     :  63.457014
 Br3     -Pd2     -P1      -C3      :  73.487194
 Br3     -Pd2     -P1      -C4      : -47.130030
 Br3     -Pd2     -P1      -C5      :-168.102702
 Br3     -Pd2     -C76     -C75     : 114.410727
 Br3     -Pd2     -C76     -C77     :-114.343882
 Br3     -C76     -C75     -C74     :-161.557817
 Br3     -C76     -C75     -H81     :  21.602358
 Br3     -C76     -C77     -C78     : 161.642021
 Br3     -C76     -C77     -H82     : -19.536770
 C73     -C74     -C75     -C76     :   2.788945
 C73     -C74     -C75     -H81     : 179.621198
 C73     -C78     -C77     -C76     :  -2.927155
 C73     -C78     -C77     -H82     : 178.258704
 C74     -C73     -C78     -C77     :  -1.328160
 C74     -C73     -C78     -H83     : 178.741364
 C74     -C75     -C76     -C77     :  -7.158916
 C75     -C74     -C73     -C78     :   1.400090
 C75     -C74     -C73     -F79     :-178.676353
 C75     -C76     -C77     -C78     :   7.219193
 C75     -C76     -C77     -H82     :-173.959597
 C76     -Pd2     -P1      -C3      : 169.544008
 C76     -Pd2     -P1      -C4      :  48.926785
 C76     -Pd2     -P1      -C5      : -72.045888
 C76     -C75     -C74     -H80     :-175.144442
 C76     -C77     -C78     -H83     : 177.002230
 C77     -C76     -C75     -H81     : 176.001259
 C77     -C78     -C73     -F79     : 178.748380
 C78     -C73     -C74     -H80     : 179.359586
 F79     -C73     -C74     -H80     :  -0.716857
 F79     -C73     -C78     -H83     :  -1.182096
 H80     -C74     -C75     -H81     :   1.687812
 H82     -C77     -C78     -H83     :  -1.811911
 C3      -P1      -C4      -C17     : 166.762405
 C3      -P1      -C4      -C18     : -69.712856
 C3      -P1      -C4      -C19     :  46.443665
 C3      -P1      -C5      -C20     :  44.159859
 C3      -P1      -C5      -C21     : -80.296088
 C3      -P1      -C5      -C22     : 159.383935
 C3      -C12     -C6      -C7      : 107.873206
 C3      -C12     -C6      -C11     : -72.902545
 C3      -C12     -C13     -C14     :   0.274863
 C3      -C12     -C13     -H28     : 177.359151
 C3      -C16     -C15     -C14     :  -0.346891
 C3      -C16     -C15     -H30     : 179.785728
 C4      -P1      -C3      -C12     : 122.238236
 C4      -P1      -C3      -C16     : -59.296413
 C4      -P1      -C5      -C20     : 161.788653
 C4      -P1      -C5      -C21     :  37.332705
 C4      -P1      -C5      -C22     : -82.987272
 C5      -P1      -C3      -C12     :-117.340243
 C5      -P1      -C3      -C16     :  61.125108
 C5      -P1      -C4      -C17     :  44.498558
 C5      -P1      -C4      -C18     : 168.023298
 C5      -P1      -C4      -C19     : -75.820182
 C6      -C7      -C8      -C9      :   0.204575
 C6      -C7      -C8      -H24     : 179.607156
 C6      -C7      -C23     -H50     :  85.260242
 C6      -C7      -C23     -H51     : -42.827948
 C6      -C7      -C23     -H52     :-157.167381
 C6      -C11     -C10     -C9      :   0.273642
 C6      -C11     -C10     -H26     : 179.773359
 C6      -C12     -C3      -C16     : 178.113550
 C6      -C12     -C13     -C14     :-178.906444
 C6      -C12     -C13     -H28     :  -1.822156
 C7      -C6      -C11     -C10     :  -0.019764
 C7      -C6      -C11     -H27     : 177.915884
 C7      -C6      -C12     -C13     : -73.082919
 C7      -C8      -C9      -C10     :   0.054983
 C7      -C8      -C9      -H25     : 179.876051
 C8      -C7      -C6      -C11     :  -0.212327
 C8      -C7      -C6      -C12     : 179.043146
 C8      -C7      -C23     -H50     : -98.492928
 C8      -C7      -C23     -H51     : 133.418882
 C8      -C7      -C23     -H52     :  19.079450
 C8      -C9      -C10     -C11     :  -0.276610
 C8      -C9      -C10     -H26     :-179.778484
 C9      -C8      -C7      -C23     :-176.307482
 C9      -C10     -C11     -H27     :-177.768294
 C10     -C9      -C8      -H24     :-179.371646
 C10     -C11     -C6      -C12     :-179.368488
 C11     -C6      -C7      -C23     : 175.758639
 C11     -C6      -C12     -C13     : 106.141330
 C11     -C10     -C9      -H25     : 179.901367
 C12     -C3      -C16     -C15     :   1.063585
 C12     -C3      -C16     -H31     :-179.102067
 C12     -C6      -C7      -C23     :  -4.985888
 C12     -C6      -C11     -H27     :  -1.432840
 C12     -C13     -C14     -C15     :   0.419544
 C12     -C13     -C14     -H29     : 179.515586
 C13     -C12     -C3      -C16     :  -0.956143
 C13     -C14     -C15     -C16     :  -0.387844
 C13     -C14     -C15     -H30     : 179.480274
 C14     -C15     -C16     -H31     : 179.809641
 C15     -C14     -C13     -H28     :-176.949296
 C16     -C15     -C14     -H29     :-179.495593
 C17     -C4      -C18     -H35     :  65.348403
 C17     -C4      -C18     -H36     :-171.651602
 C17     -C4      -C18     -H37     : -53.289439
 C17     -C4      -C19     -H38     : -66.981941
 C17     -C4      -C19     -H39     :  52.743195
 C17     -C4      -C19     -H40     : 171.789387
 C18     -C4      -C17     -H32     : -64.694553
 C18     -C4      -C17     -H33     :  54.255933
 C18     -C4      -C17     -H34     : 173.017195
 C18     -C4      -C19     -H38     :-178.358513
 C18     -C4      -C19     -H39     : -58.633377
 C18     -C4      -C19     -H40     :  60.412815
 C19     -C4      -C17     -H32     :-174.987439
 C19     -C4      -C17     -H33     : -56.036953
 C19     -C4      -C17     -H34     :  62.724309
 C19     -C4      -C18     -H35     : 176.830700
 C19     -C4      -C18     -H36     : -60.169305
 C19     -C4      -C18     -H37     :  58.192858
 C20     -C5      -C21     -H44     : -59.667052
 C20     -C5      -C21     -H45     :  58.510680
 C20     -C5      -C21     -H46     : 176.356787
 C20     -C5      -C22     -H47     :  60.283556
 C20     -C5      -C22     -H48     :-178.863361
 C20     -C5      -C22     -H49     : -58.663408
 C21     -C5      -C20     -H41     :  75.812279
 C21     -C5      -C20     -H42     :-162.380674
 C21     -C5      -C20     -H43     : -44.452771
 C21     -C5      -C22     -H47     : 171.945031
 C21     -C5      -C22     -H48     : -67.201886
 C21     -C5      -C22     -H49     :  52.998068
 C22     -C5      -C20     -H41     :-172.848971
 C22     -C5      -C20     -H42     : -51.041923
 C22     -C5      -C20     -H43     :  66.885980
 C22     -C5      -C21     -H44     :-170.886081
 C22     -C5      -C21     -H45     : -52.708349
 C22     -C5      -C21     -H46     :  65.137758
 C23     -C7      -C8      -H24     :   3.095099
 H24     -C8      -C9      -H25     :   0.449421
 H25     -C9      -C10     -H26     :   0.399493
 H26     -C10     -C11     -H27     :   1.731423
 H28     -C13     -C14     -H29     :   2.146746
 H29     -C14     -C15     -H30     :   0.372525
 H30     -C15     -C16     -H31     :  -0.057740
 
  nuclear repulsion energy.......          3711.474446875 hartrees
  
  Detected an organometallic with only one TM atom. 
  
  
 
  Will use High-Quality Initial guess for organometallics
       including d-d repulsion (iguess=30)
 
 Non-default options chosen:
   SCF calculation type: DFT(b3pw91-d3)              
   DFT=Becke_3_Parameter/HF+Slater+Becke88+PW91+PW-GGAIIC (B3PW91-D3)
   Transition state optimization
   Geometry will be optimized in redundant internal coordinates
   Culot/Fletcher trust radius adjustment
      initial trust radius:  0.100
   P-RFO level-shifting used
   Solvation energy will be computed using PBF
     -solute cavity energy will not be included
     -surface area terms will not be included
   Vibrational frequencies and related properties will be computed
      from analytic second derivatives
   IR intensities will be computed
   Thermochemical properties will be computed
   Maximum number of geometry steps: 100
   Scaling standard convergence criteria by a factor of   5.00
   Mixed Murtagh-Sargent/Powell Hessian-updating used
   Solvent: benzene                                                         
   Internal dielectric constant:    1.000
   Continuum dielectric constant:   2.283
   Solvent probe molecule radius:   2.600
  
 Non-default print settings:
     11=  2
  
 Temporary integer options set:
     21= -1  73=  2
  
  atom       vdw   vdw2    cov     mass  grid  daf  charge   basis
  P1        2.147  2.074  1.060   30.974    Y    Y      Y    ps_6-31g*
  Pd2       1.450  1.450  1.280  105.903    Y    Y      Y    lacv3p*
  Br3       2.095  2.095  1.140   78.918    Y    Y      Y    lav3p*
  C73       1.949  1.900  0.770   12.000    Y    Y      Y    ps_6-31g*
  C74       1.949  1.900  0.770   12.000    Y    Y      Y    ps_6-31g*
  C75       1.949  1.900  0.770   12.000    Y    Y      Y    ps_6-31g*
  C76       1.949  1.900  0.770   12.000    Y    Y      Y    ps_6-31g*
  C77       1.949  1.900  0.770   12.000    Y    Y      Y    ps_6-31g*
  C78       1.949  1.900  0.770   12.000    Y    Y      Y    ps_6-31g*
  F79       1.736  1.682  0.720   18.998    Y    Y      Y    ps_6-31g*
  H80       1.597  1.150  0.320    1.008    Y    Y      Y    ps_6-31g*
  H81       1.597  1.150  0.320    1.008    Y    Y      Y    ps_6-31g*
  H82       1.597  1.150  0.320    1.008    Y    Y      Y    ps_6-31g*
  H83       1.597  1.150  0.320    1.008    Y    Y      Y    ps_6-31g*
  C3        1.949  1.900  0.770   12.000    Y    Y      Y    ps_6-31g*
  C4        1.949  1.900  0.770   12.000    Y    Y      Y    ps_6-31g*
  C5        1.949  1.900  0.770   12.000    Y    Y      Y    ps_6-31g*
  C6        1.949  1.900  0.770   12.000    Y    Y      Y    ps_6-31g*
  C7        1.949  1.900  0.770   12.000    Y    Y      Y    ps_6-31g*
  C8        1.949  1.900  0.770   12.000    Y    Y      Y    ps_6-31g*
  C9        1.949  1.900  0.770   12.000    Y    Y      Y    ps_6-31g*
  C10       1.949  1.900  0.770   12.000    Y    Y      Y    ps_6-31g*
  C11       1.949  1.900  0.770   12.000    Y    Y      Y    ps_6-31g*
  C12       1.949  1.900  0.770   12.000    Y    Y      Y    ps_6-31g*
  C13       1.949  1.900  0.770   12.000    Y    Y      Y    ps_6-31g*
  C14       1.949  1.900  0.770   12.000    Y    Y      Y    ps_6-31g*
  C15       1.949  1.900  0.770   12.000    Y    Y      Y    ps_6-31g*
  C16       1.949  1.900  0.770   12.000    Y    Y      Y    ps_6-31g*
  C17       1.949  1.900  0.770   12.000    Y    Y      Y    ps_6-31g*
  C18       1.949  1.900  0.770   12.000    Y    Y      Y    ps_6-31g*
  C19       1.949  1.900  0.770   12.000    Y    Y      Y    ps_6-31g*
  C20       1.949  1.900  0.770   12.000    Y    Y      Y    ps_6-31g*
  C21       1.949  1.900  0.770   12.000    Y    Y      Y    ps_6-31g*
  C22       1.949  1.900  0.770   12.000    Y    Y      Y    ps_6-31g*
  C23       1.949  1.900  0.770   12.000    Y    Y      Y    ps_6-31g*
  H24       1.597  1.150  0.320    1.008    Y    Y      Y    ps_6-31g*
  H25       1.597  1.150  0.320    1.008    Y    Y      Y    ps_6-31g*
  H26       1.597  1.150  0.320    1.008    Y    Y      Y    ps_6-31g*
  H27       1.597  1.150  0.320    1.008    Y    Y      Y    ps_6-31g*
  H28       1.597  1.150  0.320    1.008    Y    Y      Y    ps_6-31g*
  H29       1.597  1.150  0.320    1.008    Y    Y      Y    ps_6-31g*
  H30       1.597  1.150  0.320    1.008    Y    Y      Y    ps_6-31g*
  H31       1.597  1.150  0.320    1.008    Y    Y      Y    ps_6-31g*
  H32       1.597  1.150  0.320    1.008    Y    Y      Y    ps_6-31g*
  H33       1.597  1.150  0.320    1.008    Y    Y      Y    ps_6-31g*
  H34       1.597  1.150  0.320    1.008    Y    Y      Y    ps_6-31g*
  H35       1.597  1.150  0.320    1.008    Y    Y      Y    ps_6-31g*
  H36       1.597  1.150  0.320    1.008    Y    Y      Y    ps_6-31g*
  H37       1.597  1.150  0.320    1.008    Y    Y      Y    ps_6-31g*
  H38       1.597  1.150  0.320    1.008    Y    Y      Y    ps_6-31g*
  H39       1.597  1.150  0.320    1.008    Y    Y      Y    ps_6-31g*
  H40       1.597  1.150  0.320    1.008    Y    Y      Y    ps_6-31g*
  H41       1.597  1.150  0.320    1.008    Y    Y      Y    ps_6-31g*
  H42       1.597  1.150  0.320    1.008    Y    Y      Y    ps_6-31g*
  H43       1.597  1.150  0.320    1.008    Y    Y      Y    ps_6-31g*
  H44       1.597  1.150  0.320    1.008    Y    Y      Y    ps_6-31g*
  H45       1.597  1.150  0.320    1.008    Y    Y      Y    ps_6-31g*
  H46       1.597  1.150  0.320    1.008    Y    Y      Y    ps_6-31g*
  H47       1.597  1.150  0.320    1.008    Y    Y      Y    ps_6-31g*
  H48       1.597  1.150  0.320    1.008    Y    Y      Y    ps_6-31g*
  H49       1.597  1.150  0.320    1.008    Y    Y      Y    ps_6-31g*
  H50       1.597  1.150  0.320    1.008    Y    Y      Y    ps_6-31g*
  H51       1.597  1.150  0.320    1.008    Y    Y      Y    ps_6-31g*
  H52       1.597  1.150  0.320    1.008    Y    Y      Y    ps_6-31g*
 
  atom      formal  2spin      esp    mulk    frag
  P1           0       0        Y    0.000       0
  Pd2          0       0        Y    0.000       0
  Br3          0       0        Y    0.000       0
  
  end of program pre
   
 Time(pre)  user:       1.089  user+sys:       1.089  wallclock:       1.625
  
  start of program onee
  
  smallest eigenvalue of S:    3.967E-04
  number of canonical orbitals.....          514
  end of program onee
   
 Time(onee)  user:       5.856  user+sys:       5.856  wallclock:       4.590
  
  start of program hfig
  
  initial wavefunction generated automatically from atomic wavefunctions
  Only one possible d-orb occupation 
  Skip d-d repulsion considerations 
 
  Irreducible     Total no   No of occupied orbitals 
  representation  orbitals   Shell_1  Shell_2    ...
  No Symm          514        122
  ------------------------
  Orbital occupation/shell    1.000
 
  end of program hfig
   
 Time(hfig)  user:       0.876  user+sys:       0.876  wallclock:       1.071
  
  start of program probe
  
  end of program probe
   
 Time(probe)  user:       0.432  user+sys:       0.432  wallclock:       0.396
  
  start of program grid
  
   grid     grid set  grid #  grid sym
  ------    --------  ------  --------
  coarse        0        0        1
  medium        2        1        1
  fine          0        0        1
  ultrafine     4        2        1
  charge       -1        3        1
  gradient      4        2        1
  density       0        0        1
  DFT-fine    -11        4        1
  DFT-med.    -10        5        1
  DFT-grad    -12        6        1
  DFT-der2     -8        7        1
  DFT-cphf     -9        8        1
  LMP2-enrg     4        2        1
  LMP2-grad     2        1        1
  DFT-cphf2   -15        9        1
  PBF-dens      0        0        1
  plotting      0        0        1
  Rel-grad    -17        0        1
  
  number of gridpoints: 
     atom           P1         Pd2         Br3         C73         C74         C75         C76
  grid # 1         616         359         497          79          94          96          95
  grid # 2         434         337         476         330         321         325         393
  grid # 3          10         283         309          31          32          30          23
  grid # 4        8714        8714        8714        8714        8714        8714        8714
  grid # 5        1192        1192        1192        1192        1192        1192        1192
  grid # 6        9132        9132        9132        5922        5922        5922        5922
  grid # 7       23034       32968       11582       13950       13950       13950       13950
  grid # 8         722        1150         694         748         748         748         748
  grid # 9         366        2198         358         394         394         394         394
   
  number of gridpoints: 
     atom          C77         C78         F79         H80         H81         H82         H83
  grid # 1          95          94         584         113         112         115         114
  grid # 2         318         320         564         459         458         464         464
  grid # 3          30          29         335         335         269         318         369
  grid # 4        8714        8714        8714        8714        8714        8714        8714
  grid # 5        1192        1192        1192        1192        1192        1192        1192
  grid # 6        5922        5922        5922        5922        5922        5922        5922
  grid # 7       13950       13950       23190       15206       15206       15206       15206
  grid # 8         748         748         770         786         786         786         786
  grid # 9         394         394         420         420         420         420         420
   
  number of gridpoints: 
     atom           C3          C4          C5          C6          C7          C8          C9
  grid # 1          92          91          88          98         100          94          96
  grid # 2         389         369         378         356         364         326         320
  grid # 3          12           6           6          11          20          29          29
  grid # 4        8714        8714        8714        8714        8714        8714        8714
  grid # 5        1192        1192        1192        1192        1192        1192        1192
  grid # 6        5922        5922        5922        5922        5922        5922        5922
  grid # 7       13950       13950       13950       13950       13950       13950       13950
  grid # 8         748         748         748         748         748         748         748
  grid # 9         394         394         394         394         394         394         394
   
  number of gridpoints: 
     atom          C10         C11         C12         C13         C14         C15         C16
  grid # 1          96          93          98          93          97          95          91
  grid # 2         323         325         359         324         324         322         321
  grid # 3          29          21          18          31          49          33          13
  grid # 4        8714        8714        8714        8714        8714        8714        8714
  grid # 5        1192        1192        1192        1192        1192        1192        1192
  grid # 6        5922        5922        5922        5922        5922        5922        5922
  grid # 7       13950       13950       13950       13950       13950       13950       13950
  grid # 8         748         748         748         748         748         748         748
  grid # 9         394         394         394         394         394         394         394
   
  number of gridpoints: 
     atom          C17         C18         C19         C20         C21         C22         C23
  grid # 1          83          84          82          80          82          79          81
  grid # 2         239         240         242         246         241         248         243
  grid # 3           6           6           6           6           6           6           6
  grid # 4        8714        8714        8714        8714        8714        8714        8714
  grid # 5        1192        1192        1192        1192        1192        1192        1192
  grid # 6        5922        5922        5922        5922        5922        5922        5922
  grid # 7       13950       13950       13950       13950       13950       13950       13950
  grid # 8         748         748         748         748         748         748         748
  grid # 9         394         394         394         394         394         394         394
   
  number of gridpoints: 
     atom          H24         H25         H26         H27         H28         H29         H30
  grid # 1         114         117         117         113         115         118         118
  grid # 2         453         468         466         446         456         467         468
  grid # 3         309         366         372         226         333         423         409
  grid # 4        8714        8714        8714        8714        8714        8714        8714
  grid # 5        1192        1192        1192        1192        1192        1192        1192
  grid # 6        5922        5922        5922        5922        5922        5922        5922
  grid # 7       15206       15206       15206       15206       15206       15206       15206
  grid # 8         786         786         786         786         786         786         786
  grid # 9         420         420         420         420         420         420         420
   
  number of gridpoints: 
     atom          H31         H32         H33         H34         H35         H36         H37
  grid # 1          96         103         108         101         107         106         109
  grid # 2         405         432         444         424         445         440         446
  grid # 3          61         108         265         144         192         200         267
  grid # 4        8714        8714        8714        8714        8714        8714        8714
  grid # 5        1192        1192        1192        1192        1192        1192        1192
  grid # 6        5922        5922        5922        5922        5922        5922        5922
  grid # 7       15206       15206       15206       15206       15206       15206       15206
  grid # 8         786         786         786         786         786         786         786
  grid # 9         420         420         420         420         420         420         420
   
  number of gridpoints: 
     atom          H38         H39         H40         H41         H42         H43         H44
  grid # 1         100         109         102         105         106         107         107
  grid # 2         418         445         424         443         441         446         440
  grid # 3         132         269         153         223         186         273         219
  grid # 4        8714        8714        8714        8714        8714        8714        8714
  grid # 5        1192        1192        1192        1192        1192        1192        1192
  grid # 6        5922        5922        5922        5922        5922        5922        5922
  grid # 7       15206       15206       15206       15206       15206       15206       15206
  grid # 8         786         786         786         786         786         786         786
  grid # 9         420         420         420         420         420         420         420
   
  number of gridpoints: 
     atom          H45         H46         H47         H48         H49         H50         H51
  grid # 1         107         101          98         100         107         112         108
  grid # 2         443         427         414         427         445         464         450
  grid # 3         259         148          47          98         244         355         229
  grid # 4        8714        8714        8714        8714        8714        8714        8714
  grid # 5        1192        1192        1192        1192        1192        1192        1192
  grid # 6        5922        5922        5922        5922        5922        5922        5922
  grid # 7       15206       15206       15206       15206       15206       15206       15206
  grid # 8         786         786         786         786         786         786         786
  grid # 9         420         420         420         420         420         420         420
   
  number of gridpoints: 
     atom          H52       total
  grid # 1         107        8074
  grid # 2         447       24996
  grid # 3         281        9543
  grid # 4        8714      557696
  grid # 5        1192       76288
  grid # 6        5922      388638
  grid # 7       15206      969222
  grid # 8         786       49470
  grid # 9         420       27840
   
  end of program grid
   
 Time(grid)  user:     189.073  user+sys:     189.073  wallclock:      96.797
  
  start of program rwr
  
  end of program rwr
   
 Time(rwr)  user:      13.631  user+sys:      13.631  wallclock:      17.191
  
  start of program scf
  
 number of electrons..........        244
 number of alpha electrons....        122
 number of beta electrons.....        122
 number of orbitals, total....        514
 number of doubly-occ'd orbs..        122
 number of open shell orbs....          0
 number of occupied orbitals..        122
 number of virtual orbitals...        392
 number of hamiltonians.......          1
 number of shells.............          1
 SCF type: DFT=Becke_3_Parameter/HF+Slater+Becke88+PW91+PW-GGAIIC (B3PW91-D3)
 Energy computed using pseudospectral method.
 Convergence Criterion:
    Energy (econv):       1.00E-05
    RMS density (dconv):  5.00E-06
  
       i  u  d  i  g                   
       t  p  i  c  r                                 RMS    maximum
       e  d  i  u  i                       energy  density   DIIS  
       r  t  s  t  d       total energy    change  change    error 
  
etot    1  N  N  5  M   -1625.72603106305           2.2E-03  1.8E-01
etot    2  Y  Y  6  M   -1628.37690667307  2.7E+00  3.2E-03  1.4E-01
etot    3  Y  Y  6  M   -1629.04831615563  6.7E-01  1.4E-03  6.9E-02
etot    4  N  Y  2  U   -1629.31894362823  2.7E-01  8.6E-04  2.7E-02
etot    5  Y  Y  6  M   -1629.37133718476  5.2E-02  4.9E-04  1.6E-02
etot    6  N  Y  2  U   -1629.37544958062  4.1E-03  4.7E-04  7.8E-03
etot    7  Y  Y  6  M   -1629.38002186119  4.6E-03  8.7E-05  4.6E-03
etot    8  Y  Y  6  M   -1629.38165021070  1.6E-03  2.3E-05  7.4E-04
etot    9  N  Y  2  U   -1629.38253249681  8.8E-04  9.7E-06  2.1E-04
etot   10  N  Y  2  U   -1629.38253868232  6.2E-06  5.2E-06  5.2E-05
etot   11  N  Y  2  U   -1629.38254024654  1.6E-06  2.6E-06  2.9E-05
etot   12  N  N  2  U   -1629.38254082051  5.7E-07  0.0E+00  0.0E+00
 
  Computing the dispersion energy correction and its gradients...
  
  
 Energy components, in hartrees:
   (A)  Nuclear repulsion............    3711.47444687523
   (E)  Total one-electron terms.....   -9667.29022175299
   (F)    Electron-nuclear...........  -11198.30052707908
   (H)    Kinetic....................    1531.01030532609
   (I)  Total two-electron terms.....    4326.43323405724
   (J)    Coulomb....................    4533.83296082912
   (K)    Exchange+Correlation.......    -207.39972677187
   (L)  Electronic energy............   -5340.85698769574  (E+I)
   (N0) D3 correction................      -0.11362301831
   (N)  Total energy.................   -1629.49616383883  (A+L+N0)
   (O)  Gas phase energy.............   -1629.49616383883
  
 SCFE: SCF energy: DFT(b3pw91-d3)     -1629.49616383883 hartrees   iterations:  12
  
 
 HOMO energy:    -0.16378
 LUMO energy:    -0.05492
 
  Orbital energies (hartrees): 
   -77.07288   -24.68176   -10.24942   -10.23258   -10.21149   -10.20679
   -10.20549   -10.20519   -10.18596   -10.18530   -10.18471   -10.18436
   -10.18311   -10.18294   -10.18248   -10.18236   -10.17939   -10.17849
   -10.16935   -10.16766   -10.16729   -10.16576   -10.16566   -10.16559
   -10.16348   -10.16343   -10.16259   -10.16102   -10.15269    -6.57244
    -4.73067    -4.73021    -4.72677    -3.27625    -2.01306    -1.99630
    -1.98924    -1.21275    -0.87570    -0.86792    -0.84909    -0.82725
    -0.80973    -0.78597    -0.76374    -0.76281    -0.76209    -0.75972
    -0.72582    -0.71113    -0.69337    -0.69084    -0.68393    -0.67854
    -0.67765    -0.65448    -0.62696    -0.62281    -0.60385    -0.60244
    -0.58579    -0.57230    -0.55936    -0.54070    -0.53408    -0.50825
    -0.48955    -0.48704    -0.47317    -0.47197    -0.46831    -0.46363
    -0.45599    -0.45491    -0.45281    -0.44674    -0.44299    -0.43977
    -0.43665    -0.43532    -0.43052    -0.42363    -0.41883    -0.41464
    -0.40296    -0.39573    -0.39414    -0.39177    -0.38794    -0.38387
    -0.38026    -0.37856    -0.37627    -0.37096    -0.36219    -0.35998
    -0.35721    -0.35450    -0.34989    -0.34720    -0.34364    -0.33580
    -0.33052    -0.32859    -0.32712    -0.32508    -0.31774    -0.31237
    -0.29634    -0.28306    -0.27661    -0.26882    -0.26389    -0.26225
    -0.25826    -0.24061    -0.23310    -0.21635    -0.20970    -0.20587
    -0.19613    -0.16378    -0.05492    -0.03907    -0.02389    -0.01671
    -0.00479     0.00251     0.00834     0.02277     0.04005     0.04526
 
  end of program scf
   
 Time(scf)  user:     318.518  user+sys:     318.518  wallclock:     171.154
  
  start of program der1a
  
  end of program der1a
   
 Time(der1a)  user:      18.335  user+sys:      18.335  wallclock:      10.026
  
  start of program rwr
  
  end of program rwr
   
 Time(rwr)  user:      14.500  user+sys:      14.500  wallclock:      18.679
  
  start of program der1b
  
   
  forces (hartrees/bohr) : total     
   
 atom  label           x              y              z
 ---- --------   -------------  -------------  -------------
    1 P1          8.151043E-03   5.572804E-03   3.863174E-02
    2 Pd2         4.388787E-03   1.460122E-02   1.094504E-02
    3 Br3        -8.366553E-03  -4.910878E-03  -8.037203E-03
    4 C73        -6.989569E-03  -2.511274E-03  -2.429586E-03
    5 C74         2.112958E-03  -8.671790E-04   8.000192E-04
    6 C75         2.506463E-03  -4.110174E-03   1.742585E-03
    7 C76         2.329116E-03  -8.617100E-04  -5.861528E-03
    8 C77        -1.014871E-04   7.167277E-03   5.473329E-03
    9 C78        -1.676509E-04   2.454806E-03   5.907816E-03
   10 F79         4.752819E-03   8.237525E-04   1.849562E-03
   11 H80        -1.335151E-03   4.336974E-04   1.170398E-03
   12 H81         1.091844E-03  -2.946577E-04  -9.825278E-05
   13 H82         7.047157E-04  -1.788017E-04  -1.465186E-03
   14 H83         1.435491E-04   7.699943E-04  -1.638282E-04
   15 C3         -1.450342E-02  -5.141408E-03  -1.674850E-02
   16 C4         -3.847792E-03   1.820733E-02  -3.239687E-02
   17 C5         -1.460993E-02  -2.884400E-02  -1.581364E-02
   18 C6         -1.059415E-03   1.092845E-02   6.491637E-02
   19 C7         -1.960845E-03  -9.183577E-03   1.044716E-02
   20 C8          8.969021E-04   7.797604E-03   6.086157E-03
   21 C9          7.906929E-04   8.729741E-04  -2.989283E-03
   22 C10         3.761147E-03  -2.770670E-03   3.881586E-04
   23 C11        -4.305148E-03   2.074867E-02  -8.028748E-04
   24 C12        -5.596710E-03  -2.024427E-02  -4.832961E-02
   25 C13         1.474297E-02   4.201976E-04  -6.607263E-03
   26 C14        -5.998898E-03   6.723569E-04  -3.399059E-03
   27 C15         4.231500E-03  -4.911242E-04   9.992128E-04
   28 C16         6.225195E-03  -1.377369E-02  -1.413384E-02
   29 C17        -1.255626E-02  -1.044427E-02   9.187312E-03
   30 C18         1.090005E-02   4.094323E-03   1.557775E-02
   31 C19         4.403054E-04   5.635016E-03  -1.599436E-02
   32 C20         1.767061E-02  -1.867474E-03   5.115601E-03
   33 C21        -1.691597E-03   3.039722E-03  -1.475002E-02
   34 C22        -7.930413E-03   9.239380E-03   9.357935E-03
   35 C23        -4.040741E-03  -1.429475E-02  -5.130490E-03
   36 H24        -3.395776E-03   1.443397E-03  -1.138754E-02
   37 H25        -1.193965E-03  -4.773569E-03  -9.882895E-03
   38 H26         1.097530E-03  -1.060014E-02  -5.481575E-03
   39 H27        -3.715565E-03  -1.980727E-03  -9.111023E-03
   40 H28        -5.222592E-03   2.949768E-04   1.489323E-02
   41 H29        -7.654339E-03   1.194731E-03   8.933470E-03
   42 H30        -1.916358E-03   1.239684E-03   1.079255E-02
   43 H31         9.738306E-03  -9.754319E-03   1.172320E-02
   44 H32         6.218607E-03  -3.702356E-03  -4.168788E-03
   45 H33         1.051280E-02  -6.090876E-03   3.936372E-03
   46 H34         4.873958E-03   6.080140E-03   4.060816E-03
   47 H35         5.494814E-03  -4.857938E-03  -7.430268E-03
   48 H36        -9.215399E-03  -3.022218E-03   4.854886E-03
   49 H37         1.416883E-03  -1.238541E-02   1.637597E-03
   50 H38         6.358581E-04   9.249600E-03   3.296561E-03
   51 H39         4.335810E-04  -5.217627E-03   9.562987E-03
   52 H40        -1.776095E-02   6.086766E-03   9.645312E-04
   53 H41        -7.920665E-03   4.953908E-04   4.395211E-03
   54 H42         1.196089E-03   4.938053E-03  -7.869532E-03
   55 H43         5.043686E-05   1.237084E-02  -7.033321E-04
   56 H44        -1.670512E-03   4.448143E-03   7.188481E-03
   57 H45         6.128694E-03   7.716882E-03   5.751124E-03
   58 H46         6.865085E-03  -4.212617E-03   3.367769E-03
   59 H47        -8.677310E-04   1.367980E-03  -1.666903E-02
   60 H48         6.597323E-03  -7.369895E-03   3.616206E-03
   61 H49         8.054040E-03   7.087654E-03  -4.796411E-03
   62 H50        -1.301680E-02  -6.092301E-04  -4.763319E-03
   63 H51         1.342829E-02   6.994148E-03  -4.557599E-03
   64 H52         1.297505E-03   1.164659E-02  -5.855138E-03
 -------------   -------------  -------------  -------------
     total        1.268226E-03   7.676994E-04  -2.566949E-04
   
  end of program der1b
   
 Time(der1b)  user:     104.554  user+sys:     104.554  wallclock:      55.523
  
  start of program geopt
  
 ----------------------------------------------------------------------------
  Geometry optimization step  1
  Total energy:     -1629.49616383883 hartrees
 ----------------------------------------------------------------------------
  
  Hessian eigenvalues: 
    0.00000E+00    0.00000E+00    0.00000E+00    0.00000E+00    0.00000E+00
    0.00000E+00    0.00000E+00    0.00000E+00    0.00000E+00    0.00000E+00
    0.00000E+00    0.00000E+00    0.00000E+00    0.00000E+00    0.00000E+00
    0.00000E+00    0.00000E+00    0.00000E+00    0.00000E+00    0.00000E+00
    0.00000E+00    0.00000E+00    0.00000E+00    0.00000E+00    0.00000E+00
    0.00000E+00    0.00000E+00    0.00000E+00    0.00000E+00    0.00000E+00
    0.00000E+00    5.66341E-03    1.26192E-02    1.56507E-02    1.78050E-02
    1.79597E-02    1.87152E-02    1.89583E-02    1.97822E-02    2.11528E-02
    2.23737E-02    2.24588E-02    2.28235E-02    2.53682E-02    2.71744E-02
    2.76483E-02    3.07283E-02    3.20659E-02    3.62886E-02    3.65687E-02
    4.67278E-02    4.92212E-02    5.11153E-02    5.85436E-02    6.22276E-02
    6.59207E-02    6.80962E-02    7.02528E-02    7.10238E-02    7.18884E-02
    7.43821E-02    7.58363E-02    7.94494E-02    8.18434E-02    1.04844E-01
    1.06754E-01    1.14174E-01    1.23199E-01    1.26964E-01    1.28033E-01
    1.28112E-01    1.28335E-01    1.28555E-01    1.28661E-01    1.31235E-01
    1.31657E-01    1.32492E-01    1.36454E-01    1.37627E-01    1.38870E-01
    1.41626E-01    1.42289E-01    1.43921E-01    1.48239E-01    1.50558E-01
    1.58923E-01    1.69924E-01    1.75518E-01    1.96134E-01    1.99461E-01
    2.00394E-01    2.01920E-01    2.06806E-01    2.09654E-01    2.12495E-01
    2.13681E-01    2.16886E-01    2.19966E-01    2.22161E-01    2.23407E-01
    2.27506E-01    2.29363E-01    2.29800E-01    2.30176E-01    2.30866E-01
    2.31223E-01    2.34448E-01    2.39553E-01    2.41601E-01    2.42668E-01
    2.43536E-01    2.43732E-01    2.44635E-01    2.44767E-01    2.47835E-01
    2.54485E-01    2.57224E-01    2.58393E-01    2.72793E-01    2.81486E-01
    2.85869E-01    2.89759E-01    2.93007E-01    2.98630E-01    3.08019E-01
    3.11458E-01    3.15308E-01    3.15352E-01    3.15438E-01    3.15446E-01
    3.15459E-01    3.15488E-01    3.15535E-01    3.15781E-01    3.15900E-01
    3.15957E-01    3.16851E-01    3.17349E-01    3.17488E-01    3.17691E-01
    3.18347E-01    3.19215E-01    3.19251E-01    3.19947E-01    3.20516E-01
    3.21358E-01    3.21671E-01    3.21746E-01    3.21867E-01    3.25843E-01
    3.26325E-01    3.26418E-01    3.26737E-01    3.26999E-01    3.29247E-01
    3.33859E-01    3.36993E-01    3.37535E-01    3.39685E-01    3.42270E-01
    3.45061E-01    3.46758E-01    3.46962E-01    3.47919E-01    3.49885E-01
    3.50237E-01    3.51012E-01    3.51423E-01    3.52893E-01    3.53146E-01
    3.55063E-01    3.55306E-01    3.57384E-01    3.58619E-01    3.60568E-01
    3.60783E-01    3.61010E-01    3.66418E-01    3.68303E-01    3.69716E-01
    3.71367E-01    3.72262E-01    3.74818E-01    3.75357E-01    3.75800E-01
    3.78367E-01    3.78873E-01    3.79536E-01    3.79922E-01    3.80993E-01
    3.81693E-01    3.84018E-01    3.87625E-01    3.99020E-01    4.05507E-01
    4.10834E-01    4.15522E-01    4.16869E-01    4.25179E-01    4.26901E-01
    4.56423E-01    4.62530E-01    4.67372E-01    5.30428E-01    5.32055E-01
    5.33772E-01    5.55321E-01    5.66336E-01    5.84353E-01    5.96795E-01
    6.00536E-01    6.01909E-01    6.36195E-01    6.78486E-01    7.04240E-01
    7.64068E-01    1.11231E+00
  
 WARNING: Hessian has wrong number of negative eigenvalues:           0
  
  TS search will follow eigenvector  32 on this iteration
  
  Selected vector:  eigenvalue     5.66341E-03

 32)  Br3-Pd2-P1-C4( 37) -0.59883
      Br3-Pd2-P1-C3( 36) -0.59478
      C76-Pd2-P1-C3( 70) -0.46988
  
  
  Level shifts adjusted to satisfy step-size constraints
   Step size:    0.1001082
   Cos(theta):   0.9929817
   Final level shift:  -2.4476393E+00
  
  gradient maximum:        1.2556E-01 .  (  2.2500E-03 )
  gradient rms:            2.1226E-02 .  (  1.5000E-03 )
  displacement maximum:    3.7143E-02 .  (  9.0000E-03 )
  displacement rms:        6.7958E-03 .  (  6.0000E-03 )
  
  predicted energy change:  -2.7799E-02
  step size:     0.10011
  trust radius:  0.10000
  
  molecular structure not yet converged...
  
  center of mass moved by:
     x:     3.5430E-02     y:     2.5645E-02     z:    -1.5014E-02
  
  new geometry: 
                                   angstroms
  atom               x                 y                 z
  P1           -0.0100617251     -0.0140034261     -0.0142740121 
  Pd2           0.0229978553      0.0085108693      2.3383206713 
  Br3           0.2833114309      0.7809114401      4.9075104590 
  C73          -4.1766826233     -0.0011572775      2.9717627656 
  C74          -3.6028356136      1.2569437160      2.8289970953 
  C75          -2.2828095547      1.4457730516      3.2273458291 
  C76          -1.5525340722      0.3399198577      3.7048512081 
  C77          -2.1699928296     -0.9049744943      3.9266365419 
  C78          -3.4949151076     -1.0770482941      3.5225724692 
  F79          -5.4529343545     -0.1818750529      2.5564363440 
  H80          -4.1750824857      2.0637990899      2.3831185967 
  H81          -1.8059727280      2.4135243772      3.1226945932 
  H82          -1.6174686498     -1.7170009670      4.3869349576 
  H83          -3.9968356555     -2.0343778602      3.6301481533 
  C3            1.7976324985     -0.0514865275     -0.6087508965 
  C4           -0.9071377702      1.4194954354     -0.9251970251 
  C5           -0.8554997223     -1.6896432546     -0.3968170333 
  C6            3.1950328207      0.3648531122      1.5328469526 
  C7            3.6361491373     -0.5182815525      2.5673188760 
  C8            3.7663544290     -0.0530417732      3.8934491548 
  C9            3.4803648189      1.2568809709      4.2839398805 
  C10           3.0372271089      2.1355662104      3.2981788890 
  C11           2.9171512604      1.6671772688      1.9867409087 
  C12           3.0251906852      0.0850423089      0.1251986026 
  C13           4.2028678850     -0.0573410678     -0.6419920090 
  C14           4.2600012112     -0.3091772131     -2.0156742403 
  C15           3.0658799142     -0.4274785269     -2.7184400821 
  C16           1.8795822515     -0.2917915481     -1.9952408092 
  C17          -2.4513633162      1.4124742319     -0.8298538845 
  C18          -0.4339562844      2.8130004141     -0.4468925138 
  C19          -0.5850883759      1.4040114511     -2.4409913049 
  C20           0.0728405061     -2.8710217193     -0.0312660845 
  C21          -1.3732386708     -1.9598063535     -1.8340384063 
  C22          -2.0887858890     -1.8155121905      0.5288055927 
  C23           3.9252955965     -1.9958531460      2.4066044484 
  H24           4.0997397475     -0.7377066586      4.6884227425 
  H25           3.5915407717      1.5843381666      5.3291536639 
  H26           2.7987258646      3.1818533069      3.5452108438 
  H27           2.6070395175      2.4199343601      1.2721667332 
  H28           5.1926893803      0.0658353517     -0.2050940117 
  H29           5.2249162822     -0.3986455650     -2.5398066380 
  H30           3.0569566848     -0.6175741040     -3.8031135229 
  H31           0.9729552672     -0.3994025190     -2.5894839389 
  H32          -2.8225598219      1.5268166388      0.2061165356 
  H33          -2.8966911131      2.2533794263     -1.4050596763 
  H34          -2.9082521707      0.4937832321     -1.2433245131 
  H35          -0.6793595742      2.9914695996      0.6210748891 
  H36           0.6584840571      2.9519249284     -0.5978978169 
  H37          -0.9271735286      3.6320742588     -1.0147287020 
  H38          -0.8883718994      0.4572947634     -2.9311522545 
  H39          -1.1102500406      2.2194368555     -2.9855102307 
  H40           0.4977056515      1.5538204184     -2.6335884555 
  H41           1.0548200114     -2.8094251917     -0.5454494479 
  H42           0.2600607141     -2.9259617241      1.0601621597 
  H43          -0.3764421753     -3.8500374414     -0.3065600807 
  H44          -0.5744709651     -2.0551783846     -2.5954889919 
  H45          -1.9280067096     -2.9222153970     -1.8850850295 
  H46          -2.0894907083     -1.1948460489     -2.1881739622 
  H47          -1.8071223503     -1.7718433991      1.6011086629 
  H48          -2.8316967741     -1.0121985932      0.3475390287 
  H49          -2.6175048872     -2.7834455401      0.3866620414 
  H50           4.9616798800     -2.1799672649      2.0483398498 
  H51           3.1597391127     -2.5039040949      1.7809396325 
  H52           3.8561945133     -2.5416222854      3.3722499764 
   
 
  bond lengths (angstroms):
 
 P1      -Pd2     :   2.352935      P1      -C3      :   1.903304
 P1      -C4      :   1.920793      P1      -C5      :   1.915430
 Pd2     -Br3     :   2.695385      Pd2     -C76     :   2.111762
 Br3     -C76     :   2.238569      C73     -C74     :   1.390144
 C73     -C78     :   1.387710      C73     -F79     :   1.354243
 C74     -C75     :   1.391692      C74     -H80     :   1.085030
 C75     -C76     :   1.408625      C75     -H81     :   1.083913
 C76     -C77     :   1.407198      C77     -C78     :   1.395814
 C77     -H82     :   1.084686      C78     -H83     :   1.086267
 C3      -C12     :   1.436740      C3      -C16     :   1.409545
 C4      -C17     :   1.547182      C4      -C18     :   1.547428
 C4      -C19     :   1.549706      C5      -C20     :   1.546318
 C5      -C21     :   1.551337      C5      -C22     :   1.547131
 C6      -C7      :   1.429910      C6      -C11     :   1.406871
 C6      -C12     :   1.445204      C7      -C8      :   1.411390
 C7      -C23     :   1.514151      C8      -C9      :   1.396485
 C8      -H24     :   1.100861      C9      -C10     :   1.392905
 C9      -H25     :   1.100936      C10     -C11     :   1.397740
 C10     -H26     :   1.101192      C11     -H27     :   1.083249
 C12     -C13     :   1.412720      C13     -C14     :   1.397744
 C13     -H28     :   1.088944      C14     -C15     :   1.390612
 C14     -H29     :   1.101717      C15     -C16     :   1.395969
 C15     -H30     :   1.101241      C16     -H31     :   1.089347
 C17     -H32     :   1.106389      C17     -H33     :   1.111890
 C17     -H34     :   1.106209      C18     -H35     :   1.110238
 C18     -H36     :   1.111543      C18     -H37     :   1.112018
 C19     -H38     :   1.108382      C19     -H39     :   1.112301
 C19     -H40     :   1.109946      C20     -H41     :   1.110163
 C20     -H42     :   1.108731      C20     -H43     :   1.111806
 C21     -H44     :   1.107670      C21     -H45     :   1.112027
 C21     -H46     :   1.106161      C22     -H47     :   1.109538
 C22     -H48     :   1.109093      C22     -H49     :   1.112045
 C23     -H50     :   1.111910      C23     -H51     :   1.111597
 C23     -H52     :   1.111355
 
  bond angles:
 
 C3      -P1      -Pd2     : 107.405847  C4      -P1      -Pd2     : 118.267949
 C4      -P1      -C3      : 108.068036  C5      -P1      -Pd2     : 102.372113
 C5      -P1      -C3      : 109.852685  C5      -P1      -C4      : 110.611013
 Br3     -Pd2     -P1      : 163.164876  C76     -Pd2     -P1      : 129.645076
 C76     -Pd2     -Br3     :  53.862472  C76     -Br3     -Pd2     :  49.628080
 C78     -C73     -C74     : 122.657626  F79     -C73     -C74     : 118.574296
 F79     -C73     -C78     : 118.768071  C75     -C74     -C73     : 119.008488
 H80     -C74     -C73     : 119.833710  H80     -C74     -C75     : 121.129181
 C76     -C75     -C74     : 118.832093  H81     -C75     -C74     : 120.715405
 H81     -C75     -C76     : 120.370155  Br3     -C76     -Pd2     :  76.509449
 C75     -C76     -Pd2     : 106.895773  C75     -C76     -Br3     : 116.912485
 C77     -C76     -Pd2     : 106.889182  C77     -C76     -Br3     : 116.708357
 C77     -C76     -C75     : 121.362969  C78     -C77     -C76     : 118.681201
 H82     -C77     -C76     : 120.374750  H82     -C77     -C78     : 120.935347
 C77     -C78     -C73     : 119.055808  H83     -C78     -C73     : 119.707722
 H83     -C78     -C77     : 121.236369  C12     -C3      -P1      : 130.545935
 C16     -C3      -P1      : 111.457243  C16     -C3      -C12     : 117.970338
 C17     -C4      -P1      : 115.691817  C18     -C4      -P1      : 112.499252
 C18     -C4      -C17     : 106.872357  C19     -C4      -P1      : 111.060463
 C19     -C4      -C17     : 105.524242  C19     -C4      -C18     : 104.346424
 C20     -C5      -P1      : 110.864024  C21     -C5      -P1      : 118.991402
 C21     -C5      -C20     : 106.637994  C22     -C5      -P1      : 107.669747
 C22     -C5      -C20     : 105.960772  C22     -C5      -C21     : 105.906543
 C11     -C6      -C7      : 113.531125  C12     -C6      -C7      : 128.413204
 C12     -C6      -C11     : 118.050905  C8      -C7      -C6      : 120.306337
 C23     -C7      -C6      : 125.790077  C23     -C7      -C8      : 113.814806
 C9      -C8      -C7      : 123.575766  H24     -C8      -C7      : 120.095488
 H24     -C8      -C9      : 116.325935  C10     -C9      -C8      : 117.321892
 H25     -C9      -C8      : 121.586763  H25     -C9      -C10     : 121.089620
 C11     -C10     -C9      : 118.681626  H26     -C10     -C9      : 120.631916
 H26     -C10     -C11     : 120.681850  C10     -C11     -C6      : 126.579718
 H27     -C11     -C6      : 119.142864  H27     -C11     -C10     : 114.246017
 C6      -C12     -C3      : 128.052118  C13     -C12     -C3      : 115.166927
 C13     -C12     -C6      : 116.775268  C14     -C13     -C12     : 125.869729
 H28     -C13     -C12     : 121.901432  H28     -C13     -C14     : 112.180863
 C15     -C14     -C13     : 118.482651  H29     -C14     -C13     : 121.197049
 H29     -C14     -C15     : 120.314390  C16     -C15     -C14     : 117.364376
 H30     -C15     -C14     : 121.292311  H30     -C15     -C16     : 121.343048
 C15     -C16     -C3      : 125.139319  H31     -C16     -C3      : 120.333704
 H31     -C16     -C15     : 114.522766  H32     -C17     -C4      : 113.084876
 H33     -C17     -C4      : 111.372964  H33     -C17     -H32     : 105.775145
 H34     -C17     -C4      : 113.139332  H34     -C17     -H32     : 107.292002
 H34     -C17     -H33     : 105.622692  H35     -C18     -C4      : 111.993241
 H36     -C18     -C4      : 111.782895  H36     -C18     -H35     : 109.136911
 H37     -C18     -C4      : 111.705580  H37     -C18     -H35     : 105.947428
 H37     -C18     -H36     : 105.931131  H38     -C19     -C4      : 112.595618
 H39     -C19     -C4      : 111.924749  H39     -C19     -H38     : 106.289381
 H40     -C19     -C4      : 111.783692  H40     -C19     -H38     : 107.787127
 H40     -C19     -H39     : 106.063297  H41     -C20     -C5      : 112.281349
 H42     -C20     -C5      : 111.835626  H42     -C20     -H41     : 108.018174
 H43     -C20     -C5      : 111.814688  H43     -C20     -H41     : 106.954779
 H43     -C20     -H42     : 105.565994  H44     -C21     -C5      : 114.279960
 H45     -C21     -C5      : 111.084221  H45     -C21     -H44     : 104.695468
 H46     -C21     -C5      : 113.095524  H46     -C21     -H44     : 107.842306
 H46     -C21     -H45     : 105.116005  H47     -C22     -C5      : 111.878719
 H48     -C22     -C5      : 112.163344  H48     -C22     -H47     : 107.426836
 H49     -C22     -C5      : 111.921737  H49     -C22     -H47     : 106.169799
 H49     -C22     -H48     : 106.922158  H50     -C23     -C7      : 111.948604
 H51     -C23     -C7      : 111.976758  H51     -C23     -H50     : 112.636668
 H52     -C23     -C7      : 112.031834  H52     -C23     -H50     : 104.868440
 H52     -C23     -H51     : 102.814014
 
  torsional angles:
 
 P1      -Pd2     -Br3     -C76     : 108.335343
 P1      -Pd2     -C76     -Br3     :-159.082256
 P1      -Pd2     -C76     -C75     : -44.650982
 P1      -Pd2     -C76     -C77     :  86.700517
 P1      -C3      -C12     -C6      :  -3.737336
 P1      -C3      -C12     -C13     : 177.166212
 P1      -C3      -C16     -C15     :-177.398931
 P1      -C3      -C16     -H31     :   1.812329
 P1      -C4      -C17     -H32     :  62.699035
 P1      -C4      -C17     -H33     :-178.343802
 P1      -C4      -C17     -H34     : -59.545176
 P1      -C4      -C18     -H35     : -63.942994
 P1      -C4      -C18     -H36     :  58.886850
 P1      -C4      -C18     -H37     : 177.390878
 P1      -C4      -C19     -H38     :  59.443914
 P1      -C4      -C19     -H39     : 179.113901
 P1      -C4      -C19     -H40     : -62.065808
 P1      -C5      -C20     -H41     : -56.161086
 P1      -C5      -C20     -H42     :  65.459942
 P1      -C5      -C20     -H43     :-176.390675
 P1      -C5      -C21     -H44     :  67.511478
 P1      -C5      -C21     -H45     :-174.312193
 P1      -C5      -C21     -H46     : -56.391245
 P1      -C5      -C22     -H47     : -59.210909
 P1      -C5      -C22     -H48     :  61.590074
 P1      -C5      -C22     -H49     :-178.229618
 Pd2     -P1      -C3      -C12     :  -7.938632
 Pd2     -P1      -C3      -C16     : 170.114635
 Pd2     -P1      -C4      -C17     : -71.421544
 Pd2     -P1      -C4      -C18     :  51.800447
 Pd2     -P1      -C4      -C19     : 168.344973
 Pd2     -P1      -C5      -C20     : -69.891119
 Pd2     -P1      -C5      -C21     : 165.948632
 Pd2     -P1      -C5      -C22     :  45.593120
 Pd2     -Br3     -C76     -C75     :-102.321801
 Pd2     -Br3     -C76     -C77     : 102.341938
 Pd2     -C76     -C75     -C74     : 115.509018
 Pd2     -C76     -C75     -H81     : -61.215068
 Pd2     -C76     -C77     -C78     :-115.551422
 Pd2     -C76     -C77     -H82     :  63.385501
 Br3     -Pd2     -P1      -C3      :  74.321097
 Br3     -Pd2     -P1      -C4      : -48.200167
 Br3     -Pd2     -P1      -C5      :-170.012710
 Br3     -Pd2     -C76     -C75     : 114.431274
 Br3     -Pd2     -C76     -C77     :-114.217227
 Br3     -C76     -C75     -C74     :-161.339231
 Br3     -C76     -C75     -H81     :  21.936683
 Br3     -C76     -C77     -C78     : 161.349942
 Br3     -C76     -C77     -H82     : -19.713135
 C73     -C74     -C75     -C76     :   2.899176
 C73     -C74     -C75     -H81     : 179.611581
 C73     -C78     -C77     -C76     :  -2.839696
 C73     -C78     -C77     -H82     : 178.229565
 C74     -C73     -C78     -C77     :  -1.371863
 C74     -C73     -C78     -H83     : 178.742165
 C74     -C75     -C76     -C77     :  -7.223559
 C75     -C74     -C73     -C78     :   1.342331
 C75     -C74     -C73     -F79     :-178.687498
 C75     -C76     -C77     -C78     :   7.184269
 C75     -C76     -C77     -H82     :-173.878808
 C76     -Pd2     -P1      -C3      : 169.714090
 C76     -Pd2     -P1      -C4      :  47.192825
 C76     -Pd2     -P1      -C5      : -74.619717
 C76     -C75     -C74     -H80     :-175.151441
 C76     -C77     -C78     -H83     : 177.044471
 C77     -C76     -C75     -H81     : 176.052355
 C77     -C78     -C73     -F79     : 178.658021
 C78     -C73     -C74     -H80     : 179.418731
 F79     -C73     -C74     -H80     :  -0.611097
 F79     -C73     -C78     -H83     :  -1.227951
 H80     -C74     -C75     -H81     :   1.560964
 H82     -C77     -C78     -H83     :  -1.886268
 C3      -P1      -C4      -C17     : 166.391532
 C3      -P1      -C4      -C18     : -70.386477
 C3      -P1      -C4      -C19     :  46.158049
 C3      -P1      -C5      -C20     :  43.987565
 C3      -P1      -C5      -C21     : -80.172685
 C3      -P1      -C5      -C22     : 159.471803
 C3      -C12     -C6      -C7      : 108.080069
 C3      -C12     -C6      -C11     : -72.770965
 C3      -C12     -C13     -C14     :   0.168132
 C3      -C12     -C13     -H28     : 177.447823
 C3      -C16     -C15     -C14     :  -0.350835
 C3      -C16     -C15     -H30     : 179.834229
 C4      -P1      -C3      -C12     : 120.694964
 C4      -P1      -C3      -C16     : -61.251769
 C4      -P1      -C5      -C20     : 163.202416
 C4      -P1      -C5      -C21     :  39.042166
 C4      -P1      -C5      -C22     : -81.313346
 C5      -P1      -C3      -C12     :-118.543423
 C5      -P1      -C3      -C16     :  59.509844
 C5      -P1      -C4      -C17     :  46.103936
 C5      -P1      -C4      -C18     : 169.325927
 C5      -P1      -C4      -C19     : -74.129547
 C6      -C7      -C8      -C9      :   0.219911
 C6      -C7      -C8      -H24     : 179.587090
 C6      -C7      -C23     -H50     :  85.281853
 C6      -C7      -C23     -H51     : -42.315178
 C6      -C7      -C23     -H52     :-157.232754
 C6      -C11     -C10     -C9      :   0.358488
 C6      -C11     -C10     -H26     : 179.582443
 C6      -C12     -C3      -C16     : 178.314141
 C6      -C12     -C13     -C14     :-179.034928
 C6      -C12     -C13     -H28     :  -1.755236
 C7      -C6      -C11     -C10     :   0.187384
 C7      -C6      -C11     -H27     : 178.024549
 C7      -C6      -C12     -C13     : -72.835921
 C7      -C8      -C9      -C10     :   0.340206
 C7      -C8      -C9      -H25     : 179.867171
 C8      -C7      -C6      -C11     :  -0.461620
 C8      -C7      -C6      -C12     : 178.719199
 C8      -C7      -C23     -H50     : -98.158150
 C8      -C7      -C23     -H51     : 134.244819
 C8      -C7      -C23     -H52     :  19.327244
 C8      -C9      -C10     -C11     :  -0.604364
 C8      -C9      -C10     -H26     :-179.828720
 C9      -C8      -C7      -C23     :-176.548205
 C9      -C10     -C11     -H27     :-177.569764
 C10     -C9      -C8      -H24     :-179.048929
 C10     -C11     -C6      -C12     :-179.085316
 C11     -C6      -C7      -C23     : 175.892842
 C11     -C6      -C12     -C13     : 106.313045
 C11     -C10     -C9      -H25     : 179.866178
 C12     -C3      -C16     -C15     :   0.926211
 C12     -C3      -C16     -H31     :-179.862529
 C12     -C6      -C7      -C23     :  -4.926339
 C12     -C6      -C11     -H27     :  -1.248150
 C12     -C13     -C14     -C15     :   0.400396
 C12     -C13     -C14     -H29     : 179.518680
 C13     -C12     -C3      -C16     :  -0.782311
 C13     -C14     -C15     -C16     :  -0.311606
 C13     -C14     -C15     -H30     : 179.503429
 C14     -C15     -C16     -H31     :-179.602582
 C15     -C14     -C13     -H28     :-177.105761
 C16     -C15     -C14     -H29     :-179.437937
 C17     -C4      -C18     -H35     :  64.080180
 C17     -C4      -C18     -H36     :-173.089975
 C17     -C4      -C18     -H37     : -54.585948
 C17     -C4      -C19     -H38     : -66.650593
 C17     -C4      -C19     -H39     :  53.019394
 C17     -C4      -C19     -H40     : 171.839686
 C18     -C4      -C17     -H32     : -63.434440
 C18     -C4      -C17     -H33     :  55.522723
 C18     -C4      -C17     -H34     : 174.321349
 C18     -C4      -C19     -H38     :-179.106443
 C18     -C4      -C19     -H39     : -59.436456
 C18     -C4      -C19     -H40     :  59.383836
 C19     -C4      -C17     -H32     :-174.104375
 C19     -C4      -C17     -H33     : -55.147212
 C19     -C4      -C17     -H34     :  63.651415
 C19     -C4      -C18     -H35     : 175.565275
 C19     -C4      -C18     -H36     : -61.604881
 C19     -C4      -C18     -H37     :  56.899147
 C20     -C5      -C21     -H44     : -58.684832
 C20     -C5      -C21     -H45     :  59.491497
 C20     -C5      -C21     -H46     : 177.412446
 C20     -C5      -C22     -H47     :  59.466807
 C20     -C5      -C22     -H48     :-179.732210
 C20     -C5      -C22     -H49     : -59.551901
 C21     -C5      -C20     -H41     :  74.777810
 C21     -C5      -C20     -H42     :-163.601163
 C21     -C5      -C20     -H43     : -45.451779
 C21     -C5      -C22     -H47     : 172.493931
 C21     -C5      -C22     -H48     : -66.705086
 C21     -C5      -C22     -H49     :  53.475222
 C22     -C5      -C20     -H41     :-172.703658
 C22     -C5      -C20     -H42     : -51.082630
 C22     -C5      -C20     -H43     :  67.066753
 C22     -C5      -C21     -H44     :-171.240672
 C22     -C5      -C21     -H45     : -53.064343
 C22     -C5      -C21     -H46     :  64.856606
 C23     -C7      -C8      -H24     :   2.818974
 H24     -C8      -C9      -H25     :   0.478037
 H25     -C9      -C10     -H26     :   0.641822
 H26     -C10     -C11     -H27     :   1.654191
 H28     -C13     -C14     -H29     :   2.012523
 H29     -C14     -C15     -H30     :   0.377098
 H30     -C15     -C16     -H31     :   0.582482
 
  nuclear repulsion energy.......          3724.244736750 hartrees
 -------------------------------------------------
   end of geometry optimization iteration  1
 -------------------------------------------------
   
  end of program geopt
   
 Time(geopt)  user:       0.606  user+sys:       0.606  wallclock:       0.822
  
  start of program onee
  
  smallest eigenvalue of S:    3.931E-04
  number of canonical orbitals.....          514
  end of program onee
   
 Time(onee)  user:       5.821  user+sys:       5.821  wallclock:       4.687
  
  start of program probe
  
  end of program probe
   
 Time(probe)  user:       0.484  user+sys:       0.484  wallclock:       0.537
  
  start of program grid
  
  end of program grid
   
 Time(grid)  user:     187.957  user+sys:     187.957  wallclock:      96.196
  
  start of program rwr
  
  end of program rwr
   
 Time(rwr)  user:      13.683  user+sys:      13.683  wallclock:      17.156
  
  start of program scf
  
 Energy computed using pseudospectral method.
 Convergence Criterion:
    Energy (econv):       1.00E-05
    RMS density (dconv):  5.00E-06
  
       i  u  d  i  g                   
       t  p  i  c  r                                 RMS    maximum
       e  d  i  u  i                       energy  density   DIIS  
       r  t  s  t  d       total energy    change  change    error 
  
etot    1  N  N  2  U   -1629.39135360468           2.5E-04  4.3E-03
etot    2  Y  Y  6  M   -1629.40361303136  1.2E-02  5.7E-05  5.7E-04
etot    3  N  Y  2  U   -1629.40384564262  2.3E-04  2.9E-05  5.0E-04
etot    4  N  Y  2  U   -1629.40394689846  1.0E-04  1.1E-05  4.5E-04
etot    5  N  Y  2  U   -1629.40396646195  2.0E-05  4.8E-06  1.8E-04
etot    6  N  N  2  U   -1629.40396990955  3.4E-06  0.0E+00  0.0E+00
 
  Computing the dispersion energy correction and its gradients...
  
  
 Energy components, in hartrees:
   (A)  Nuclear repulsion............    3724.24473675037
   (E)  Total one-electron terms.....   -9692.91617269944
   (F)    Electron-nuclear...........  -11223.99803820144
   (H)    Kinetic....................    1531.08186550200
   (I)  Total two-electron terms.....    4339.26746603953
   (J)    Coulomb....................    4546.69045529444
   (K)    Exchange+Correlation.......    -207.42298925492
   (L)  Electronic energy............   -5353.64870665992  (E+I)
   (N0) D3 correction................      -0.11569547126
   (N)  Total energy.................   -1629.51966538081  (A+L+N0)
   (O)  Gas phase energy.............   -1629.51966538081
  
 SCFE: SCF energy: DFT(b3pw91-d3)     -1629.51966538081 hartrees   iterations:   6
  
 
 HOMO energy:    -0.16286
 LUMO energy:    -0.05397
 
  Orbital energies (hartrees): 
   -77.07167   -24.68155   -10.24887   -10.23121   -10.21053   -10.20506
   -10.20483   -10.20443   -10.18541   -10.18436   -10.18401   -10.18396
   -10.18383   -10.18290   -10.18226   -10.18205   -10.17898   -10.17770
   -10.16776   -10.16705   -10.16669   -10.16556   -10.16538   -10.16510
   -10.16293   -10.16283   -10.16168   -10.16043   -10.15283    -6.57129
    -4.72956    -4.72903    -4.72559    -3.27530    -2.01206    -1.99536
    -1.98838    -1.21280    -0.87607    -0.86729    -0.84919    -0.82684
    -0.80967    -0.78564    -0.76395    -0.76222    -0.76154    -0.75922
    -0.72578    -0.71078    -0.69188    -0.69164    -0.68434    -0.67934
    -0.67807    -0.65383    -0.62646    -0.62259    -0.60484    -0.60192
    -0.58595    -0.57170    -0.55854    -0.54040    -0.53312    -0.50907
    -0.48996    -0.48666    -0.47237    -0.46993    -0.46784    -0.46380
    -0.45571    -0.45467    -0.45280    -0.44556    -0.44284    -0.43971
    -0.43693    -0.43454    -0.43002    -0.42330    -0.41876    -0.41423
    -0.40298    -0.39541    -0.39515    -0.39200    -0.38904    -0.38381
    -0.38104    -0.37831    -0.37530    -0.37073    -0.36405    -0.36105
    -0.35783    -0.35563    -0.35069    -0.34659    -0.34471    -0.33539
    -0.33122    -0.32904    -0.32854    -0.32673    -0.31859    -0.31137
    -0.29628    -0.28247    -0.27731    -0.27003    -0.26354    -0.26260
    -0.25954    -0.24105    -0.23321    -0.21525    -0.20878    -0.20501
    -0.19564    -0.16286    -0.05397    -0.03797    -0.02355    -0.01624
    -0.00479     0.00466     0.00853     0.02470     0.04231     0.04580
 
  end of program scf
   
 Time(scf)  user:     217.296  user+sys:     217.296  wallclock:     116.600
  
  start of program der1a
  
  end of program der1a
   
 Time(der1a)  user:      18.007  user+sys:      18.007  wallclock:       9.546
  
  start of program rwr
  
  end of program rwr
   
 Time(rwr)  user:      14.506  user+sys:      14.506  wallclock:      18.856
  
  start of program der1b
  
   
  forces (hartrees/bohr) : total     
   
 atom  label           x              y              z
 ---- --------   -------------  -------------  -------------
    1 P1          8.672337E-03   1.132089E-03   3.461174E-02
[...]
    C76      Z     0.00003  -0.00001  -0.00004   0.00024  -0.00047  -0.00004
    C77      X     0.00003   0.00342  -0.00002   0.00008   0.00970   0.00001
    C77      Y     0.00014   0.01301  -0.00002  -0.00121   0.07946   0.00018
    C77      Z     0.00001   0.00091   0.00000   0.00006   0.00308   0.00001
    C78      X    -0.00034  -0.04568   0.00001   0.00114   0.02519   0.00010
    C78      Y    -0.00014  -0.01763   0.00000   0.00060   0.00683   0.00003
    C78      Z    -0.00009  -0.01108   0.00001   0.00027   0.00611   0.00003
    F79      X     0.00001  -0.00013  -0.00000  -0.00025  -0.00010  -0.00001
    F79      Y    -0.00001  -0.00010   0.00001   0.00007   0.00021   0.00001
    F79      Z     0.00000  -0.00003  -0.00000  -0.00007  -0.00003  -0.00000
    H80      X    -0.00067   0.08167  -0.00015   0.04441   0.00275   0.00011
    H80      Y    -0.00549   0.67530  -0.00068   0.39016   0.01985   0.00092
    H80      Z    -0.00032   0.04031   0.00000   0.02259   0.00109   0.00006
    H81      X     0.00261  -0.26694  -0.00948   0.77670   0.00198   0.00074
    H81      Y     0.00107  -0.10908  -0.00416   0.30946   0.00127   0.00027
    H81      Z     0.00081  -0.07856  -0.00293   0.22898   0.00108   0.00017
    H82      X    -0.00028  -0.02390   0.00009   0.00177  -0.12122  -0.00023
    H82      Y    -0.00181  -0.16373   0.00033   0.01584  -0.90058  -0.00192
    H82      Z    -0.00005  -0.00792  -0.00000   0.00102  -0.03990  -0.00013
    H83      X     0.00398   0.52295  -0.00010  -0.01306  -0.25750  -0.00107
    H83      Y     0.00152   0.19860  -0.00002  -0.00545  -0.09487  -0.00039
    H83      Z     0.00098   0.12763  -0.00003  -0.00337  -0.06290  -0.00026
    C3       X    -0.00008  -0.00000   0.00001   0.00001  -0.00001   0.00086
    C3       Y    -0.00011   0.00000  -0.00001   0.00000   0.00000  -0.00049
    C3       Z    -0.00028  -0.00000  -0.00014  -0.00000  -0.00001  -0.00248
    C4       X    -0.00000  -0.00000  -0.00003  -0.00000   0.00000  -0.00006
    C4       Y     0.00001   0.00000  -0.00005  -0.00002  -0.00001  -0.00004
    C4       Z    -0.00000  -0.00000   0.00004   0.00001   0.00000   0.00009
    C5       X    -0.00003  -0.00000  -0.00001  -0.00000   0.00000  -0.00021
    C5       Y    -0.00002   0.00001   0.00000   0.00000   0.00003  -0.00001
    C5       Z    -0.00001  -0.00000  -0.00001   0.00001  -0.00000   0.00005
    C6       X     0.00012  -0.00000  -0.00049   0.00001  -0.00001   0.00003
    C6       Y     0.00012   0.00002   0.00263  -0.00008  -0.00000   0.00001
    C6       Z     0.00005  -0.00001   0.00139   0.00003   0.00000  -0.00004
    C7       X    -0.00000   0.00001  -0.00015  -0.00003  -0.00000  -0.00001
    C7       Y    -0.00004  -0.00001   0.00054   0.00004  -0.00000   0.00003
    C7       Z    -0.00010   0.00003  -0.00002  -0.00008   0.00001   0.00002
    C8       X    -0.00005  -0.00001  -0.00244  -0.00008  -0.00001  -0.00002
    C8       Y     0.00013   0.00002   0.00709   0.00027   0.00002   0.00005
    C8       Z    -0.00007  -0.00000  -0.00663  -0.00024  -0.00003  -0.00006
    C9       X    -0.00001   0.00003  -0.00053  -0.00006  -0.00000  -0.00000
    C9       Y    -0.00016  -0.00016  -0.00422   0.00008   0.00000  -0.00002
    C9       Z    -0.00063  -0.00056  -0.01890   0.00023  -0.00001  -0.00008
    C10      X     0.00020   0.00016   0.00725  -0.00012  -0.00000   0.00002
    C10      Y    -0.00094  -0.00048  -0.03252   0.00006   0.00001  -0.00013
    C10      Z    -0.00026  -0.00009  -0.00937   0.00002   0.00001  -0.00003
    C11      X     0.00037  -0.00012   0.01548   0.00021  -0.00000   0.00005
    C11      Y    -0.00126   0.00041  -0.04784  -0.00066  -0.00002  -0.00015
    C11      Z     0.00135  -0.00044   0.05488   0.00082   0.00002   0.00019
    C12      X    -0.00153  -0.00000   0.00006  -0.00000  -0.00000  -0.00049
    C12      Y    -0.00020  -0.00000  -0.00021   0.00000  -0.00000  -0.00027
    C12      Z     0.00092  -0.00001   0.00003   0.00003   0.00000  -0.00037
    C13      X     0.02567   0.00003  -0.00115   0.00003  -0.00001  -0.00145
    C13      Y     0.01463   0.00002  -0.00065   0.00001  -0.00001  -0.00088
    C13      Z     0.02345   0.00003  -0.00117  -0.00000  -0.00001  -0.00149
    C14      X     0.06206   0.00015  -0.00143  -0.00005  -0.00001  -0.00426
    C14      Y     0.01051   0.00002  -0.00021  -0.00001   0.00000  -0.00106
    C14      Z    -0.02669  -0.00006   0.00068   0.00003   0.00001   0.00072
    C15      X     0.00263   0.00001   0.00002   0.00000   0.00001  -0.00498
    C15      Y    -0.00923  -0.00002   0.00013   0.00000  -0.00001   0.00356
    C15      Z    -0.03371  -0.00007   0.00042   0.00000  -0.00003   0.01693
    C16      X     0.00593   0.00001  -0.00036  -0.00008  -0.00014   0.05946
    C16      Y     0.00365   0.00001  -0.00017  -0.00004  -0.00007   0.03036
    C16      Z     0.00673   0.00001  -0.00028  -0.00006  -0.00010   0.04570
    C17      X    -0.00003   0.00003   0.00001   0.00001  -0.00001   0.00002
    C17      Y    -0.00000  -0.00008  -0.00007  -0.00002   0.00011  -0.00001
    C17      Z    -0.00002   0.00017  -0.00005   0.00002  -0.00034   0.00011
    C18      X    -0.00011   0.00013  -0.00260   0.00006   0.00000   0.00001
    C18      Y     0.00003  -0.00000   0.00006   0.00001  -0.00001  -0.00005
    C18      Z     0.00003  -0.00021   0.00076  -0.00007   0.00002   0.00010
    C19      X    -0.00029  -0.00003  -0.00010   0.00001   0.00002  -0.00146
    C19      Y     0.00003  -0.00004  -0.00013  -0.00000   0.00001  -0.00022
    C19      Z     0.00004  -0.00001  -0.00004  -0.00001   0.00001   0.00023
    C20      X    -0.00009  -0.00001   0.00003   0.00002   0.00002  -0.00035
    C20      Y    -0.00008  -0.00001   0.00003   0.00001   0.00000  -0.00014
    C20      Z     0.00010   0.00002   0.00002  -0.00001   0.00002   0.00043
    C21      X    -0.00085  -0.00003   0.00005   0.00002   0.00003  -0.00267
    C21      Y    -0.00019  -0.00001  -0.00001   0.00001  -0.00001  -0.00060
    C21      Z     0.00061   0.00002  -0.00002  -0.00001  -0.00002   0.00237
    C22      X    -0.00001   0.00001   0.00001  -0.00003   0.00018   0.00012
    C22      Y    -0.00002  -0.00005   0.00000   0.00001  -0.00037  -0.00002
    C22      Z     0.00002  -0.00004   0.00001  -0.00004  -0.00014   0.00023
    C23      X     0.00006   0.00003  -0.00000  -0.00008  -0.00001  -0.00004
    C23      Y     0.00001  -0.00000   0.00017  -0.00000   0.00000   0.00000
    C23      Z     0.00008   0.00004  -0.00000  -0.00012  -0.00000  -0.00006
    H24      X     0.00031  -0.00001   0.02498   0.00101   0.00012   0.00021
    H24      Y    -0.00092  -0.00003  -0.07107  -0.00276  -0.00030  -0.00061
    H24      Z     0.00083   0.00000   0.07675   0.00300   0.00033   0.00073
    H25      X     0.00009   0.00013   0.00207  -0.00026  -0.00001   0.00002
    H25      Y     0.00195   0.00188   0.05762  -0.00095   0.00003   0.00025
    H25      Z     0.00669   0.00642   0.19933  -0.00333   0.00007   0.00086
    H26      X    -0.00226  -0.00114  -0.07911   0.00006   0.00001  -0.00033
    H26      Y     0.00996   0.00570   0.35081  -0.00171  -0.00009   0.00143
    H26      Z     0.00232   0.00122   0.08461  -0.00015  -0.00002   0.00039
    H27      X    -0.00453   0.00157  -0.18241  -0.00257  -0.00006  -0.00051
    H27      Y     0.01429  -0.00474   0.54929   0.00807   0.00020   0.00162
    H27      Z    -0.01585   0.00524  -0.61467  -0.00905  -0.00022  -0.00186
    H28      X    -0.29789  -0.00029   0.01383  -0.00035   0.00013   0.01633
    H28      Y    -0.15904  -0.00017   0.00700  -0.00018   0.00007   0.00879
    H28      Z    -0.23602  -0.00027   0.01100  -0.00020   0.00011   0.01314
    H29      X    -0.68804  -0.00163   0.01617   0.00060   0.00009   0.03944
    H29      Y    -0.11699  -0.00028   0.00271   0.00009   0.00002   0.00712
    H29      Z     0.29441   0.00070  -0.00708  -0.00027  -0.00005  -0.01531
    H30      X    -0.05617  -0.00012   0.00064  -0.00001  -0.00004   0.03162
    H30      Y     0.09172   0.00020  -0.00118  -0.00002   0.00006  -0.04215
    H30      Z     0.36500   0.00079  -0.00453  -0.00005   0.00026  -0.17384
    H31      X    -0.08693  -0.00015   0.00405   0.00087   0.00161  -0.68414
    H31      Y    -0.04559  -0.00007   0.00204   0.00043   0.00083  -0.35155
    H31      Z    -0.07032  -0.00010   0.00301   0.00063   0.00124  -0.52875
    H32      X    -0.00001  -0.00007   0.00004   0.00011  -0.00026   0.00033
    H32      Y     0.00001   0.00030  -0.00005   0.00007  -0.00048   0.00030
    H32      Z     0.00003  -0.00210   0.00015  -0.00007   0.00440  -0.00179
    H33      X     0.00025  -0.00034  -0.00028  -0.00020   0.00037  -0.00055
    H33      Y    -0.00033   0.00045   0.00044   0.00028  -0.00071   0.00060
    H33      Z     0.00009  -0.00011  -0.00012  -0.00011   0.00017  -0.00011
    H34      X     0.00011   0.00007   0.00045   0.00002  -0.00010  -0.00015
    H34      Y     0.00024   0.00021   0.00069   0.00004  -0.00017  -0.00029
    H34      Z     0.00015   0.00022   0.00041  -0.00004  -0.00032  -0.00012
    H35      X    -0.00006   0.00008  -0.00181  -0.00010   0.00001   0.00009
    H35      Y     0.00001  -0.00034  -0.00014  -0.00026  -0.00004  -0.00003
    H35      Z    -0.00023   0.00250  -0.00052   0.00042  -0.00020  -0.00123
    H36      X     0.00110  -0.00131   0.03290  -0.00044  -0.00003   0.00049
    H36      Y     0.00034  -0.00018   0.00707  -0.00006  -0.00001   0.00001
    H36      Z    -0.00031   0.00038  -0.00890   0.00024  -0.00001   0.00002
    H37      X     0.00044  -0.00031   0.00428  -0.00016  -0.00006  -0.00053
    H37      Y    -0.00057   0.00052  -0.00574   0.00024   0.00007   0.00064
    H37      Z     0.00022  -0.00039   0.00276  -0.00012  -0.00004  -0.00021
    H38      X    -0.00017   0.00016   0.00069   0.00008  -0.00005  -0.00014
    H38      Y    -0.00005   0.00039   0.00148   0.00017  -0.00014   0.00059
    H38      Z    -0.00004   0.00026   0.00101   0.00015  -0.00010   0.00066
    H39      X     0.00107  -0.00008  -0.00031  -0.00009  -0.00002   0.00307
    H39      Y    -0.00136   0.00009   0.00034   0.00011   0.00003  -0.00347
    H39      Z     0.00032  -0.00004  -0.00019  -0.00009  -0.00001   0.00044
    H40      X     0.00279   0.00030   0.00091  -0.00006  -0.00019   0.01577
    H40      Y     0.00086   0.00005   0.00003  -0.00004  -0.00004   0.00399
    H40      Z    -0.00092  -0.00011  -0.00039   0.00002   0.00007  -0.00451
    H41      X     0.00094   0.00015  -0.00018  -0.00022  -0.00020   0.00426
    H41      Y    -0.00011   0.00003  -0.00002  -0.00004  -0.00000  -0.00001
    H41      Z    -0.00066  -0.00015   0.00020   0.00021   0.00012  -0.00254
    H42      X    -0.00013  -0.00004  -0.00005   0.00002  -0.00008  -0.00042
    H42      Y    -0.00004   0.00000   0.00002   0.00002   0.00001   0.00002
    H42      Z    -0.00053  -0.00004  -0.00030  -0.00000  -0.00021  -0.00249
    H43      X     0.00040   0.00002  -0.00012  -0.00006  -0.00003   0.00056
    H43      Y     0.00097   0.00006  -0.00019  -0.00012  -0.00010   0.00104
    H43      Z     0.00011   0.00002  -0.00005  -0.00004  -0.00001   0.00006
    H44      X     0.00883   0.00018  -0.00026  -0.00020  -0.00030   0.03772
    H44      Y     0.00380   0.00007  -0.00014  -0.00008  -0.00012   0.01719
    H44      Z    -0.00850  -0.00018   0.00027   0.00021   0.00033  -0.03349
    H45      X     0.00030   0.00000   0.00000  -0.00001  -0.00001  -0.00025
    H45      Y     0.00175   0.00006   0.00000  -0.00010  -0.00005   0.00325
    H45      Z     0.00045   0.00000  -0.00002   0.00000  -0.00004   0.00142
    H46      X     0.00272   0.00009  -0.00036  -0.00008  -0.00020   0.00655
    H46      Y    -0.00216  -0.00007   0.00023   0.00006   0.00015  -0.00593
    H46      Z     0.00052   0.00003  -0.00005  -0.00002  -0.00006   0.00185
    H47      X    -0.00012   0.00025  -0.00002   0.00018   0.00077  -0.00105
    H47      Y    -0.00002  -0.00012   0.00003  -0.00002  -0.00056   0.00009
    H47      Z    -0.00022   0.00051  -0.00010   0.00052   0.00169  -0.00227
    H48      X     0.00011  -0.00058  -0.00003   0.00022  -0.00376   0.00024
    H48      Y    -0.00010   0.00043   0.00003  -0.00019   0.00289  -0.00001
    H48      Z    -0.00002  -0.00010   0.00001   0.00000  -0.00067  -0.00005
    H49      X     0.00022   0.00011  -0.00003   0.00003   0.00053  -0.00016
    H49      Y     0.00051   0.00034  -0.00010   0.00009   0.00182  -0.00032
    H49      Z     0.00010   0.00014  -0.00004   0.00004   0.00073  -0.00016
    H50      X     0.00009  -0.00003   0.00096   0.00019   0.00009   0.00007
    H50      Y     0.00028   0.00003  -0.00043  -0.00010   0.00001  -0.00004
    H50      Z    -0.00004   0.00001  -0.00054  -0.00006  -0.00002  -0.00010
    H51      X    -0.00066  -0.00033  -0.00091   0.00087  -0.00002   0.00045
    H51      Y    -0.00040  -0.00013  -0.00100   0.00039   0.00005   0.00032
    H51      Z    -0.00041  -0.00024  -0.00095   0.00070   0.00004   0.00031
    H52      X    -0.00013  -0.00003   0.00035   0.00008   0.00002   0.00006
    H52      Y     0.00026   0.00021  -0.00186  -0.00055  -0.00004  -0.00029
    H52      Z    -0.00045  -0.00028   0.00162   0.00073   0.00006   0.00047
  
  Number of imaginary frequencies:   1
   
  Writing vibrational animation data to ox_add_TS_L1_PL154_3.vib
  Writing IR vibrational spectrum data to ox_add_TS_L1_PL154_3_vib.spm
  rotational symmetry number:  1

  rotational temperatures (K):      0.007280      0.005154      0.004240
   
  The Quasi-Harmonic approximation will be applied to compute
  vibrational constributions to thermodynamic properties.
  Frequencies will be adjusted to a minimum value of  100.00 cm^-1.

    1 vibrational frequencies below    0.0 cm-1 not included in zero-point
  energy or thermochemical analysis.  Set freqcut to change the frequency
  cutoff value.

  vibrational temperatures:
       mode:      2        3        4        5        6        7
  temp. (K):   143.88   143.88   143.88   143.88   143.88   143.88
   
       mode:      8        9       10       11       12       13
  temp. (K):   143.88   143.88   143.88   143.88   143.88   147.96
   
       mode:     14       15       16       17       18       19
  temp. (K):   157.68   163.57   168.37   177.81   215.06   242.91
   
       mode:     20       21       22       23       24       25
  temp. (K):   245.01   251.38   278.89   292.48   321.28   339.99
   
       mode:     26       27       28       29       30       31
  temp. (K):   356.93   365.97   374.76   383.51   395.06   410.83
   
       mode:     32       33       34       35       36       37
  temp. (K):   428.82   448.63   454.71   464.55   475.41   489.94
   
       mode:     38       39       40       41       42       43
  temp. (K):   492.85   520.64   556.32   572.94   584.80   589.05
   
       mode:     44       45       46       47       48       49
  temp. (K):   591.66   604.02   623.98   626.01   665.26   692.52
   
       mode:     50       51       52       53       54       55
  temp. (K):   706.46   724.40   745.27   776.22   797.36   819.89
   
       mode:     56       57       58       59       60       61
  temp. (K):   834.72   846.12   879.79   892.68   910.89   989.94
   
       mode:     62       63       64       65       66       67
  temp. (K):   991.23  1066.96  1083.30  1107.52  1120.52  1136.89
   
       mode:     68       69       70       71       72       73
  temp. (K):  1163.40  1166.47  1185.13  1189.51  1198.56  1203.24
   
       mode:     74       75       76       77       78       79
  temp. (K):  1278.92  1302.01  1348.87  1371.08  1373.02  1379.99
   
       mode:     80       81       82       83       84       85
  temp. (K):  1384.51  1389.46  1394.68  1412.47  1417.16  1420.94
   
       mode:     86       87       88       89       90       91
  temp. (K):  1431.02  1444.24  1462.31  1468.81  1475.33  1477.89
   
       mode:     92       93       94       95       96       97
  temp. (K):  1503.69  1512.94  1520.38  1524.68  1534.23  1538.33
   
       mode:     98       99      100      101      102      103
  temp. (K):  1562.81  1594.26  1616.22  1663.42  1677.19  1704.28
   
       mode:    104      105      106      107      108      109
  temp. (K):  1734.88  1739.31  1745.85  1753.67  1772.30  1778.14
   
       mode:    110      111      112      113      114      115
  temp. (K):  1779.80  1799.86  1802.59  1840.49  1851.29  1880.77
   
       mode:    116      117      118      119      120      121
  temp. (K):  1882.17  1900.23  1931.40  1944.54  1952.76  2043.77
   
       mode:    122      123      124      125      126      127
  temp. (K):  2046.29  2052.24  2053.46  2054.80  2067.66  2091.64
   
       mode:    128      129      130      131      132      133
  temp. (K):  2103.03  2119.10  2136.29  2154.88  2160.70  2165.69
   
       mode:    134      135      136      137      138      139
  temp. (K):  2166.87  2167.04  2173.45  2175.21  2178.52  2182.59
   
       mode:    140      141      142      143      144      145
  temp. (K):  2185.07  2196.14  2201.78  2209.62  2215.81  2218.12
   
       mode:    146      147      148      149      150      151
  temp. (K):  2226.15  2233.98  2332.56  2335.78  2354.88  2362.48
   
       mode:    152      153      154      155      156      157
  temp. (K):  2381.58  2403.38  4368.93  4374.61  4376.39  4377.21
   
       mode:    158      159      160      161      162      163
  temp. (K):  4383.58  4385.83  4386.77  4475.17  4479.29  4480.52
   
       mode:    164      165      166      167      168      169
  temp. (K):  4485.71  4487.11  4488.87  4493.85  4522.86  4523.93
   
       mode:    170      171      172      173      174      175
  temp. (K):  4526.19  4527.81  4531.76  4539.97  4564.75  4579.47
   
       mode:    176      177      178      179      180      181
  temp. (K):  4585.67  4594.39  4599.43  4615.04  4619.67  4621.72
   
       mode:    182      183      184      185      186
  temp. (K):  4621.96  4631.53  4646.05  4656.65  4665.53
   
   
  Thermodynamic properties calculated assuming an ideal gas

  In the table below, the units for temperature
  are kelvins, the units for U, H, and G are
  kcal/mol and the units for Cv and S are cal/(mol K)

  The zero point energy (ZPE):    334.779 kcal/mol
  is not included in U, H, or G in the table below
  
 
  =============================================================================
  Thermodynamic properties for P = 1.00E+00 atm, calculated at   1 temperatures


  T =   298.15 K, P = 1.00E+00 atm
   
                  U         Cv          S          H          G        ln(Q)
              =========  =========  =========  =========  =========  =========
  trans.          0.889      2.981     45.019      1.481    -11.941   20.15452
  rot.            0.889      2.981     36.655      0.889    -10.040   16.94567
  vib.           18.545    120.539    113.142     18.545    -15.188   25.63508
  elec.           0.000      0.000      0.000      0.000      0.000    0.00000
  ----------------------------------------------------------------------------
  total          20.322    126.501    194.816     20.915    -37.170   62.73528
   
   Total internal energy, Utot(SCFE + ZPE + U):   -1629.017624 hartrees
   Total enthalpy, Htot (Utot + nRT), with n=1:   -1629.016680 hartrees
    Total Gibbs free energy, Gtot (Htot - T*S):   -1629.109244 hartrees
   
  end of program freq
   
 Time(freq)  user:       0.344  user+sys:       0.344  wallclock:       0.536
  
  start of program post
  
  Writing input files for PBF
  end of program post
   
 Time(post)  user:       0.159  user+sys:       0.159  wallclock:       0.115

 Total cpu seconds     user:   63250.272   user+sys:   63250.272
  
 Total elapsed time:    37066 seconds

Job ox_add_TS_L1_PL154_3 completed on bp1-compute097.data.bp.acrc.priv at Thu Apr 10 23:52:26 2025
