Job ox_add_Ar_trans_L1_PL154_2 started on bp1-compute064.data.bp.acrc.priv at Tue Apr 22 16:15:07 2025
jobid: bp1-compute064-0-6807b275

  +--------------------------------------------------------------------+
  |  Jaguar version 12.5, release 138                                  |
  |                                                                    |
  |  Copyright Schrodinger, Inc.                                       |
  |  All Rights Reserved.                                              |
  |                                                                    |
  |  The following have contributed to Jaguar (listed alphabetically): |
  |  Ty Balduf, Mike Beachy, Chandler Bennett, Art Bochevarov,         |
  |  Dale Braden, Yixiang Cao, Alan Chien, Chris Cortis,               |
  |  Rich Friesner, Jim Furness, Bill Goddard, Hod Greeley,            |
  |  Tom Hughes, Leif Jacobson, Jean-Marc Langlois, Daniel Levine,     |
  |  Rob Murphy, Dean Philipp, Tom Pollard, Murco Ringnalda,           |
  |  Daniel Mainz, Pablo Videla, Mark Watson, Haoyu Yu.                |
  |                                                                    |
  |  Use of this program should be acknowledged in publications as:    |
  |                                                                    |
  |  Jaguar, version 12.5, Schrodinger, Inc., New York, NY, 2024.      |
  |                                                                    |
  |  A. D. Bochevarov, E. Harder, T. F. Hughes, J. R. Greenwood,       |
  |  D. A. Braden, D. M. Philipp, D. Rinaldo, M. D. Halls,             |
  |  J. Zhang, R. A. Friesner, "Jaguar: A High-Performance Quantum     |
  |  Chemistry Software Program with Strengths in Life and Materials   |
  |  Sciences", Int. J. Quantum Chem., 2013, 113(18), 2110-2142.       |
  +--------------------------------------------------------------------+
  
  start of program pre
  
  Job name: ox_add_Ar_trans_L1_PL154_2
  Executables used: /software/local/apps/schrodinger2024-3/jaguar-v12.5/bin/Linux-x86_64
  Temporary files : /tmp/ar21627/ox_add_Ar_trans_L1_PL154_2#bp1-compute064-0-6807b275
  Basis file : using default basis file from /software/local/apps/schrodinger2024-3
  Maestro file (input):  ox_add_Ar_trans_L1_PL154_2.mae
  Maestro file (output): ox_add_Ar_trans_L1_PL154_2.01.mae
  
 Contents of input file: &gen and (if present) &atomic sections only
 ----------------Contents start----------------
&gen
dftname=b3pw91-d3
basis=6-31G*
numd=5
ip11=2
iaccg=3
isolv=2
igeopt=1
solvent=benzene
ifreq=1
&
&atomic
atom basis
Pd2 lacv3p*
Br3 lacv3p*
&
 -----------------Contents end-----------------
 
  PS calculation requested. Using PS version of 6-31g*
  basis set:               non_standard                    
  net molecular charge:    0
  multiplicity:            1
  
  Using up to   4 threads per process
  
  This run will use ECP on            2  atoms
  number of basis functions....          516
  
 Input geometry:
                                   angstroms
  atom               x                 y                 z
  P1            0.0000000000      0.0000000000      0.0000000000 
  Pd2           0.0000000000      0.0000000000      2.2761010486 
  Br3           0.3233640480      0.0000000000      4.8111435857 
  C73          -4.5667144325     -1.2871723386      2.1384694668 
  C74          -3.6199223908     -2.2498703278      2.4548512943 
  C75          -2.2802756550     -1.8697092754      2.5558234257 
  C76          -1.8940897633     -0.5411742274      2.3383578262 
  C77          -2.8798586925      0.4149547803      2.0658779163 
  C78          -4.2228950325      0.0446427047      1.9576174756 
  F79          -5.8633288056     -1.6568672728      2.0032920990 
  H80          -3.9297696656     -3.2827652083      2.5914609209 
  H82          -2.6036748810      1.4566447252      1.9353540301 
  H83          -4.9985299359      0.7741604922      1.7372136997 
  H14          -1.5279217018     -2.6036578385      2.8041841226 
  C3            1.8168740000      0.0000000000     -0.5778410000 
  C4           -0.8434890000      1.4252840000     -0.9715180000 
  C5           -0.8972560000     -1.6587410000     -0.3454820000 
  C6            3.2796293429     -0.0772631011      1.5651745799 
  C7            3.2791707343     -1.1868545605      2.4726942360 
  C8            3.5347754312     -0.9903295503      3.8486751243 
  C9            3.7955272730      0.2592052501      4.4172968591 
  C10           3.7977649492      1.3589547370      3.5625783022 
  C11           3.5477821960      1.1490920283      2.2013390483 
  C12           3.0638855092     -0.0628345843      0.1414073749 
  C13           4.2092762555     -0.0954522430     -0.6900618418 
  C14           4.2237123022     -0.0670987752     -2.0895357971 
  C15           3.0101487490      0.0086446365     -2.7647042124 
  C16           1.8517008401      0.0429462734     -1.9863901935 
  C17          -2.3917700000      1.4641300000     -0.9448800000 
  C18          -0.3788420000      2.8361950000     -0.5323130000 
  C19          -0.4455240000      1.3408580000     -2.4674050000 
  C20          -0.3382266461     -2.8062946789      0.5293817813 
  C21          -0.9500685433     -2.2160570189     -1.7937432818 
  C22          -2.3757827156     -1.4989353450      0.0883930864 
  C23           2.9414332030     -2.6268612688      2.1467039989 
  H24           3.5271850987     -1.8456002650      4.5447989754 
  H25           3.9889285497      0.3750559657      5.4970193951 
  H26           4.0008601274      2.3710121867      3.9524188292 
  H27           3.6073699275      2.0533895524      1.6098483587 
  H28           5.2224133030     -0.1010445623     -0.2911858496 
  H29           5.1715446085     -0.0886533805     -2.6549006640 
  H30           2.9700872836      0.0421598939     -3.8667756221 
  H31           0.9261931514      0.1056475201     -2.5621260575 
  H32          -2.8081380000      1.6140360000      0.0705490000 
  H33          -2.7931410000      2.3029860000     -1.5580800000 
  H34          -2.8583580000      0.5482850000     -1.3582140000 
  H35          -0.6553110000      3.0576040000      0.5218020000 
  H36           0.7195950000      2.9676930000     -0.6585650000 
  H37          -0.8498760000      3.6399150000     -1.1432090000 
  H38          -0.7462210000      0.3798070000     -2.9348810000 
  H39          -0.9210170000      2.1442960000     -3.0752880000 
  H40           0.6524840000      1.4549820000     -2.6096750000 
  H41           0.7587432208     -2.9369470427      0.4033069983 
  H42          -0.5444067280     -2.6436373731      1.6080957283 
  H43          -0.8095058807     -3.7858724110      0.2865898495 
  H44           0.0310032140     -2.5381853045     -2.1981016775 
  H45          -1.5884536187     -3.1268877845     -1.8543618033 
  H46          -1.3969994015     -1.5064170276     -2.5174999278 
  H47          -2.4687299936     -1.2395938945      1.1663427303 
  H48          -2.8979956375     -0.7072344529     -0.4903940326 
  H49          -2.9592075020     -2.4375682748     -0.0505856627 
  H50           3.8243477609     -3.1811239085      1.7542315286 
  H51           2.0479750212     -2.7060034921      1.4867828515 
  H52           2.6215163919     -3.2003920429      3.0458212549 
   
  principal moments of inertia:
        amu*angstrom^2:              3554.67385              4480.31862              6467.83058
                g*cm^2:          5.90267406E-37          7.43974317E-37          1.07400840E-36
   
  rotational constants:
               cm^(-1):      0.00474238      0.00376260      0.00260638
                   GHz:      0.14217310      0.11279979      0.07813733
   
  Molecular weight:     592.05 amu
   
  Stoichiometry: PdC27PH33BrF
  Molecular Point Group: C1      
  Point Group used: C1
  
 
Number of optimization coordinates:   210
Number of independent coordinates:    210
Number of non-redundant coordinates:  186
Number of frozen coordinates:           0
Number of harmonic constraints:         0
 
Number of geometric degrees of freedom:   186
Maximum geometric degrees of freedom:     186
 " " " " " excluding dummy atoms:         186
 
 
  bond lengths (angstroms):
 
 P1      -Pd2     :   2.276101      P1      -C3      :   1.906550
 P1      -C4      :   1.920093      P1      -C5      :   1.917250
 Pd2     -Br3     :   2.555583      Pd2     -C76     :   1.970868
 C73     -C74     :   1.386831      C73     -C78     :   1.387318
 C73     -F79     :   1.355048      C74     -C75     :   1.396199
 C74     -H80     :   1.086986      C75     -C76     :   1.400513
 C75     -H14     :   1.080000      C76     -C77     :   1.400060
 C77     -C78     :   1.397354      C77     -H82     :   1.085556
 C78     -H83     :   1.087375      C3      -C12     :   1.440939
 C3      -C16     :   1.409634      C4      -C17     :   1.548997
 C4      -C18     :   1.549022      C4      -C19     :   1.550220
 C5      -C20     :   1.547508      C5      -C21     :   1.552692
 C5      -C22     :   1.549137      C6      -C7      :   1.433452
 C6      -C11     :   1.407323      C6      -C12     :   1.440093
 C7      -C8      :   1.413251      C7      -C23     :   1.514581
 C8      -C9      :   1.397376      C8      -H24     :   1.102785
 C9      -C10     :   1.392838      C9      -H25     :   1.103008
 C10     -C11     :   1.399824      C10     -H26     :   1.103396
 C11     -H27     :   1.082204      C12     -C13     :   1.415742
 C13     -C14     :   1.399836      C13     -H28     :   1.088843
 C14     -C15     :   1.390800      C14     -H29     :   1.103851
 C15     -C16     :   1.396048      C15     -H30     :   1.103308
 C16     -H31     :   1.091773      C17     -H32     :   1.107669
 C17     -H33     :   1.113909      C17     -H34     :   1.107845
 C18     -H35     :   1.112032      C18     -H36     :   1.113461
 C18     -H37     :   1.114017      C19     -H38     :   1.110212
 C19     -H39     :   1.114059      C19     -H40     :   1.113053
 C20     -H41     :   1.111894      C20     -H42     :   1.110221
 C20     -H43     :   1.113833      C21     -H44     :   1.108952
 C21     -H45     :   1.113922      C21     -H46     :   1.107772
 C22     -H47     :   1.112597      C22     -H48     :   1.111077
 C22     -H49     :   1.113881      C23     -H50     :   1.113903
 C23     -H51     :   1.113565      C23     -H52     :   1.113416
 
  bond angles:
 
 C3      -P1      -Pd2     : 107.642814  C4      -P1      -Pd2     : 120.396068
 C4      -P1      -C3      : 105.383690  C5      -P1      -Pd2     : 100.381213
 C5      -P1      -C3      : 113.039431  C5      -P1      -C4      : 110.209354
 Br3     -Pd2     -P1      : 172.730742  C76     -Pd2     -P1      :  91.810189
 C76     -Pd2     -Br3     :  95.179054  C78     -C73     -C74     : 121.799250
 F79     -C73     -C74     : 119.119355  F79     -C73     -C78     : 119.081372
 C75     -C74     -C73     : 118.851227  H80     -C74     -C73     : 119.583608
 H80     -C74     -C75     : 121.543804  C76     -C75     -C74     : 120.772927
 H14     -C75     -C74     : 120.000000  H14     -C75     -C76     : 119.227073
 C75     -C76     -Pd2     : 122.031368  C77     -C76     -Pd2     : 118.881056
 C77     -C76     -C75     : 118.939883  C78     -C77     -C76     : 120.718410
 H82     -C77     -C76     : 119.973007  H82     -C77     -C78     : 119.308555
 C77     -C78     -C73     : 118.849083  H83     -C78     -C73     : 119.584134
 H83     -C78     -C77     : 121.566745  C12     -C3      -P1      : 132.332083
 C16     -C3      -P1      : 109.049994  C16     -C3      -C12     : 118.601565
 C17     -C4      -P1      : 116.680003  C18     -C4      -P1      : 113.633317
 C18     -C4      -C17     : 105.789550  C19     -C4      -P1      : 109.575020
 C19     -C4      -C17     : 105.935583  C19     -C4      -C18     : 104.252746
 C20     -C5      -P1      : 111.754645  C21     -C5      -P1      : 119.639032
 C21     -C5      -C20     : 105.868645  C22     -C5      -P1      : 107.875063
 C22     -C5      -C20     : 105.244514  C22     -C5      -C21     : 105.414608
 C11     -C6      -C7      : 112.855389  C12     -C6      -C7      : 129.318543
 C12     -C6      -C11     : 117.822169  C8      -C7      -C6      : 120.577643
 C23     -C7      -C6      : 126.852870  C23     -C7      -C8      : 112.463886
 C9      -C8      -C7      : 123.661511  H24     -C8      -C7      : 120.364684
 H24     -C8      -C9      : 115.971317  C10     -C9      -C8      : 117.169856
 H25     -C9      -C8      : 121.666137  H25     -C9      -C10     : 121.163760
 C11     -C10     -C9      : 118.559909  H26     -C10     -C9      : 120.510758
 H26     -C10     -C11     : 120.927422  C10     -C11     -C6      : 127.174781
 H27     -C11     -C6      : 119.444547  H27     -C11     -C10     : 113.352565
 C6      -C12     -C3      : 128.578123  C13     -C12     -C3      : 114.079668
 C13     -C12     -C6      : 117.336141  C14     -C13     -C12     : 126.514616
 H28     -C13     -C12     : 122.531223  H28     -C13     -C14     : 110.900352
 C15     -C14     -C13     : 118.517836  H29     -C14     -C13     : 121.365931
 H29     -C14     -C15     : 120.110049  C16     -C15     -C14     : 117.048897
 H30     -C15     -C14     : 121.214686  H30     -C15     -C16     : 121.736280
 C15     -C16     -C3      : 125.228312  H31     -C16     -C3      : 120.513439
 H31     -C16     -C15     : 114.258064  H32     -C17     -C4      : 113.258537
 H33     -C17     -C4      : 111.689655  H33     -C17     -H32     : 105.503065
 H34     -C17     -C4      : 113.192670  H34     -C17     -H32     : 107.193094
 H34     -C17     -H33     : 105.391539  H35     -C18     -C4      : 112.058038
 H36     -C18     -C4      : 111.797889  H36     -C18     -H35     : 109.222001
 H37     -C18     -C4      : 112.013244  H37     -C18     -H35     : 105.726505
 H37     -C18     -H36     : 105.648678  H38     -C19     -C4      : 112.576983
 H39     -C19     -C4      : 112.189921  H39     -C19     -H38     : 106.196471
 H40     -C19     -C4      : 111.777365  H40     -C19     -H38     : 107.585060
 H40     -C19     -H39     : 106.102308  H41     -C20     -C5      : 112.298348
 H42     -C20     -C5      : 111.935505  H42     -C20     -H41     : 108.095584
 H43     -C20     -C5      : 112.091550  H43     -C20     -H41     : 106.820756
 H43     -C20     -H42     : 105.192635  H44     -C21     -C5      : 114.473937
 H45     -C21     -C5      : 111.330423  H45     -C21     -H44     : 104.456631
 H46     -C21     -C5      : 113.153150  H46     -C21     -H44     : 107.744798
 H46     -C21     -H45     : 104.894240  H47     -C22     -C5      : 112.032471
 H48     -C22     -C5      : 112.097904  H48     -C22     -H47     : 107.418253
 H49     -C22     -C5      : 112.211684  H49     -C22     -H47     : 105.875619
 H49     -C22     -H48     : 106.814392  H50     -C23     -C7      : 111.849660
 H51     -C23     -C7      : 111.964901  H51     -C23     -H50     : 113.066083
 H52     -C23     -C7      : 112.334273  H52     -C23     -H50     : 104.830478
 H52     -C23     -H51     : 102.205211
 
  torsional angles:
 
 P1      -Pd2     -C76     -C75     :  99.408904
 P1      -Pd2     -C76     -C77     : -76.124774
 P1      -C3      -C12     -C6      :  -3.538704
 P1      -C3      -C12     -C13     : 177.391602
 P1      -C3      -C16     -C15     :-177.644279
 P1      -C3      -C16     -H31     :   2.190069
 P1      -C4      -C17     -H32     :  62.775020
 P1      -C4      -C17     -H33     :-178.274494
 P1      -C4      -C17     -H34     : -59.513232
 P1      -C4      -C18     -H35     : -63.928460
 P1      -C4      -C18     -H36     :  59.071534
 P1      -C4      -C18     -H37     : 177.433697
 P1      -C4      -C19     -H38     :  59.682494
 P1      -C4      -C19     -H39     : 179.407630
 P1      -C4      -C19     -H40     : -61.546178
 P1      -C5      -C20     -H41     : -56.022773
 P1      -C5      -C20     -H42     :  65.784275
 P1      -C5      -C20     -H43     :-176.287823
 P1      -C5      -C21     -H44     :  67.566361
 P1      -C5      -C21     -H45     :-174.255908
 P1      -C5      -C21     -H46     : -56.409800
 P1      -C5      -C22     -H47     : -59.157476
 P1      -C5      -C22     -H48     :  61.695607
 P1      -C5      -C22     -H49     :-178.104440
 Pd2     -P1      -C3      -C12     :   3.381694
 Pd2     -P1      -C3      -C16     :-178.152955
 Pd2     -P1      -C4      -C17     : -71.513102
 Pd2     -P1      -C4      -C18     :  52.011638
 Pd2     -P1      -C4      -C19     : 168.168159
 Pd2     -P1      -C5      -C20     : -46.217488
 Pd2     -P1      -C5      -C21     :-170.673436
 Pd2     -P1      -C5      -C22     :  69.006587
 Pd2     -C76     -C75     -C74     :-173.175344
 Pd2     -C76     -C75     -H14     :   6.824656
 Pd2     -C76     -C77     -C78     : 173.082800
 Pd2     -C76     -C77     -H82     :  -6.856619
 Br3     -Pd2     -P1      -C3      :   0.000000
 Br3     -Pd2     -P1      -C4      :-120.617223
 Br3     -Pd2     -P1      -C5      : 118.410104
 Br3     -Pd2     -C76     -C75     : -78.590841
 Br3     -Pd2     -C76     -C77     : 105.875482
 C73     -C74     -C75     -C76     :  -0.186500
 C73     -C74     -C75     -H14     : 179.813500
 C73     -C78     -C77     -C76     :   0.652883
 C73     -C78     -C77     -H82     :-179.407300
 C74     -C73     -C78     -C77     :   1.604524
 C74     -C73     -C78     -H83     :-178.325638
 C74     -C75     -C76     -C77     :   2.355796
 C75     -C74     -C73     -C78     :  -1.835403
 C75     -C74     -C73     -F79     : 178.220350
 C75     -C76     -C77     -C78     :  -2.590835
 C75     -C76     -C77     -H82     : 177.469747
 C76     -Pd2     -P1      -C3      :-164.054444
 C76     -Pd2     -P1      -C4      :  75.328333
 C76     -Pd2     -P1      -C5      : -45.644340
 C76     -C75     -C74     -H80     : 178.124774
 C76     -C77     -C78     -H83     :-179.418397
 C77     -C76     -C75     -H14     :-177.644204
 C77     -C78     -C73     -F79     :-178.451208
 C78     -C73     -C74     -H80     : 179.819533
 F79     -C73     -C74     -H80     :  -0.124714
 F79     -C73     -C78     -H83     :   1.618630
 H80     -C74     -C75     -H14     :  -1.875226
 H82     -C77     -C78     -H83     :   0.521420
 C3      -P1      -C4      -C17     : 166.762405
 C3      -P1      -C4      -C18     : -69.712856
 C3      -P1      -C4      -C19     :  46.443665
 C3      -P1      -C5      -C20     :  68.159859
 C3      -P1      -C5      -C21     : -56.296088
 C3      -P1      -C5      -C22     :-176.616065
 C3      -C12     -C6      -C7      :  85.673206
 C3      -C12     -C6      -C11     : -95.102545
 C3      -C12     -C13     -C14     :   0.274863
 C3      -C12     -C13     -H28     : 177.359151
 C3      -C16     -C15     -C14     :  -0.346891
 C3      -C16     -C15     -H30     : 179.785728
 C4      -P1      -C3      -C12     : 133.038236
 C4      -P1      -C3      -C16     : -48.496413
 C4      -P1      -C5      -C20     :-174.211347
 C4      -P1      -C5      -C21     :  61.332705
 C4      -P1      -C5      -C22     : -58.987272
 C5      -P1      -C3      -C12     :-106.540243
 C5      -P1      -C3      -C16     :  71.925108
 C5      -P1      -C4      -C17     :  44.498558
 C5      -P1      -C4      -C18     : 168.023298
 C5      -P1      -C4      -C19     : -75.820182
 C6      -C7      -C8      -C9      :   0.204575
 C6      -C7      -C8      -H24     : 179.607156
 C6      -C7      -C23     -H50     :  85.260242
 C6      -C7      -C23     -H51     : -42.827948
 C6      -C7      -C23     -H52     :-157.167381
 C6      -C11     -C10     -C9      :   0.273642
 C6      -C11     -C10     -H26     : 179.773359
 C6      -C12     -C3      -C16     : 178.113550
 C6      -C12     -C13     -C14     :-178.906444
 C6      -C12     -C13     -H28     :  -1.822156
 C7      -C6      -C11     -C10     :  -0.019764
 C7      -C6      -C11     -H27     : 177.915884
 C7      -C6      -C12     -C13     : -95.282919
 C7      -C8      -C9      -C10     :   0.054983
 C7      -C8      -C9      -H25     : 179.876051
 C8      -C7      -C6      -C11     :  -0.212327
 C8      -C7      -C6      -C12     : 179.043146
 C8      -C7      -C23     -H50     : -98.492928
 C8      -C7      -C23     -H51     : 133.418882
 C8      -C7      -C23     -H52     :  19.079450
 C8      -C9      -C10     -C11     :  -0.276610
 C8      -C9      -C10     -H26     :-179.778484
 C9      -C8      -C7      -C23     :-176.307482
 C9      -C10     -C11     -H27     :-177.768294
 C10     -C9      -C8      -H24     :-179.371646
 C10     -C11     -C6      -C12     :-179.368488
 C11     -C6      -C7      -C23     : 175.758639
 C11     -C6      -C12     -C13     :  83.941330
 C11     -C10     -C9      -H25     : 179.901367
 C12     -C3      -C16     -C15     :   1.063585
 C12     -C3      -C16     -H31     :-179.102067
 C12     -C6      -C7      -C23     :  -4.985888
 C12     -C6      -C11     -H27     :  -1.432840
 C12     -C13     -C14     -C15     :   0.419544
 C12     -C13     -C14     -H29     : 179.515586
 C13     -C12     -C3      -C16     :  -0.956143
 C13     -C14     -C15     -C16     :  -0.387844
 C13     -C14     -C15     -H30     : 179.480274
 C14     -C15     -C16     -H31     : 179.809641
 C15     -C14     -C13     -H28     :-176.949296
 C16     -C15     -C14     -H29     :-179.495593
 C17     -C4      -C18     -H35     :  65.348403
 C17     -C4      -C18     -H36     :-171.651602
 C17     -C4      -C18     -H37     : -53.289439
 C17     -C4      -C19     -H38     : -66.981941
 C17     -C4      -C19     -H39     :  52.743195
 C17     -C4      -C19     -H40     : 171.789387
 C18     -C4      -C17     -H32     : -64.694553
 C18     -C4      -C17     -H33     :  54.255933
 C18     -C4      -C17     -H34     : 173.017195
 C18     -C4      -C19     -H38     :-178.358513
 C18     -C4      -C19     -H39     : -58.633377
 C18     -C4      -C19     -H40     :  60.412815
 C19     -C4      -C17     -H32     :-174.987439
 C19     -C4      -C17     -H33     : -56.036953
 C19     -C4      -C17     -H34     :  62.724309
 C19     -C4      -C18     -H35     : 176.830700
 C19     -C4      -C18     -H36     : -60.169305
 C19     -C4      -C18     -H37     :  58.192858
 C20     -C5      -C21     -H44     : -59.667052
 C20     -C5      -C21     -H45     :  58.510680
 C20     -C5      -C21     -H46     : 176.356787
 C20     -C5      -C22     -H47     :  60.283556
 C20     -C5      -C22     -H48     :-178.863361
 C20     -C5      -C22     -H49     : -58.663408
 C21     -C5      -C20     -H41     :  75.812279
 C21     -C5      -C20     -H42     :-162.380674
 C21     -C5      -C20     -H43     : -44.452771
 C21     -C5      -C22     -H47     : 171.945031
 C21     -C5      -C22     -H48     : -67.201886
 C21     -C5      -C22     -H49     :  52.998068
 C22     -C5      -C20     -H41     :-172.848971
 C22     -C5      -C20     -H42     : -51.041923
 C22     -C5      -C20     -H43     :  66.885980
 C22     -C5      -C21     -H44     :-170.886081
 C22     -C5      -C21     -H45     : -52.708349
 C22     -C5      -C21     -H46     :  65.137758
 C23     -C7      -C8      -H24     :   3.095099
 H24     -C8      -C9      -H25     :   0.449421
 H25     -C9      -C10     -H26     :   0.399493
 H26     -C10     -C11     -H27     :   1.731423
 H28     -C13     -C14     -H29     :   2.146746
 H29     -C14     -C15     -H30     :   0.372525
 H30     -C15     -C16     -H31     :  -0.057740
 
  nuclear repulsion energy.......          3775.018486364 hartrees
  
  Detected an organometallic with only one TM atom. 
  
  Oxidation state on metal       2 is     2
  Formal multiplet on metal      2 is     1
  Formal charge on ligand        3 is    -1
  Formal multiplet on ligand     3 is     1
  Formal charge on ligand        4 is    -1
  Formal multiplet on ligand     4 is     1
  
 
  Will use High-Quality Initial guess for organometallics
       including d-d repulsion (iguess=30)
 
 Non-default options chosen:
   SCF calculation type: DFT(b3pw91-d3)              
   DFT=Becke_3_Parameter/HF+Slater+Becke88+PW91+PW-GGAIIC (B3PW91-D3)
   Geometry will be optimized in redundant internal coordinates
   Solvation energy will be computed using PBF
     -solute cavity energy will not be included
     -surface area terms will not be included
   Vibrational frequencies and related properties will be computed
      from analytic second derivatives
   IR intensities will be computed
   Thermochemical properties will be computed
   Maximum number of geometry steps: 100
   Scaling standard convergence criteria by a factor of   5.00
   Solvent: benzene                                                         
   Internal dielectric constant:    1.000
   Continuum dielectric constant:   2.283
   Solvent probe molecule radius:   2.600
  
 Non-default print settings:
     11=  2
  
 Temporary integer options set:
     21= -1  73=  2
  
  atom       vdw   vdw2    cov     mass  grid  daf  charge   basis
  P1        2.147  2.074  1.060   30.974    Y    Y      Y    ps_6-31g*
  Pd2       1.450  1.450  1.280  105.903    Y    Y      Y    lacv3p*
  Br3       2.095  2.095  1.140   78.918    Y    Y      Y    lav3p*
  C73       1.949  1.900  0.770   12.000    Y    Y      Y    ps_6-31g*
  C74       1.949  1.900  0.770   12.000    Y    Y      Y    ps_6-31g*
  C75       1.949  1.900  0.770   12.000    Y    Y      Y    ps_6-31g*
  C76       1.949  1.900  0.770   12.000    Y    Y      Y    ps_6-31g*
  C77       1.949  1.900  0.770   12.000    Y    Y      Y    ps_6-31g*
  C78       1.949  1.900  0.770   12.000    Y    Y      Y    ps_6-31g*
  F79       1.736  1.682  0.720   18.998    Y    Y      Y    ps_6-31g*
  H80       1.597  1.150  0.320    1.008    Y    Y      Y    ps_6-31g*
  H82       1.597  1.150  0.320    1.008    Y    Y      Y    ps_6-31g*
  H83       1.597  1.150  0.320    1.008    Y    Y      Y    ps_6-31g*
  H14       1.597  1.150  0.320    1.008    Y    Y      Y    ps_6-31g*
  C3        1.949  1.900  0.770   12.000    Y    Y      Y    ps_6-31g*
  C4        1.949  1.900  0.770   12.000    Y    Y      Y    ps_6-31g*
  C5        1.949  1.900  0.770   12.000    Y    Y      Y    ps_6-31g*
  C6        1.949  1.900  0.770   12.000    Y    Y      Y    ps_6-31g*
  C7        1.949  1.900  0.770   12.000    Y    Y      Y    ps_6-31g*
  C8        1.949  1.900  0.770   12.000    Y    Y      Y    ps_6-31g*
  C9        1.949  1.900  0.770   12.000    Y    Y      Y    ps_6-31g*
  C10       1.949  1.900  0.770   12.000    Y    Y      Y    ps_6-31g*
  C11       1.949  1.900  0.770   12.000    Y    Y      Y    ps_6-31g*
  C12       1.949  1.900  0.770   12.000    Y    Y      Y    ps_6-31g*
  C13       1.949  1.900  0.770   12.000    Y    Y      Y    ps_6-31g*
  C14       1.949  1.900  0.770   12.000    Y    Y      Y    ps_6-31g*
  C15       1.949  1.900  0.770   12.000    Y    Y      Y    ps_6-31g*
  C16       1.949  1.900  0.770   12.000    Y    Y      Y    ps_6-31g*
  C17       1.949  1.900  0.770   12.000    Y    Y      Y    ps_6-31g*
  C18       1.949  1.900  0.770   12.000    Y    Y      Y    ps_6-31g*
  C19       1.949  1.900  0.770   12.000    Y    Y      Y    ps_6-31g*
  C20       1.949  1.900  0.770   12.000    Y    Y      Y    ps_6-31g*
  C21       1.949  1.900  0.770   12.000    Y    Y      Y    ps_6-31g*
  C22       1.949  1.900  0.770   12.000    Y    Y      Y    ps_6-31g*
  C23       1.949  1.900  0.770   12.000    Y    Y      Y    ps_6-31g*
  H24       1.597  1.150  0.320    1.008    Y    Y      Y    ps_6-31g*
  H25       1.597  1.150  0.320    1.008    Y    Y      Y    ps_6-31g*
  H26       1.597  1.150  0.320    1.008    Y    Y      Y    ps_6-31g*
  H27       1.597  1.150  0.320    1.008    Y    Y      Y    ps_6-31g*
  H28       1.597  1.150  0.320    1.008    Y    Y      Y    ps_6-31g*
  H29       1.597  1.150  0.320    1.008    Y    Y      Y    ps_6-31g*
  H30       1.597  1.150  0.320    1.008    Y    Y      Y    ps_6-31g*
  H31       1.597  1.150  0.320    1.008    Y    Y      Y    ps_6-31g*
  H32       1.597  1.150  0.320    1.008    Y    Y      Y    ps_6-31g*
  H33       1.597  1.150  0.320    1.008    Y    Y      Y    ps_6-31g*
  H34       1.597  1.150  0.320    1.008    Y    Y      Y    ps_6-31g*
  H35       1.597  1.150  0.320    1.008    Y    Y      Y    ps_6-31g*
  H36       1.597  1.150  0.320    1.008    Y    Y      Y    ps_6-31g*
  H37       1.597  1.150  0.320    1.008    Y    Y      Y    ps_6-31g*
  H38       1.597  1.150  0.320    1.008    Y    Y      Y    ps_6-31g*
  H39       1.597  1.150  0.320    1.008    Y    Y      Y    ps_6-31g*
  H40       1.597  1.150  0.320    1.008    Y    Y      Y    ps_6-31g*
  H41       1.597  1.150  0.320    1.008    Y    Y      Y    ps_6-31g*
  H42       1.597  1.150  0.320    1.008    Y    Y      Y    ps_6-31g*
  H43       1.597  1.150  0.320    1.008    Y    Y      Y    ps_6-31g*
  H44       1.597  1.150  0.320    1.008    Y    Y      Y    ps_6-31g*
  H45       1.597  1.150  0.320    1.008    Y    Y      Y    ps_6-31g*
  H46       1.597  1.150  0.320    1.008    Y    Y      Y    ps_6-31g*
  H47       1.597  1.150  0.320    1.008    Y    Y      Y    ps_6-31g*
  H48       1.597  1.150  0.320    1.008    Y    Y      Y    ps_6-31g*
  H49       1.597  1.150  0.320    1.008    Y    Y      Y    ps_6-31g*
  H50       1.597  1.150  0.320    1.008    Y    Y      Y    ps_6-31g*
  H51       1.597  1.150  0.320    1.008    Y    Y      Y    ps_6-31g*
  H52       1.597  1.150  0.320    1.008    Y    Y      Y    ps_6-31g*
 
  atom      formal  2spin      esp    mulk    frag
  P1           0       0        Y    0.000       0
  Pd2          2       0        Y    0.000       0
  Br3         -1       0        Y    0.000       0
  C73         -1       0        Y    0.000       0
  
  end of program pre
   
 Time(pre)  user:       1.022  user+sys:       1.022  wallclock:       1.251
  
  start of program onee
  
  smallest eigenvalue of S:    3.980E-04
  number of canonical orbitals.....          514
  end of program onee
   
 Time(onee)  user:       5.742  user+sys:       5.742  wallclock:       4.510
  
  start of program hfig
  
  initial wavefunction generated automatically from atomic wavefunctions
  Only one state below 0.010000
  Skip d-d repulsion considerations 
 
  Irreducible     Total no   No of occupied orbitals 
  representation  orbitals   Shell_1  Shell_2    ...
  No Symm          514        122
  ------------------------
  Orbital occupation/shell    1.000
 
  end of program hfig
   
 Time(hfig)  user:       0.882  user+sys:       0.882  wallclock:       1.114
  
  start of program probe
  
  end of program probe
   
 Time(probe)  user:       0.422  user+sys:       0.422  wallclock:       0.432
  
  start of program grid
  
   grid     grid set  grid #  grid sym
  ------    --------  ------  --------
  coarse        0        0        1
  medium        2        1        1
  fine          0        0        1
  ultrafine     4        2        1
  charge       -1        3        1
  gradient      4        2        1
  density       0        0        1
  DFT-fine    -11        4        1
  DFT-med.    -10        5        1
  DFT-grad    -12        6        1
  DFT-der2     -8        7        1
  DFT-cphf     -9        8        1
  LMP2-enrg     4        2        1
  LMP2-grad     2        1        1
  DFT-cphf2   -15        9        1
  PBF-dens      0        0        1
  plotting      0        0        1
  Rel-grad    -17        0        1
  
  number of gridpoints: 
     atom           P1         Pd2         Br3         C73         C74         C75         C76
  grid # 1         613         353         508          79          93          92          95
  grid # 2         430         326         499         330         315         296         363
  grid # 3           9         261         389          34          30          22          15
  grid # 4        8714        8714        8714        8714        8714        8714        8714
  grid # 5        1192        1192        1192        1192        1192        1192        1192
  grid # 6        9132        9132        9132        5922        5922        5922        5922
  grid # 7       23034       32968       11582       13950       13950       13950       13950
  grid # 8         722        1150         694         748         748         748         748
  grid # 9         366        2198         358         394         394         394         394
   
  number of gridpoints: 
     atom          C77         C78         F79         H80         H82         H83         H14
  grid # 1          94          93         584         114         106         113         106
  grid # 2         313         319         565         464         437         460         428
  grid # 3          23          29         352         377         178         374         193
  grid # 4        8714        8714        8714        8714        8714        8714        8714
  grid # 5        1192        1192        1192        1192        1192        1192        1192
  grid # 6        5922        5922        5922        5922        5922        5922        5922
  grid # 7       13950       13950       23190       15206       15206       15206       15206
  grid # 8         748         748         770         786         786         786         786
  grid # 9         394         394         420         420         420         420         420
   
  number of gridpoints: 
     atom           C3          C4          C5          C6          C7          C8          C9
  grid # 1          92          91          88          98         100          94          96
  grid # 2         392         369         377         355         364         326         320
  grid # 3          19           6           6          12          21          29          29
  grid # 4        8714        8714        8714        8714        8714        8714        8714
  grid # 5        1192        1192        1192        1192        1192        1192        1192
  grid # 6        5922        5922        5922        5922        5922        5922        5922
  grid # 7       13950       13950       13950       13950       13950       13950       13950
  grid # 8         748         748         748         748         748         748         748
  grid # 9         394         394         394         394         394         394         394
   
  number of gridpoints: 
     atom          C10         C11         C12         C13         C14         C15         C16
  grid # 1          96          93          98          93          97          95          91
  grid # 2         323         325         359         324         324         322         323
  grid # 3          29          17          17          30          53          37          20
  grid # 4        8714        8714        8714        8714        8714        8714        8714
  grid # 5        1192        1192        1192        1192        1192        1192        1192
  grid # 6        5922        5922        5922        5922        5922        5922        5922
  grid # 7       13950       13950       13950       13950       13950       13950       13950
  grid # 8         748         748         748         748         748         748         748
  grid # 9         394         394         394         394         394         394         394
   
  number of gridpoints: 
     atom          C17         C18         C19         C20         C21         C22         C23
  grid # 1          83          84          82          80          82          79          81
  grid # 2         239         240         241         246         241         248         243
  grid # 3           6           6           6           6           6           6           6
  grid # 4        8714        8714        8714        8714        8714        8714        8714
  grid # 5        1192        1192        1192        1192        1192        1192        1192
  grid # 6        5922        5922        5922        5922        5922        5922        5922
  grid # 7       13950       13950       13950       13950       13950       13950       13950
  grid # 8         748         748         748         748         748         748         748
  grid # 9         394         394         394         394         394         394         394
   
  number of gridpoints: 
     atom          H24         H25         H26         H27         H28         H29         H30
  grid # 1         114         117         117         115         116         118         118
  grid # 2         453         468         467         455         458         467         465
  grid # 3         284         380         406         304         350         423         402
  grid # 4        8714        8714        8714        8714        8714        8714        8714
  grid # 5        1192        1192        1192        1192        1192        1192        1192
  grid # 6        5922        5922        5922        5922        5922        5922        5922
  grid # 7       15206       15206       15206       15206       15206       15206       15206
  grid # 8         786         786         786         786         786         786         786
  grid # 9         420         420         420         420         420         420         420
   
  number of gridpoints: 
     atom          H31         H32         H33         H34         H35         H36         H37
  grid # 1          94         101         108          99         108         109         109
  grid # 2         388         416         444         412         448         446         446
  grid # 3          49          92         265         145         231         239         267
  grid # 4        8714        8714        8714        8714        8714        8714        8714
  grid # 5        1192        1192        1192        1192        1192        1192        1192
  grid # 6        5922        5922        5922        5922        5922        5922        5922
  grid # 7       15206       15206       15206       15206       15206       15206       15206
  grid # 8         786         786         786         786         786         786         786
  grid # 9         420         420         420         420         420         420         420
   
  number of gridpoints: 
     atom          H38         H39         H40         H41         H42         H43         H44
  grid # 1          97         109          98         100          96         107         109
  grid # 2         415         445         406         419         403         446         448
  grid # 3         135         269         126         128          52         262         263
  grid # 4        8714        8714        8714        8714        8714        8714        8714
  grid # 5        1192        1192        1192        1192        1192        1192        1192
  grid # 6        5922        5922        5922        5922        5922        5922        5922
  grid # 7       15206       15206       15206       15206       15206       15206       15206
  grid # 8         786         786         786         786         786         786         786
  grid # 9         420         420         420         420         420         420         420
   
  number of gridpoints: 
     atom          H45         H46         H47         H48         H49         H50         H51
  grid # 1         107         102          87          98         106         113          99
  grid # 2         443         431         378         405         436         465         417
  grid # 3         259         169           6          79         186         381          77
  grid # 4        8714        8714        8714        8714        8714        8714        8714
  grid # 5        1192        1192        1192        1192        1192        1192        1192
  grid # 6        5922        5922        5922        5922        5922        5922        5922
  grid # 7       15206       15206       15206       15206       15206       15206       15206
  grid # 8         786         786         786         786         786         786         786
  grid # 9         420         420         420         420         420         420         420
   
  number of gridpoints: 
     atom          H52       total
  grid # 1         107        8014
  grid # 2         446       24682
  grid # 3         249        9131
  grid # 4        8714      557696
  grid # 5        1192       76288
  grid # 6        5922      388638
  grid # 7       15206      969222
  grid # 8         786       49470
  grid # 9         420       27840
   
  end of program grid
   
 Time(grid)  user:     187.991  user+sys:     187.991  wallclock:      96.212
  
  start of program rwr
  
  end of program rwr
   
 Time(rwr)  user:      13.441  user+sys:      13.441  wallclock:      16.629
  
  start of program scf
  
 number of electrons..........        244
 number of alpha electrons....        122
 number of beta electrons.....        122
 number of orbitals, total....        514
 number of doubly-occ'd orbs..        122
 number of open shell orbs....          0
 number of occupied orbitals..        122
 number of virtual orbitals...        392
 number of hamiltonians.......          1
 number of shells.............          1
 SCF type: DFT=Becke_3_Parameter/HF+Slater+Becke88+PW91+PW-GGAIIC (B3PW91-D3)
 Energy computed using pseudospectral method.
 Convergence Criterion:
    Energy (econv):       1.00E-05
    RMS density (dconv):  5.00E-06
  
       i  u  d  i  g                   
       t  p  i  c  r                                 RMS    maximum
       e  d  i  u  i                       energy  density   DIIS  
       r  t  s  t  d       total energy    change  change    error 
  
etot    1  N  N  5  M   -1625.48408555170           2.4E-03  3.1E-01
etot    2  Y  Y  6  M   -1628.05875390099  2.6E+00  3.6E-03  1.8E-01
etot    3  Y  Y  6  M   -1628.86386869355  8.1E-01  1.7E-03  7.6E-02
etot    4  N  Y  2  U   -1629.16091600461  3.0E-01  1.0E-03  2.5E-02
etot    5  Y  Y  6  M   -1629.26028697134  9.9E-02  6.6E-04  1.5E-02
etot    6  N  Y  2  U   -1629.26959806236  9.3E-03  6.2E-04  7.7E-03
etot    7  Y  Y  6  M   -1629.26843084616 -1.2E-03  1.6E-04  3.9E-03
etot    8  Y  Y  6  M   -1629.27398866477  5.6E-03  5.3E-05  1.5E-03
etot    9  N  Y  2  U   -1629.27468042621  6.9E-04  1.9E-05  1.5E-04
etot   10  N  Y  2  U   -1629.27468750396  7.1E-06  8.7E-06  5.1E-05
etot   11  N  Y  2  U   -1629.27468921471  1.7E-06  2.8E-06  2.9E-05
etot   12  N  N  2  U   -1629.27468974953  5.3E-07  0.0E+00  0.0E+00
 
  Computing the dispersion energy correction and its gradients...
  
  
 Energy components, in hartrees:
   (A)  Nuclear repulsion............    3775.01848636401
   (E)  Total one-electron terms.....   -9791.21082995210
   (F)    Electron-nuclear...........  -11322.74592295779
   (H)    Kinetic....................    1531.53509300570
   (I)  Total two-electron terms.....    4386.91765383855
   (J)    Coulomb....................    4594.46703249967
   (K)    Exchange+Correlation.......    -207.54937866112
   (L)  Electronic energy............   -5404.29317611354  (E+I)
   (N0) D3 correction................      -0.12023885313
   (N)  Total energy.................   -1629.39492860266  (A+L+N0)
   (O)  Gas phase energy.............   -1629.39492860266
  
 SCFE: SCF energy: DFT(b3pw91-d3)     -1629.39492860266 hartrees   iterations:  12
  
 
 HOMO energy:    -0.19971
 LUMO energy:    -0.07900
 
  Orbital energies (hartrees): 
   -77.10632   -24.68761   -10.25624   -10.23174   -10.22289   -10.22085
   -10.21461   -10.19955   -10.19818   -10.19577   -10.19518   -10.19471
   -10.19179   -10.19139   -10.18313   -10.18239   -10.18189   -10.18086
   -10.17874   -10.17855   -10.17814   -10.17500   -10.17221   -10.16967
   -10.16915   -10.16758   -10.16677   -10.16312   -10.12212    -6.60592
    -4.76390    -4.76319    -4.76123    -3.35358    -2.08905    -2.08290
    -2.05138    -1.21808    -0.89154    -0.88898    -0.85872    -0.84410
    -0.81869    -0.79659    -0.77633    -0.76957    -0.76882    -0.75923
    -0.73603    -0.71480    -0.70495    -0.69456    -0.68421    -0.68122
    -0.67135    -0.66027    -0.63552    -0.63217    -0.61494    -0.60979
    -0.59604    -0.58261    -0.57292    -0.55148    -0.54807    -0.52251
    -0.49942    -0.49479    -0.49119    -0.48431    -0.48138    -0.47698
    -0.47377    -0.46855    -0.46429    -0.46212    -0.45805    -0.45442
    -0.44520    -0.44126    -0.43441    -0.43085    -0.42781    -0.42223
    -0.41734    -0.40753    -0.40267    -0.40085    -0.39964    -0.39274
    -0.38992    -0.38554    -0.38147    -0.37795    -0.37059    -0.36728
    -0.36423    -0.35840    -0.35626    -0.35533    -0.34869    -0.34437
    -0.33747    -0.33476    -0.33073    -0.32937    -0.32407    -0.31492
    -0.31295    -0.28941    -0.28395    -0.27737    -0.27502    -0.26739
    -0.25934    -0.25267    -0.24704    -0.24119    -0.23340    -0.21340
    -0.20877    -0.19971    -0.07900    -0.05122    -0.03106    -0.02336
    -0.01126    -0.00661     0.00128     0.01865     0.02670     0.02967
 
  end of program scf
   
 Time(scf)  user:     298.959  user+sys:     298.959  wallclock:     160.550
  
  start of program der1a
  
  end of program der1a
   
 Time(der1a)  user:      17.888  user+sys:      17.888  wallclock:       9.930
  
  start of program rwr
  
  end of program rwr
   
 Time(rwr)  user:      13.788  user+sys:      13.788  wallclock:      18.435
  
  start of program der1b
  
   
  forces (hartrees/bohr) : total     
   
 atom  label           x              y              z
 ---- --------   -------------  -------------  -------------
    1 P1          5.350523E-03  -7.739525E-03   1.962413E-02
    2 Pd2         1.053420E-02   8.382312E-03   1.964162E-02
    3 Br3        -5.430254E-03  -1.185958E-03  -1.069190E-02
    4 C73        -7.077955E-03  -8.555774E-04  -1.601900E-03
    5 C74         1.399096E-03  -4.979389E-03   2.037809E-02
    6 C75        -9.698780E-03  -6.259432E-03   7.141972E-02
    7 C76         4.806342E-03   3.224626E-02   5.086039E-02
    8 C77        -1.394519E-03   1.141072E-02   2.608988E-02
    9 C78         8.709529E-04   2.258068E-03   3.455101E-03
   10 F79         7.814755E-03   2.001221E-03   7.776335E-04
   11 H80         1.138977E-03   1.228920E-03   8.548931E-04
   12 H82        -2.107450E-05  -1.515900E-03   3.102265E-03
   13 H83         1.124978E-03  -7.324845E-04  -5.327177E-04
   14 H14        -6.349231E-03  -1.463518E-03   7.055627E-03
   15 C3         -9.175968E-03  -3.901711E-03  -1.095270E-02
   16 C4         -5.228864E-03   1.975240E-02  -2.927576E-02
   17 C5         -2.246421E-02  -2.869516E-02  -1.852285E-02
   18 C6         -4.249761E-03  -1.666423E-03   6.628939E-02
   19 C7         -7.514746E-03  -1.140243E-02   1.249456E-02
   20 C8          6.455558E-03   5.595521E-03   6.268708E-03
   21 C9          2.125911E-03   3.697245E-04  -3.531202E-03
   22 C10         1.271809E-03  -4.888334E-03   1.457662E-03
   23 C11         4.645078E-03   2.261622E-02   1.298572E-03
   24 C12        -1.058814E-02  -9.860822E-03  -5.179278E-02
   25 C13         1.462835E-02   2.652460E-03  -5.611851E-03
   26 C14        -5.573130E-03   2.339095E-03  -4.756734E-03
   27 C15         5.658072E-03  -1.980625E-04   2.829803E-03
   28 C16         8.588273E-03  -2.224987E-02  -1.359443E-02
   29 C17        -1.485495E-02  -2.735336E-03   2.476808E-03
   30 C18         1.177060E-02   4.486937E-03   1.547630E-02
   31 C19        -8.546149E-03   1.732803E-02  -1.876877E-02
   32 C20         1.913326E-02  -2.149305E-03   7.937256E-03
   33 C21         7.605256E-03   1.699333E-03  -1.546284E-02
   34 C22        -1.956707E-02   7.866753E-03  -4.545434E-02
   35 C23        -7.828916E-03  -1.055337E-02  -6.431056E-03
   36 H24        -2.547874E-03   4.869269E-03  -1.156220E-02
   37 H25        -3.293959E-03  -2.880278E-03  -1.096521E-02
   38 H26        -3.103321E-03  -9.354451E-03  -6.869492E-03
   39 H27        -3.068915E-03   1.087103E-03  -9.645879E-03
   40 H28        -5.614312E-03  -2.294664E-03   1.486322E-02
   41 H29        -7.716185E-03  -2.035401E-04   9.189319E-03
   42 H30        -2.189273E-03  -7.788011E-04   1.091572E-02
   43 H31         2.523906E-02  -3.030829E-02   1.572092E-02
   44 H32         6.617862E-03  -3.727243E-03  -1.202149E-02
   45 H33         1.190117E-02  -4.782713E-03   3.955234E-03
   46 H34         6.695276E-03   1.395135E-02   5.752566E-04
   47 H35         5.354503E-03  -4.185062E-03  -7.478053E-03
   48 H36        -9.244018E-03  -2.858053E-03   5.022949E-03
   49 H37         1.385516E-03  -1.293018E-02   2.055392E-03
   50 H38         1.285862E-04   8.813654E-03   2.988972E-03
   51 H39        -1.821257E-03  -5.381298E-03   1.086476E-02
   52 H40        -3.047443E-02   2.254186E-02  -6.710332E-04
   53 H41        -1.260485E-02   7.412097E-04  -2.480200E-03
   54 H42         1.527680E-02  -2.126751E-03  -2.185316E-02
   55 H43         1.341212E-03   1.234457E-02  -3.168302E-03
   56 H44        -2.500637E-03   6.717029E-03   4.512780E-03
   57 H45         4.362913E-03   9.804589E-03   7.200117E-03
   58 H46         3.520111E-03  -2.771620E-03   6.323851E-03
   59 H47        -1.413309E-03  -1.631900E-02  -1.029075E-01
   60 H48         7.612782E-03  -2.139973E-02   5.616888E-03
   61 H49         1.384512E-02   4.797878E-03  -5.198407E-03
   62 H50        -1.132778E-02   5.716838E-03  -4.825909E-03
   63 H51         2.011346E-02   1.491731E-03   6.866522E-04
   64 H52         5.739552E-03   1.113482E-02  -4.692665E-03
 -------------   -------------  -------------  -------------
     total        1.572093E-03   9.115940E-04  -1.040931E-03
   
  end of program der1b
   
 Time(der1b)  user:     100.642  user+sys:     100.642  wallclock:      59.912
  
  start of program geopt
  
 ----------------------------------------------------------------------------
  Geometry optimization step  1
  Total energy:     -1629.39492860266 hartrees
 ----------------------------------------------------------------------------
  
  
  Level shifts adjusted to satisfy step-size constraints
   Step size:    0.3008972
   Cos(theta):   0.6831044
   Final level shift:  -1.0330486E+00
  
  gradient maximum:        8.5322E-01 .  (  2.2500E-03 )
  gradient rms:            9.7704E-02 .  (  1.5000E-03 )
  displacement maximum:    8.8492E-02 .  (  9.0000E-03 )
  displacement rms:        1.6713E-02 .  (  6.0000E-03 )
  
  predicted energy change:  -1.7027E-01
  step size:     0.24219
  trust radius:  0.30000
  
  molecular structure not yet converged...
  
  center of mass moved by:
     x:     3.1531E-02     y:     2.4179E-03     z:    -2.4855E-03
  
  new geometry: 
                                   angstroms
  atom               x                 y                 z
  P1           -0.0189249811     -0.0379893892     -0.0831479815 
  Pd2           0.0028412938     -0.0324995373      2.2114520306 
  Br3           0.4886248708      0.0578834151      4.7144775059 
  C73          -4.5990663550     -1.1783083698      2.5369021804 
  C74          -3.6563382675     -2.1520924375      2.8281130155 
  C75          -2.3059934388     -1.8113789936      2.7893905592 
  C76          -1.9006093891     -0.5098063292      2.4677462853 
  C77          -2.8777341154      0.4588688662      2.2244500947 
  C78          -4.2339732056      0.1284486926      2.2500902500 
  F79          -5.9102022060     -1.5110637331      2.5362370891 
  H80          -3.9806853155     -3.1646934676      3.0520356872 
  H82          -2.5845393606      1.4818372801      2.0129328547 
  H83          -5.0038778267      0.8699237889      2.0524745999 
  H14          -1.5610355757     -2.5569323964      3.0229795512 
  C3            1.7950901362     -0.0984192285     -0.6466377797 
  C4           -0.8944491105      1.4381738094     -0.9669811519 
  C5           -0.7948180486     -1.7125955541     -0.5802756890 
  C6            3.1521698984     -0.1002187798      1.5675053180 
  C7            3.0988016025     -1.1628695619      2.5218231472 
  C8            3.3020663297     -0.8934595438      3.8915778313 
  C9            3.5560731380      0.3830122328      4.3982034935 
  C10           3.5940657062      1.4361562202      3.4876957324 
  C11           3.3988289929      1.1632982272      2.1330218640 
  C12           3.0041399770     -0.1540510455      0.1255228389 
  C13           4.1963867043     -0.2443226058     -0.6238043239 
  C14           4.2808796848     -0.2850339115     -2.0176297830 
  C15           3.1041344565     -0.2229576473     -2.7554740669 
  C16           1.9042799656     -0.1281967081     -2.0490519642 
  C17          -2.4386461345      1.4850661467     -0.9216897122 
  C18          -0.4070164610      2.7998719470     -0.4190504913 
  C19          -0.5643833709      1.5087023018     -2.4790161560 
  C20          -0.1272451269     -2.8804074090      0.1771703872 
  C21          -0.8086236318     -2.0968971382     -2.0816760748 
  C22          -2.2581199285     -1.6795385147     -0.1044000692 
  C23           2.7748309140     -2.6084784982      2.2160204771 
  H24           3.2529603894     -1.7112757209      4.6245829297 
  H25           3.7071694838      0.5549476200      5.4734982605 
  H26           3.7911505365      2.4638758870      3.8260003636 
  H27           3.4869278590      2.0236317178      1.4794009736 
  H28           5.1726631837     -0.2518589578     -0.1415391287 
  H29           5.2545687174     -0.3487315332     -2.5260706580 
  H30           3.1166471644     -0.2439370269     -3.8550936156 
  H31           1.0089749493     -0.0934533734     -2.6630509983 
  H32          -2.8407958275      1.5724265370      0.1019916800 
  H33          -2.8267142247      2.3657506422     -1.4762290983 
  H34          -2.9136110761      0.6072034652     -1.3918871825 
  H35          -0.6695488640      2.9354018659      0.6499947886 
  H36           0.6893931210      2.9249295703     -0.5414137736 
  H37          -0.8765413754      3.6479857052     -0.9608259271 
  H38          -0.8500281336      0.5864243864     -3.0213619262 
  H39          -1.1044091953      2.3429552517     -2.9761747616 
  H40           0.5115217077      1.6967996464     -2.6544171900 
  H41           0.9681522070     -2.9123954485      0.0134131323 
  H42          -0.3040560143     -2.8220310289      1.2653303835 
  H43          -0.5349598533     -3.8620946933     -0.1440023438 
  H44           0.1943766381     -2.2880217647     -2.5096993315 
  H45          -1.3730281199     -3.0395568045     -2.2428988939 
  H46          -1.3122824200     -1.3443409580     -2.7157394308 
  H47          -2.2970927062     -1.4988119255      0.9975726805 
  H48          -2.8457815580     -0.8969903241     -0.6162532409 
  H49          -2.7708353074     -2.6447924355     -0.3009966184 
  H50           3.6733577792     -3.1766715565      1.8943956380 
  H51           1.9360988390     -2.7028030083      1.4977497301 
  H52           2.4009040126     -3.1460030027      3.1121927989 
   
 
  bond lengths (angstroms):
 
 P1      -Pd2     :   2.294710      P1      -C3      :   1.900480
 P1      -C4      :   1.930482      P1      -C5      :   1.911400
 Pd2     -Br3     :   2.551331      Pd2     -C76     :   1.979049
 C73     -C74     :   1.386288      C73     -C78     :   1.386783
 C73     -F79     :   1.352702      C74     -C75     :   1.393204
 C74     -H80     :   1.086602      C75     -C76     :   1.400672
 C75     -H14     :   1.079526      C76     -C77     :   1.397246
 C77     -C78     :   1.396144      C77     -H82     :   1.084973
 C78     -H83     :   1.087010      C3      -C12     :   1.435663
 C3      -C16     :   1.406974      C4      -C17     :   1.545573
 C4      -C18     :   1.546622      C4      -C19     :   1.549247
 C5      -C20     :   1.543750      C5      -C21     :   1.549865
 C5      -C22     :   1.539092      C6      -C7      :   1.429265
 C6      -C11     :   1.406103      C6      -C12     :   1.450560
 C7      -C8      :   1.410718      C7      -C23     :   1.512699
 C8      -C9      :   1.396628      C8      -H24     :   1.099332
 C9      -C10     :   1.392688      C9      -H25     :   1.099387
 C10     -C11     :   1.395604      C10     -H26     :   1.099773
 C11     -H27     :   1.084046      C12     -C13     :   1.411061
 C13     -C14     :   1.396977      C13     -H28     :   1.088923
 C14     -C15     :   1.390323      C14     -H29     :   1.100291
 C15     -C16     :   1.395587      C15     -H30     :   1.099891
 C16     -H31     :   1.086174      C17     -H32     :   1.103304
 C17     -H33     :   1.110728      C17     -H34     :   1.103322
 C18     -H35     :   1.109121      C18     -H36     :   1.110282
 C18     -H37     :   1.110527      C19     -H38     :   1.107397
 C19     -H39     :   1.111203      C19     -H40     :   1.106218
 C20     -H41     :   1.108032      C20     -H42     :   1.103976
 C20     -H43     :   1.110447      C21     -H44     :   1.107132
 C21     -H45     :   1.110474      C21     -H46     :   1.105463
 C22     -H47     :   1.117374      C22     -H48     :   1.104410
 C22     -H49     :   1.110514      C23     -H50     :   1.110692
 C23     -H51     :   1.108279      C23     -H52     :   1.109900
 
  bond angles:
 
 C3      -P1      -Pd2     : 106.708746  C4      -P1      -Pd2     : 117.405234
 C4      -P1      -C3      : 108.751264  C5      -P1      -Pd2     : 105.427544
 C5      -P1      -C3      : 106.408744  C5      -P1      -C4      : 111.515673
 Br3     -Pd2     -P1      : 169.392201  C76     -Pd2     -P1      :  96.880416
 C76     -Pd2     -Br3     :  93.705201  C78     -C73     -C74     : 121.757072
 F79     -C73     -C74     : 119.107448  F79     -C73     -C78     : 119.135217
 C75     -C74     -C73     : 118.783073  H80     -C74     -C73     : 119.663292
 H80     -C74     -C75     : 121.529731  C76     -C75     -C74     : 120.940760
 H14     -C75     -C74     : 119.599852  H14     -C75     -C76     : 119.454541
 C75     -C76     -Pd2     : 122.155591  C77     -C76     -Pd2     : 118.871999
 C77     -C76     -C75     : 118.803766  C78     -C77     -C76     : 120.801203
 H82     -C77     -C76     : 119.908836  H82     -C77     -C78     : 119.289956
 C77     -C78     -C73     : 118.851986  H83     -C78     -C73     : 119.596860
 H83     -C78     -C77     : 121.551102  C12     -C3      -P1      : 130.210826
 C16     -C3      -P1      : 111.733271  C16     -C3      -C12     : 118.029305
 C17     -C4      -P1      : 117.574778  C18     -C4      -P1      : 111.598577
 C18     -C4      -C17     : 106.128058  C19     -C4      -P1      : 112.645024
 C19     -C4      -C17     : 103.891167  C19     -C4      -C18     : 103.800415
 C20     -C5      -P1      : 111.076300  C21     -C5      -P1      : 118.216742
 C21     -C5      -C20     : 106.953043  C22     -C5      -P1      : 106.660847
 C22     -C5      -C20     : 106.002719  C22     -C5      -C21     : 107.240353
 C11     -C6      -C7      : 113.960773  C12     -C6      -C7      : 129.223537
 C12     -C6      -C11     : 116.811634  C8      -C7      -C6      : 120.062355
 C23     -C7      -C6      : 125.699702  C23     -C7      -C8      : 114.182798
 C9      -C8      -C7      : 123.570641  H24     -C8      -C7      : 119.927666
 H24     -C8      -C9      : 116.498332  C10     -C9      -C8      : 117.318840
 H25     -C9      -C8      : 121.515763  H25     -C9      -C10     : 121.160570
 C11     -C10     -C9      : 118.877691  H26     -C10     -C9      : 120.692490
 H26     -C10     -C11     : 120.421975  C10     -C11     -C6      : 126.200932
 H27     -C11     -C6      : 119.006766  H27     -C11     -C10     : 114.754355
 C6      -C12     -C3      : 128.255262  C13     -C12     -C3      : 115.367650
 C13     -C12     -C6      : 116.362383  C14     -C13     -C12     : 125.648288
 H28     -C13     -C12     : 121.518833  H28     -C13     -C14     : 112.796299
 C15     -C14     -C13     : 118.490298  H29     -C14     -C13     : 121.082030
 H29     -C14     -C15     : 120.420761  C16     -C15     -C14     : 117.521233
 H30     -C15     -C14     : 121.338208  H30     -C15     -C16     : 121.140195
 C15     -C16     -C3      : 124.938819  H31     -C16     -C3      : 119.921216
 H31     -C16     -C15     : 115.131855  H32     -C17     -C4      : 113.188843
 H33     -C17     -C4      : 111.007905  H33     -C17     -H32     : 105.848687
 H34     -C17     -C4      : 113.170876  H34     -C17     -H32     : 107.547712
 H34     -C17     -H33     : 105.527180  H35     -C18     -C4      : 111.990987
 H36     -C18     -C4      : 111.798634  H36     -C18     -H35     : 109.038839
 H37     -C18     -C4      : 111.488081  H37     -C18     -H35     : 106.071007
 H37     -C18     -H36     : 106.124499  H38     -C19     -C4      : 112.650941
 H39     -C19     -C4      : 111.549137  H39     -C19     -H38     : 106.307429
 H40     -C19     -C4      : 111.697275  H40     -C19     -H38     : 108.350692
 H40     -C19     -H39     : 105.906493  H41     -C20     -C5      : 112.137448
 H42     -C20     -C5      : 111.985063  H42     -C20     -H41     : 107.790201
 H43     -C20     -C5      : 111.597027  H43     -C20     -H41     : 107.140077
 H43     -C20     -H42     : 105.844502  H44     -C21     -C5      : 114.157817
 H45     -C21     -C5      : 110.833777  H45     -C21     -H44     : 104.938365
 H46     -C21     -C5      : 113.010197  H46     -C21     -H44     : 107.970661
 H46     -C21     -H45     : 105.250849  H47     -C22     -C5      : 109.972316
 H48     -C22     -C5      : 112.198812  H48     -C22     -H47     : 108.899577
 H49     -C22     -C5      : 111.441486  H49     -C22     -H47     : 107.402001
 H49     -C22     -H48     : 106.748236  H50     -C23     -C7      : 111.972417
 H51     -C23     -C7      : 111.989136  H51     -C23     -H50     : 112.396686
 H52     -C23     -C7      : 111.823289  H52     -C23     -H50     : 104.987292
 H52     -C23     -H51     : 103.127221
 
  torsional angles:
 
 P1      -Pd2     -C76     -C75     : 101.036177
 P1      -Pd2     -C76     -C77     : -74.185080
 P1      -C3      -C12     -C6      :  -3.957192
 P1      -C3      -C12     -C13     : 177.501532
 P1      -C3      -C16     -C15     :-177.575874
 P1      -C3      -C16     -H31     :   1.335834
 P1      -C4      -C17     -H32     :  62.104555
 P1      -C4      -C17     -H33     :-179.029784
 P1      -C4      -C17     -H34     : -60.587215
 P1      -C4      -C18     -H35     : -63.970289
 P1      -C4      -C18     -H36     :  58.741487
 P1      -C4      -C18     -H37     : 177.355259
 P1      -C4      -C19     -H38     :  58.588024
 P1      -C4      -C19     -H39     : 178.054746
 P1      -C4      -C19     -H40     : -63.633954
 P1      -C5      -C20     -H41     : -56.814778
 P1      -C5      -C20     -H42     :  64.514620
 P1      -C5      -C20     -H43     :-177.028885
 P1      -C5      -C21     -H44     :  67.362875
 P1      -C5      -C21     -H45     :-174.409748
 P1      -C5      -C21     -H46     : -56.545008
 P1      -C5      -C22     -H47     : -57.636396
 P1      -C5      -C22     -H48     :  63.731365
 P1      -C5      -C22     -H49     :-176.622682
 Pd2     -P1      -C3      -C12     :   0.963952
 Pd2     -P1      -C3      -C16     : 179.016538
 Pd2     -P1      -C4      -C17     : -72.779899
 Pd2     -P1      -C4      -C18     :  50.162666
 Pd2     -P1      -C4      -C19     : 166.467499
 Pd2     -P1      -C5      -C20     : -49.128733
 Pd2     -P1      -C5      -C21     :-173.283257
 Pd2     -P1      -C5      -C22     :  65.941627
 Pd2     -C76     -C75     -C74     :-173.285132
 Pd2     -C76     -C75     -H14     :   7.518992
 Pd2     -C76     -C77     -C78     : 172.963296
 Pd2     -C76     -C77     -H82     :  -7.062707
 Br3     -Pd2     -P1      -C3      :  12.211818
 Br3     -Pd2     -P1      -C4      :-110.043516
 Br3     -Pd2     -P1      -C5      : 125.091929
 Br3     -Pd2     -C76     -C75     : -78.276931
 Br3     -Pd2     -C76     -C77     : 106.501812
 C73     -C74     -C75     -C76     :   0.229483
 C73     -C74     -C75     -H14     : 179.424204
 C73     -C78     -C77     -C76     :   0.725107
 C73     -C78     -C77     -H82     :-179.249049
 C74     -C73     -C78     -C77     :   1.535073
 C74     -C73     -C78     -H83     :-178.384187
 C74     -C75     -C76     -C77     :   1.939265
 C75     -C74     -C73     -C78     :  -2.005209
 C75     -C74     -C73     -F79     : 178.182958
 C75     -C76     -C77     -C78     :  -2.420118
 C75     -C76     -C77     -H82     : 177.553879
 C76     -Pd2     -P1      -C3      :-164.062065
 C76     -Pd2     -P1      -C4      :  73.682601
 C76     -Pd2     -P1      -C5      : -51.181954
 C76     -C75     -C74     -H80     : 178.444554
 C76     -C77     -C78     -H83     :-179.357276
 C77     -C76     -C75     -H14     :-177.256611
 C77     -C78     -C73     -F79     :-178.653145
 C78     -C73     -C74     -H80     : 179.745653
 F79     -C73     -C74     -H80     :  -0.066180
 F79     -C73     -C78     -H83     :   1.427595
 H80     -C74     -C75     -H14     :  -2.360726
 H82     -C77     -C78     -H83     :   0.668568
 C3      -P1      -C4      -C17     : 166.021072
 C3      -P1      -C4      -C18     : -71.036362
 C3      -P1      -C4      -C19     :  45.268470
 C3      -P1      -C5      -C20     :  63.961669
 C3      -P1      -C5      -C21     : -60.192855
 C3      -P1      -C5      -C22     : 179.032029
 C3      -C12     -C6      -C7      :  86.697254
 C3      -C12     -C6      -C11     : -94.086508
 C3      -C12     -C13     -C14     :  -0.145387
 C3      -C12     -C13     -H28     : 177.492692
 C3      -C16     -C15     -C14     :  -0.382061
 C3      -C16     -C15     -H30     : 179.834625
 C4      -P1      -C3      -C12     : 128.511044
 C4      -P1      -C3      -C16     : -53.436371
 C4      -P1      -C5      -C20     :-177.594176
 C4      -P1      -C5      -C21     :  58.251300
 C4      -P1      -C5      -C22     : -62.523816
 C5      -P1      -C3      -C12     :-111.241993
 C5      -P1      -C3      -C16     :  66.810593
 C5      -P1      -C4      -C17     :  48.988409
 C5      -P1      -C4      -C18     : 171.930974
 C5      -P1      -C4      -C19     : -71.764193
 C6      -C7      -C8      -C9      :   0.226757
 C6      -C7      -C8      -H24     : 179.535825
 C6      -C7      -C23     -H50     :  85.312612
 C6      -C7      -C23     -H51     : -41.989300
 C6      -C7      -C23     -H52     :-157.174206
 C6      -C11     -C10     -C9      :   0.389468
 C6      -C11     -C10     -H26     : 179.377755
 C6      -C12     -C3      -C16     : 178.092213
 C6      -C12     -C13     -C14     :-178.866989
 C6      -C12     -C13     -H28     :  -1.228910
 C7      -C6      -C11     -C10     :   0.458494
 C7      -C6      -C11     -H27     : 178.093029
 C7      -C6      -C12     -C13     : -94.773802
 C7      -C8      -C9      -C10     :   0.642813
 C7      -C8      -C9      -H25     : 179.852280
 C8      -C7      -C6      -C11     :  -0.741928
 C8      -C7      -C6      -C12     : 178.492605
 C8      -C7      -C23     -H50     : -97.404321
 C8      -C7      -C23     -H51     : 135.293766
 C8      -C7      -C23     -H52     :  20.108861
 C8      -C9      -C10     -C11     :  -0.921477
 C8      -C9      -C10     -H26     :-179.906939
 C9      -C8      -C7      -C23     :-177.224040
 C9      -C10     -C11     -H27     :-177.332504
 C10     -C9      -C8      -H24     :-178.688099
 C10     -C11     -C6      -C12     :-178.877086
 C11     -C6      -C7      -C23     : 176.394222
 C11     -C6      -C12     -C13     :  84.442436
 C11     -C10     -C9      -H25     : 179.866077
 C12     -C3      -C16     -C15     :   0.739403
 C12     -C3      -C16     -H31     : 179.651111
 C12     -C6      -C7      -C23     :  -4.371245
 C12     -C6      -C11     -H27     :  -1.242550
 C12     -C13     -C14     -C15     :   0.504926
 C12     -C13     -C14     -H29     : 179.552442
 C13     -C12     -C3      -C16     :  -0.449063
 C13     -C14     -C15     -C16     :  -0.234918
 C13     -C14     -C15     -H30     : 179.547942
 C14     -C15     -C16     -H31     :-179.340200
 C15     -C14     -C13     -H28     :-177.311100
 C16     -C15     -C14     -H29     :-179.288952
 C17     -C4      -C18     -H35     :  65.282318
 C17     -C4      -C18     -H36     :-172.005906
 C17     -C4      -C18     -H37     : -53.392134
 C17     -C4      -C19     -H38     : -69.717762
 C17     -C4      -C19     -H39     :  49.748960
 C17     -C4      -C19     -H40     : 168.060261
 C18     -C4      -C17     -H32     : -63.578216
 C18     -C4      -C17     -H33     :  55.287444
 C18     -C4      -C17     -H34     : 173.730013
 C18     -C4      -C19     -H38     : 179.463810
 C18     -C4      -C19     -H39     : -61.069468
 C18     -C4      -C19     -H40     :  57.241832
 C19     -C4      -C17     -H32     :-172.683702
 C19     -C4      -C17     -H33     : -53.818041
 C19     -C4      -C17     -H34     :  64.624527
 C19     -C4      -C18     -H35     : 174.452260
 C19     -C4      -C18     -H36     : -62.835963
 C19     -C4      -C18     -H37     :  55.777809
 C20     -C5      -C21     -H44     : -58.809347
 C20     -C5      -C21     -H45     :  59.418029
 C20     -C5      -C21     -H46     : 177.282769
 C20     -C5      -C22     -H47     :  60.809679
 C20     -C5      -C22     -H48     :-177.822559
 C20     -C5      -C22     -H49     : -58.176606
 C21     -C5      -C20     -H41     :  73.516536
 C21     -C5      -C20     -H42     :-165.154067
 C21     -C5      -C20     -H43     : -46.697572
 C21     -C5      -C22     -H47     : 174.801928
 C21     -C5      -C22     -H48     : -63.830310
 C21     -C5      -C22     -H49     :  55.815642
 C22     -C5      -C20     -H41     :-172.293580
 C22     -C5      -C20     -H42     : -50.964182
 C22     -C5      -C20     -H43     :  67.492313
 C22     -C5      -C21     -H44     :-172.160362
 C22     -C5      -C21     -H45     : -53.932985
 C22     -C5      -C21     -H46     :  63.931755
 C23     -C7      -C8      -H24     :   2.085028
 H24     -C8      -C9      -H25     :   0.521369
 H25     -C9      -C10     -H26     :   0.880614
 H26     -C10     -C11     -H27     :   1.655783
 H28     -C13     -C14     -H29     :   1.736416
 H29     -C14     -C15     -H30     :   0.493907
 H30     -C15     -C16     -H31     :   0.876486
 
  nuclear repulsion energy.......          3758.258953771 hartrees
 -------------------------------------------------
   end of geometry optimization iteration  1
 -------------------------------------------------
   
  end of program geopt
   
 Time(geopt)  user:       0.698  user+sys:       0.698  wallclock:       0.894
  
  start of program onee
  
  smallest eigenvalue of S:    3.949E-04
  number of canonical orbitals.....          514
  end of program onee
   
 Time(onee)  user:       5.691  user+sys:       5.691  wallclock:       4.270
  
  start of program probe
  
  end of program probe
   
 Time(probe)  user:       0.434  user+sys:       0.434  wallclock:       0.394
  
  start of program grid
  
  end of program grid
   
 Time(grid)  user:     189.911  user+sys:     189.911  wallclock:      98.570
  
  start of program rwr
  
  end of program rwr
   
 Time(rwr)  user:      13.154  user+sys:      13.154  wallclock:      16.988
  
  start of program scf
  
 Energy computed using pseudospectral method.
 Convergence Criterion:
    Energy (econv):       1.00E-05
    RMS density (dconv):  5.00E-06
  
       i  u  d  i  g                   
       t  p  i  c  r                                 RMS    maximum
       e  d  i  u  i                       energy  density   DIIS  
       r  t  s  t  d       total energy    change  change    error 
  
etot    1  N  N  2  U   -1629.31290137378           8.6E-04  1.8E-02
etot    2  Y  Y  6  M   -1629.40232408140  8.9E-02  2.3E-04  4.5E-03
etot    3  N  Y  2  U   -1629.40236245015  3.8E-05  1.3E-04  4.4E-03
etot    4  Y  Y  6  M   -1629.40606623157  3.7E-03  3.7E-05  1.5E-03
etot    5  N  Y  2  U   -1629.40645534863  3.9E-04  1.8E-05  8.4E-04
etot    6  N  Y  2  U   -1629.40649121512  3.6E-05  9.2E-06  3.3E-04
etot    7  N  Y  2  U   -1629.40650514707  1.4E-05  3.3E-06  8.0E-05
etot    8  N  N  2  U   -1629.40650635893  1.2E-06  0.0E+00  0.0E+00
 
  Computing the dispersion energy correction and its gradients...
  
  
 Energy components, in hartrees:
   (A)  Nuclear repulsion............    3758.25895377099
   (E)  Total one-electron terms.....   -9758.41908745468
   (F)    Electron-nuclear...........  -11289.67217633147
   (H)    Kinetic....................    1531.25308887678
   (I)  Total two-electron terms.....    4370.75362732477
   (J)    Coulomb....................    4578.25346961528
   (K)    Exchange+Correlation.......    -207.49984229051
   (L)  Electronic energy............   -5387.66546012992  (E+I)
   (N0) D3 correction................      -0.12158988107
   (N)  Total energy.................   -1629.52809624000  (A+L+N0)
   (O)  Gas phase energy.............   -1629.52809624000
  
 SCFE: SCF energy: DFT(b3pw91-d3)     -1629.52809624000 hartrees   iterations:   8
  
 
 HOMO energy:    -0.19957
 LUMO energy:    -0.07576
 
  Orbital energies (hartrees): 
   -77.10306   -24.68233   -10.25036   -10.22825   -10.22002   -10.21761
   -10.21449   -10.19697   -10.19635   -10.19516   -10.19328   -10.19307
   -10.19293   -10.18785   -10.18063   -10.17913   -10.17750   -10.17703
   -10.17568   -10.17529   -10.17520   -10.17485   -10.17265   -10.17100
   -10.16769   -10.16580   -10.16431   -10.15966   -10.14337    -6.60265
    -4.76070    -4.75995    -4.75779    -3.34862    -2.08412    -2.07732
    -2.04687    -1.21392    -0.88853    -0.86711    -0.85695    -0.84272
    -0.82274    -0.79453    -0.77423    -0.76747    -0.75915    -0.74700
    -0.73376    -0.70637    -0.70429    -0.69775    -0.68682    -0.68262
    -0.67094    -0.66181    -0.63309    -0.62410    -0.61541    -0.60242
    -0.59421    -0.57944    -0.57147    -0.54493    -0.54107    -0.52189
    -0.49778    -0.48646    -0.48389    -0.48018    -0.47726    -0.47008
    -0.46927    -0.46234    -0.46076    -0.45691    -0.45191    -0.44801
    -0.44429    -0.43760    -0.43569    -0.42859    -0.42812    -0.42107
    -0.41668    -0.40701    -0.40228    -0.40010    -0.39675    -0.39367
    -0.39020    -0.38748    -0.38262    -0.37782    -0.37212    -0.36658
    -0.36154    -0.36053    -0.35665    -0.35110    -0.34641    -0.34325
    -0.33768    -0.33450    -0.33365    -0.32959    -0.32824    -0.32090
    -0.31227    -0.30666    -0.28211    -0.27571    -0.27276    -0.26915
    -0.25976    -0.25735    -0.25217    -0.24126    -0.22959    -0.21419
    -0.21146    -0.19957    -0.07576    -0.04895    -0.02916    -0.01458
    -0.00859     0.00069     0.00513     0.02235     0.02771     0.03317
 
  end of program scf
   
 Time(scf)  user:     253.106  user+sys:     253.106  wallclock:     135.639
  
  start of program der1a
  
  end of program der1a
   
 Time(der1a)  user:      17.862  user+sys:      17.862  wallclock:       9.457
  
  start of program rwr
  
  end of program rwr
   
 Time(rwr)  user:      13.887  user+sys:      13.887  wallclock:      17.964
  
  start of program der1b
  
   
  forces (hartrees/bohr) : total     
   
 atom  label           x              y              z
 ---- --------   -------------  -------------  -------------
    1 P1          4.162270E-03  -9.498672E-03   1.604008E-02
    2 Pd2         1.265315E-02   5.752859E-03   1.793711E-02
    3 Br3        -1.985107E-02  -1.261355E-04  -6.616502E-03
    4 C73        -5.359931E-03  -9.278353E-04  -1.286548E-03
    5 C74         6.170302E-04  -1.292418E-03   3.815114E-03
    6 C75         2.774118E-03   4.749156E-03   2.366336E-02
    7 C76        -2.839295E-03   1.248937E-02   1.254248E-02
    8 C77         1.915701E-03   2.515512E-03   8.706276E-03
    9 C78         3.379488E-04   7.380003E-04   3.671885E-04
   10 F79         4.980502E-03   1.425107E-03   2.520989E-04
   11 H80         6.420231E-04   8.746422E-04   6.575631E-04
   12 H82        -3.244239E-04  -1.037782E-04   2.005627E-03
   13 H83         6.646925E-04  -5.089381E-04  -8.268055E-05
   14 H14         1.865636E-03  -4.138710E-03   2.984527E-04
   15 C3         -5.844773E-03   1.632246E-03  -8.503943E-03
   16 C4         -3.488960E-03   2.263514E-02  -2.910854E-02
   17 C5         -1.577707E-02  -1.861410E-02  -1.622068E-02
   18 C6         -1.197865E-02   4.210277E-03   5.340757E-02
   19 C7         -3.295856E-03  -9.639457E-03   1.010205E-02
   20 C8          1.153833E-02   1.778240E-03   2.210430E-03
   21 C9          5.551589E-03   4.209417E-04  -6.033995E-03
   22 C10         4.231334E-03  -3.359557E-03   2.514164E-03
   23 C11         4.155036E-03   2.003685E-02  -3.030373E-04
   24 C12        -6.460941E-03  -1.220995E-02  -3.907746E-02
   25 C13         1.320102E-02   9.394985E-04  -4.530745E-03
   26 C14        -3.914053E-03   1.697366E-03  -4.006589E-03
   27 C15         2.082751E-03  -4.004003E-04   1.807056E-03
   28 C16        -1.076455E-04  -6.705104E-03  -1.235707E-02
   29 C17        -1.306007E-02  -6.766794E-03   9.046160E-03
   30 C18         9.961534E-03   1.884209E-03   1.605198E-02
   31 C19         6.175240E-03  -1.099755E-03  -1.307784E-02
   32 C20         1.190129E-02   2.404653E-04   5.317204E-03
   33 C21         5.037317E-03   1.820129E-03  -1.135699E-02
   34 C22        -1.096775E-02   3.371150E-03  -1.589182E-03
   35 C23        -6.458361E-03  -8.672845E-03  -3.326602E-03
   36 H24        -1.846113E-03   3.464756E-03  -9.798819E-03
   37 H25        -2.440619E-03  -2.974745E-03  -8.951672E-03
   38 H26        -2.702642E-03  -7.733595E-03  -4.589706E-03
   39 H27        -2.515455E-03   3.295955E-04  -7.140793E-03
   40 H28        -5.720373E-03  -1.477261E-03   1.120408E-02
   41 H29        -6.792942E-03   3.348704E-04   6.720145E-03
   42 H30        -1.932254E-03  -3.540780E-05   8.875543E-03
   43 H31         4.359310E-03  -5.280374E-03   6.273012E-03
   44 H32         4.137268E-03  -3.904954E-03  -8.718207E-03
   45 H33         9.792473E-03  -4.596249E-03   3.348352E-03
   46 H34         4.391818E-03   7.618202E-03   1.752089E-03
   47 H35         4.732555E-03  -2.901963E-03  -6.048250E-03
   48 H36        -7.589631E-03  -2.504619E-03   4.095188E-03
   49 H37         1.145069E-03  -1.043908E-02   7.908565E-04
   50 H38         1.591462E-03   7.363655E-03   3.258440E-03
   51 H39         1.497557E-03  -5.823256E-03   8.349375E-03
   52 H40        -1.036080E-02   1.234385E-03   5.791238E-04
   53 H41        -9.466836E-03  -1.467608E-04  -2.349624E-03
   54 H42         2.970593E-03   2.428191E-03  -6.585221E-03
   55 H43         3.803400E-04   1.035515E-02  -1.890589E-03
   56 H44        -3.950444E-03   4.328935E-03   5.094410E-03
   57 H45         2.665585E-03   6.890450E-03   6.837783E-03
   58 H46         3.270960E-03  -2.912637E-03   5.068869E-03
   59 H47        -3.106117E-03  -8.195088E-03  -4.580141E-02
   60 H48         4.301334E-03  -1.084490E-02   5.921082E-03
   61 H49         8.241466E-03   4.869270E-03  -4.872079E-04
   62 H50        -8.821812E-03   4.950612E-03  -5.281292E-03
   63 H51         1.750449E-02   1.262075E-03   2.273995E-03
   64 H52         4.709378E-03   9.046526E-03  -3.431819E-03
 -------------   -------------  -------------  -------------
     total        3.165292E-03  -1.475107E-04  -1.368704E-03
   
  end of program der1b
   
 Time(der1b)  user:      98.804  user+sys:      98.804  wallclock:      52.202
  
  start of program geopt
  
 ----------------------------------------------------------------------------
  Geometry optimization step  2
  Total energy:     -1629.52809624000 hartrees
 ----------------------------------------------------------------------------
  
  
  Level shifts adjusted to satisfy step-size constraints
   Step size:    0.3000060
   Cos(theta):   0.7248191
   Final level shift:  -4.3030565E-01
  
[...]
    C76      X     0.00005  -0.00071  -0.00130   0.00174   0.00004  -0.00003
    C76      Y    -0.00002   0.00016   0.00200   0.00149  -0.00000  -0.00001
    C76      Z    -0.00003   0.00072  -0.00039  -0.00026   0.00000   0.00000
    C77      X     0.00007  -0.00533  -0.01454   0.00511   0.00013   0.00001
    C77      Y     0.00022  -0.01704  -0.04505   0.01791   0.00042   0.00002
    C77      Z    -0.00005   0.00408   0.00997  -0.00373  -0.00009  -0.00000
    C78      X    -0.00027   0.01681   0.04073  -0.01372  -0.00027  -0.00002
    C78      Y     0.00026  -0.01690  -0.03993   0.01401   0.00026   0.00002
    C78      Z    -0.00001   0.00100   0.00234  -0.00092  -0.00002   0.00000
    F79      X    -0.00000  -0.00024  -0.00015   0.00052   0.00001   0.00001
    F79      Y    -0.00000  -0.00006  -0.00024   0.00004   0.00000   0.00000
    F79      Z    -0.00000   0.00005   0.00008  -0.00008  -0.00000   0.00000
    H80      X    -0.00017  -0.06387   0.08637   0.15491   0.00167   0.00009
    H80      Y    -0.00053  -0.21373   0.28544   0.51572   0.00549   0.00026
    H80      Z     0.00014   0.06056  -0.08142  -0.14728  -0.00157  -0.00008
    H82      X    -0.00067   0.05404   0.14305  -0.05514  -0.00126  -0.00007
    H82      Y    -0.00247   0.19381   0.51191  -0.20061  -0.00463  -0.00017
    H82      Z     0.00051  -0.04246  -0.11162   0.04352   0.00105   0.00004
    H83      X     0.00293  -0.18693  -0.44744   0.15283   0.00298   0.00022
    H83      Y    -0.00297   0.18902   0.45117  -0.15492  -0.00297  -0.00021
    H83      Z     0.00018  -0.01184  -0.02775   0.00957   0.00018   0.00001
    H14      X    -0.00069   0.15106  -0.19377  -0.39069  -0.00578  -0.00018
    H14      Y     0.00074  -0.15666   0.19947   0.40422   0.00601   0.00017
    H14      Z    -0.00015   0.01976  -0.02640  -0.05499  -0.00080  -0.00003
    C3       X     0.00002  -0.00001  -0.00000   0.00002  -0.00000  -0.00087
    C3       Y    -0.00002   0.00002   0.00001   0.00001  -0.00001   0.00024
    C3       Z     0.00007   0.00001  -0.00001   0.00003   0.00009   0.00258
    C4       X     0.00007   0.00002   0.00003   0.00000   0.00008   0.00005
    C4       Y    -0.00000   0.00003  -0.00001   0.00002   0.00000  -0.00003
    C4       Z    -0.00001   0.00007  -0.00001   0.00005  -0.00002  -0.00007
    C5       X     0.00000   0.00052  -0.00012   0.00026   0.00001   0.00008
    C5       Y     0.00001  -0.00002   0.00000  -0.00004   0.00000  -0.00000
    C5       Z     0.00000   0.00042  -0.00011   0.00025  -0.00001  -0.00006
    C6       X     0.00006   0.00003   0.00003  -0.00009  -0.00008  -0.00004
    C6       Y    -0.00143  -0.00001   0.00000   0.00000  -0.00187   0.00003
    C6       Z    -0.00072  -0.00000   0.00001  -0.00002  -0.00106   0.00003
    C7       X     0.00042  -0.00000  -0.00000   0.00001  -0.00004   0.00000
    C7       Y     0.00025   0.00001   0.00001  -0.00003  -0.00059  -0.00003
    C7       Z     0.00141  -0.00001  -0.00001   0.00005  -0.00021  -0.00002
    C8       X    -0.00539  -0.00003  -0.00001  -0.00001   0.00256   0.00001
    C8       Y     0.01669   0.00009   0.00003   0.00002  -0.00830  -0.00001
    C8       Z    -0.01324  -0.00007  -0.00002  -0.00003   0.00607   0.00002
    C9       X    -0.01728  -0.00005  -0.00003  -0.00013   0.01006   0.00001
    C9       Y    -0.01582  -0.00006  -0.00003  -0.00007   0.00664   0.00000
    C9       Z    -0.05540  -0.00016  -0.00009  -0.00039   0.03144   0.00003
    C10      X     0.00195   0.00000   0.00001   0.00002  -0.00147  -0.00000
    C10      Y    -0.01772   0.00012  -0.00007  -0.00062   0.05163   0.00004
    C10      Z    -0.00094   0.00006  -0.00001  -0.00017   0.01473   0.00000
    C11      X    -0.01120  -0.00011  -0.00006   0.00013  -0.01304  -0.00000
    C11      Y     0.03655   0.00035   0.00021  -0.00041   0.03830   0.00001
    C11      Z    -0.03461  -0.00037  -0.00022   0.00050  -0.04034  -0.00002
    C12      X    -0.00001   0.00001  -0.00001   0.00001   0.00006   0.00056
    C12      Y     0.00016   0.00000   0.00000  -0.00001   0.00017  -0.00004
    C12      Z     0.00002  -0.00001   0.00001  -0.00003  -0.00006   0.00044
    C13      X     0.00078  -0.00008   0.00002  -0.00006   0.00027   0.00073
    C13      Y    -0.00005   0.00000  -0.00000   0.00001  -0.00001  -0.00003
    C13      Z     0.00094  -0.00008   0.00001  -0.00003   0.00048   0.00089
    C14      X     0.00131  -0.00015  -0.00005   0.00008   0.00054   0.00182
    C14      Y    -0.00022   0.00002   0.00001  -0.00001  -0.00011  -0.00026
    C14      Z    -0.00049   0.00005   0.00001  -0.00002  -0.00025   0.00029
    C15      X     0.00009  -0.00000  -0.00001   0.00002   0.00004   0.00451
    C15      Y    -0.00004  -0.00000   0.00000  -0.00001  -0.00001  -0.00119
    C15      Z    -0.00066   0.00006   0.00005  -0.00009  -0.00017  -0.01107
    C16      X     0.00002  -0.00018   0.00003  -0.00006   0.00005  -0.06028
    C16      Y     0.00000   0.00001  -0.00000   0.00001  -0.00001   0.00609
    C16      Z     0.00010  -0.00017   0.00002  -0.00004   0.00010  -0.05558
    C17      X    -0.00002   0.00002   0.00037  -0.00022  -0.00003  -0.00001
    C17      Y     0.00000   0.00042   0.00050  -0.00019   0.00001  -0.00001
    C17      Z     0.00004   0.00337  -0.00270   0.00270   0.00006  -0.00004
    C18      X     0.00193   0.00014   0.00034  -0.00017   0.00157   0.00004
    C18      Y    -0.00004   0.00003   0.00017  -0.00008  -0.00000   0.00007
    C18      Z    -0.00032  -0.00028  -0.00065   0.00027  -0.00024  -0.00010
    C19      X     0.00009   0.00009   0.00009  -0.00002   0.00003   0.00132
    C19      Y     0.00001   0.00007  -0.00001   0.00001   0.00003  -0.00004
    C19      Z     0.00002   0.00006  -0.00001   0.00001   0.00001  -0.00012
    C20      X     0.00002   0.00013  -0.00018  -0.00035  -0.00004   0.00006
    C20      Y     0.00001   0.00019   0.00006   0.00035  -0.00001  -0.00005
    C20      Z     0.00001  -0.00013   0.00054   0.00139   0.00001  -0.00014
    C21      X     0.00003  -0.00020   0.00008  -0.00010  -0.00003   0.00348
    C21      Y    -0.00000   0.00052  -0.00018   0.00023   0.00000  -0.00150
    C21      Z     0.00000  -0.00015   0.00007  -0.00008  -0.00000  -0.00014
    C22      X     0.00002  -0.00056   0.00021  -0.00052  -0.00001  -0.00001
    C22      Y    -0.00009   0.01648  -0.00375   0.00844   0.00004  -0.00005
    C22      Z    -0.00034   0.07309  -0.01552   0.03725   0.00016  -0.00018
    C23      X    -0.00008  -0.00001  -0.00000  -0.00001   0.00008   0.00004
    C23      Y     0.00021   0.00001   0.00000  -0.00001  -0.00013  -0.00001
    C23      Z    -0.00047  -0.00002   0.00000  -0.00001  -0.00002  -0.00000
    H24      X     0.06131   0.00036   0.00009   0.00006  -0.02870  -0.00011
    H24      Y    -0.16574  -0.00092  -0.00026  -0.00021   0.07811   0.00024
    H24      Z     0.15626   0.00088   0.00025   0.00016  -0.07273  -0.00029
    H25      X     0.19178   0.00056   0.00032   0.00130  -0.10415  -0.00009
    H25      Y     0.17459   0.00053   0.00029   0.00114  -0.09155  -0.00008
    H25      Z     0.62131   0.00183   0.00107   0.00419  -0.33650  -0.00030
    H26      X    -0.00842   0.00005  -0.00002  -0.00023   0.01847   0.00001
    H26      Y     0.18811  -0.00130   0.00075   0.00686  -0.56393  -0.00047
    H26      Z     0.04721  -0.00039   0.00020   0.00190  -0.15712  -0.00017
    H27      X     0.13236   0.00133   0.00083  -0.00168   0.14323  -0.00002
    H27      Y    -0.41982  -0.00420  -0.00255   0.00529  -0.44802   0.00001
    H27      Z     0.40761   0.00410   0.00250  -0.00524   0.44084   0.00008
    H28      X    -0.00981   0.00089  -0.00021   0.00067  -0.00384  -0.00809
    H28      Y     0.00058  -0.00005   0.00001  -0.00005   0.00031   0.00043
    H28      Z    -0.00899   0.00080  -0.00016   0.00055  -0.00379  -0.00748
    H29      X    -0.01466   0.00168   0.00051  -0.00090  -0.00626  -0.01376
    H29      Y     0.00241  -0.00027  -0.00009   0.00014   0.00105   0.00221
    H29      Z     0.00481  -0.00056  -0.00016   0.00029   0.00212   0.00332
    H30      X    -0.00122   0.00013   0.00009  -0.00018  -0.00029  -0.02339
    H30      Y     0.00052  -0.00005  -0.00004   0.00007   0.00015   0.00874
    H30      Z     0.00714  -0.00070  -0.00053   0.00099   0.00190   0.11134
    H31      X    -0.00070   0.00220  -0.00030   0.00060  -0.00074   0.69582
    H31      Y     0.00003  -0.00024   0.00002  -0.00008   0.00003  -0.06815
    H31      Z    -0.00066   0.00200  -0.00028   0.00055  -0.00055   0.63655
    H32      X     0.00011   0.00909  -0.00986   0.00890   0.00017  -0.00039
    H32      Y     0.00010   0.00796  -0.00976   0.00840   0.00019  -0.00025
    H32      Z    -0.00030  -0.02133   0.02270  -0.02087  -0.00046   0.00062
    H33      X    -0.00009   0.00004   0.00107  -0.00068   0.00000   0.00027
    H33      Y     0.00008   0.00020  -0.00284   0.00193  -0.00011  -0.00028
    H33      Z    -0.00003  -0.00009  -0.00014  -0.00002   0.00001   0.00002
    H34      X    -0.00003  -0.01015   0.00461  -0.00598  -0.00002   0.00019
    H34      Y    -0.00010  -0.01690   0.00805  -0.01018  -0.00012   0.00023
    H34      Z    -0.00014  -0.01912   0.01031  -0.01195  -0.00017   0.00029
    H35      X     0.00031  -0.00122  -0.00283   0.00121   0.00063  -0.00037
    H35      Y    -0.00057  -0.00048  -0.00104   0.00048  -0.00034  -0.00018
    H35      Z     0.00323   0.00324   0.00812  -0.00357   0.00213   0.00090
    H36      X    -0.02590  -0.00104  -0.00287   0.00154  -0.02267  -0.00052
    H36      Y    -0.00163  -0.00002  -0.00022   0.00013  -0.00125   0.00000
    H36      Z     0.00000  -0.00003  -0.00003   0.00003  -0.00027  -0.00009
    H37      X    -0.00124   0.00005   0.00048  -0.00025  -0.00071   0.00027
    H37      Y     0.00342  -0.00001  -0.00065   0.00044   0.00241  -0.00050
    H37      Z    -0.00166  -0.00001   0.00013  -0.00008  -0.00122   0.00021
    H38      X    -0.00013  -0.00022   0.00006  -0.00003  -0.00012  -0.00011
    H38      Y    -0.00032  -0.00080   0.00008  -0.00013  -0.00024   0.00645
    H38      Z    -0.00028  -0.00085   0.00013  -0.00018  -0.00023   0.00385
    H39      X    -0.00011  -0.00002  -0.00008   0.00003   0.00008  -0.00418
    H39      Y     0.00023   0.00017   0.00027  -0.00006  -0.00010   0.00551
    H39      Z    -0.00005  -0.00008  -0.00012   0.00004   0.00004  -0.00114
    H40      X    -0.00093  -0.00067  -0.00148   0.00059  -0.00038  -0.01735
    H40      Y    -0.00013  -0.00013  -0.00022   0.00008  -0.00001  -0.00316
    H40      Z     0.00018  -0.00002   0.00024  -0.00013   0.00011   0.00090
    H41      X    -0.00018  -0.00253   0.00231   0.00369   0.00040  -0.00101
    H41      Y     0.00002  -0.00015   0.00008   0.00002  -0.00002  -0.00010
    H41      Z     0.00004   0.00026  -0.00055  -0.00116  -0.00015   0.00000
    H42      X     0.00003  -0.00076   0.00068   0.00126  -0.00005  -0.00031
    H42      Y     0.00000   0.00055  -0.00046  -0.00077   0.00000   0.00007
    H42      Z    -0.00013   0.00068  -0.00602  -0.01653  -0.00009   0.00134
    H43      X    -0.00009  -0.00047  -0.00030  -0.00127   0.00007   0.00039
    H43      Y    -0.00021  -0.00158  -0.00033  -0.00265   0.00011   0.00067
    H43      Z    -0.00008  -0.00032  -0.00009  -0.00054   0.00005   0.00015
    H44      X    -0.00024   0.00597  -0.00159   0.00296   0.00018  -0.03911
    H44      Y     0.00008  -0.00133   0.00035  -0.00069  -0.00005   0.00666
    H44      Z     0.00008  -0.00231   0.00056  -0.00113  -0.00006   0.01124
    H45      X    -0.00009  -0.00187   0.00047  -0.00075   0.00005  -0.00498
    H45      Y    -0.00013  -0.00412   0.00097  -0.00180   0.00006  -0.00553
    H45      Z    -0.00004  -0.00192   0.00044  -0.00082  -0.00001  -0.00073
    H46      X    -0.00001   0.00106  -0.00057   0.00034   0.00004  -0.00502
    H46      Y     0.00006  -0.00152   0.00113  -0.00038  -0.00009   0.00819
    H46      Z    -0.00003   0.00059  -0.00076  -0.00007   0.00007  -0.00633
    H47      X    -0.00081   0.16903  -0.03622   0.08692   0.00038  -0.00067
    H47      Y     0.00122  -0.25436   0.05465  -0.13095  -0.00058   0.00082
    H47      Z     0.00342  -0.71502   0.15360  -0.36761  -0.00162   0.00226
    H48      X     0.00056  -0.13998   0.02853  -0.06968  -0.00024   0.00034
    H48      Y    -0.00063   0.15493  -0.03173   0.07734   0.00026  -0.00040
    H48      Z     0.00070  -0.17559   0.03559  -0.08730  -0.00030   0.00048
    H49      X     0.00010  -0.02841   0.00647  -0.01379  -0.00005   0.00032
    H49      Y     0.00040  -0.09601   0.02182  -0.04675  -0.00018   0.00058
    H49      Z    -0.00002   0.00463  -0.00082   0.00280   0.00001  -0.00003
    H50      X    -0.00074  -0.00000   0.00004  -0.00016  -0.00106  -0.00026
    H50      Y    -0.00018   0.00000  -0.00002   0.00005   0.00065   0.00012
    H50      Z     0.00061  -0.00001  -0.00004   0.00014   0.00133   0.00030
    H51      X     0.00021   0.00009  -0.00006   0.00018   0.00027  -0.00021
    H51      Y    -0.00043   0.00003  -0.00001   0.00007   0.00047  -0.00008
    H51      Z    -0.00004   0.00004  -0.00003  -0.00004   0.00018  -0.00006
    H52      X     0.00103   0.00006   0.00000   0.00001  -0.00035  -0.00005
    H52      Y    -0.00320  -0.00014  -0.00000   0.00006   0.00142   0.00010
    H52      Z     0.00381   0.00020  -0.00000  -0.00002  -0.00110  -0.00012
  
  Number of imaginary frequencies:   0
   
  Writing vibrational animation data to ox_add_Ar_trans_L1_PL154_2.vib
  Writing IR vibrational spectrum data to ox_add_Ar_trans_L1_PL154_2_vib.spm
  rotational symmetry number:  1

  rotational temperatures (K):      0.007084      0.005549      0.003932
   
  The Quasi-Harmonic approximation will be applied to compute
  vibrational constributions to thermodynamic properties.
  Frequencies will be adjusted to a minimum value of  100.00 cm^-1.

  vibrational temperatures:
       mode:      1        2        3        4        5        6
  temp. (K):   143.88   143.88   143.88   143.88   143.88   143.88
   
       mode:      7        8        9       10       11       12
  temp. (K):   143.88   143.88   143.88   149.30   153.69   166.78
   
       mode:     13       14       15       16       17       18
  temp. (K):   174.82   188.91   193.93   198.73   225.30   238.69
   
       mode:     19       20       21       22       23       24
  temp. (K):   254.81   270.32   296.76   308.09   311.13   340.34
   
       mode:     25       26       27       28       29       30
  temp. (K):   341.40   349.04   360.47   379.22   394.16   404.94
   
       mode:     31       32       33       34       35       36
  temp. (K):   422.63   434.26   449.45   473.05   485.73   507.46
   
       mode:     37       38       39       40       41       42
  temp. (K):   522.81   530.57   539.49   569.82   585.67   587.54
   
       mode:     43       44       45       46       47       48
  temp. (K):   591.10   601.11   615.37   618.38   628.35   666.76
   
       mode:     49       50       51       52       53       54
  temp. (K):   704.13   737.86   744.51   755.15   769.67   797.94
   
       mode:     55       56       57       58       59       60
  temp. (K):   838.38   841.76   851.40   885.31   909.52   910.04
   
       mode:     61       62       63       64       65       66
  temp. (K):   988.93  1013.21  1052.00  1089.06  1110.60  1116.27
   
       mode:     67       68       69       70       71       72
  temp. (K):  1151.96  1183.12  1187.77  1193.96  1196.84  1198.81
   
       mode:     73       74       75       76       77       78
  temp. (K):  1206.42  1291.69  1320.95  1361.42  1375.73  1378.79
   
       mode:     79       80       81       82       83       84
  temp. (K):  1386.73  1387.99  1390.18  1394.03  1414.23  1418.91
   
       mode:     85       86       87       88       89       90
  temp. (K):  1441.44  1451.43  1464.82  1476.03  1477.83  1477.91
   
       mode:     91       92       93       94       95       96
  temp. (K):  1501.98  1513.05  1515.70  1523.76  1540.45  1542.84
   
       mode:     97       98       99      100      101      102
  temp. (K):  1556.69  1565.82  1597.99  1622.57  1660.28  1681.79
   
       mode:    103      104      105      106      107      108
  temp. (K):  1721.10  1740.50  1742.51  1744.21  1748.50  1769.87
   
       mode:    109      110      111      112      113      114
  temp. (K):  1774.10  1785.17  1789.88  1797.41  1843.02  1848.02
   
       mode:    115      116      117      118      119      120
  temp. (K):  1876.07  1898.11  1900.34  1930.73  1956.62  1973.85
   
       mode:    121      122      123      124      125      126
  temp. (K):  2043.41  2049.23  2050.82  2053.71  2060.61  2072.56
   
       mode:    127      128      129      130      131      132
  temp. (K):  2092.36  2105.77  2115.84  2135.19  2155.70  2162.12
   
       mode:    133      134      135      136      137      138
  temp. (K):  2165.97  2172.26  2173.98  2174.61  2179.68  2191.57
   
       mode:    139      140      141      142      143      144
  temp. (K):  2194.88  2197.50  2200.46  2205.25  2208.18  2212.53
   
       mode:    145      146      147      148      149      150
  temp. (K):  2221.77  2226.30  2244.87  2341.37  2348.17  2366.01
   
       mode:    151      152      153      154      155      156
  temp. (K):  2376.02  2381.61  2390.28  4379.28  4382.96  4384.59
   
       mode:    157      158      159      160      161      162
  temp. (K):  4387.36  4394.25  4395.27  4403.20  4481.13  4486.69
   
       mode:    163      164      165      166      167      168
  temp. (K):  4488.62  4490.60  4494.92  4500.25  4517.23  4523.94
   
       mode:    169      170      171      172      173      174
  temp. (K):  4528.22  4537.62  4539.33  4549.63  4571.94  4591.50
   
       mode:    175      176      177      178      179      180
  temp. (K):  4591.69  4605.58  4609.42  4610.47  4612.54  4626.35
   
       mode:    181      182      183      184      185      186
  temp. (K):  4628.40  4631.65  4632.97  4635.85  4643.30  4704.62
   
   
  Thermodynamic properties calculated assuming an ideal gas

  In the table below, the units for temperature
  are kelvins, the units for U, H, and G are
  kcal/mol and the units for Cv and S are cal/(mol K)

  The zero point energy (ZPE):    336.498 kcal/mol
  is not included in U, H, or G in the table below
  
 
  =============================================================================
  Thermodynamic properties for P = 1.00E+00 atm, calculated at   1 temperatures


  T =   298.15 K, P = 1.00E+00 atm
   
                  U         Cv          S          H          G        ln(Q)
              =========  =========  =========  =========  =========  =========
  trans.          0.889      2.981     45.019      1.481    -11.941   20.15452
  rot.            0.889      2.981     36.684      0.889    -10.049   16.96012
  vib.           18.543    121.350    112.096     18.543    -14.879   25.11208
  elec.           0.000      0.000      0.000      0.000      0.000    0.00000
  ----------------------------------------------------------------------------
  total          20.320    127.312    193.799     20.913    -36.868   62.22671
   
   Total internal energy, Utot(SCFE + ZPE + U):   -1629.059449 hartrees
   Total enthalpy, Htot (Utot + nRT), with n=1:   -1629.058504 hartrees
    Total Gibbs free energy, Gtot (Htot - T*S):   -1629.150585 hartrees
   
  end of program freq
   
 Time(freq)  user:       0.341  user+sys:       0.341  wallclock:       0.439
  
  start of program post
  
  Writing input files for PBF
  end of program post
   
 Time(post)  user:       0.183  user+sys:       0.183  wallclock:       0.121

 Total cpu seconds     user:   55650.719   user+sys:   55650.719
  
 Total elapsed time:    32316 seconds

Job ox_add_Ar_trans_L1_PL154_2 completed on bp1-compute064.data.bp.acrc.priv at Wed Apr 23 01:13:43 2025
