Job ox_add_L_trans_L1_PL154 started on bp1-compute145.data.bp.acrc.priv at Mon Mar 24 14:54:25 2025
jobid: bp1-compute145-0-67e17219

  +--------------------------------------------------------------------+
  |  Jaguar version 12.5, release 138                                  |
  |                                                                    |
  |  Copyright Schrodinger, Inc.                                       |
  |  All Rights Reserved.                                              |
  |                                                                    |
  |  The following have contributed to Jaguar (listed alphabetically): |
  |  Ty Balduf, Mike Beachy, Chandler Bennett, Art Bochevarov,         |
  |  Dale Braden, Yixiang Cao, Alan Chien, Chris Cortis,               |
  |  Rich Friesner, Jim Furness, Bill Goddard, Hod Greeley,            |
  |  Tom Hughes, Leif Jacobson, Jean-Marc Langlois, Daniel Levine,     |
  |  Rob Murphy, Dean Philipp, Tom Pollard, Murco Ringnalda,           |
  |  Daniel Mainz, Pablo Videla, Mark Watson, Haoyu Yu.                |
  |                                                                    |
  |  Use of this program should be acknowledged in publications as:    |
  |                                                                    |
  |  Jaguar, version 12.5, Schrodinger, Inc., New York, NY, 2024.      |
  |                                                                    |
  |  A. D. Bochevarov, E. Harder, T. F. Hughes, J. R. Greenwood,       |
  |  D. A. Braden, D. M. Philipp, D. Rinaldo, M. D. Halls,             |
  |  J. Zhang, R. A. Friesner, "Jaguar: A High-Performance Quantum     |
  |  Chemistry Software Program with Strengths in Life and Materials   |
  |  Sciences", Int. J. Quantum Chem., 2013, 113(18), 2110-2142.       |
  +--------------------------------------------------------------------+
  
  start of program pre
  
  Job name: ox_add_L_trans_L1_PL154
  Executables used: /software/local/apps/schrodinger2024-3/jaguar-v12.5/bin/Linux-x86_64
  Temporary files : /tmp/ar21627/ox_add_L_trans_L1_PL154#bp1-compute145-0-67e17219
  Basis file : using default basis file from /software/local/apps/schrodinger2024-3
  Maestro file (input):  ox_add_L_trans_L1_PL154.mae
  Maestro file (output): ox_add_L_trans_L1_PL154.01.mae
  
 Contents of input file: &gen and (if present) &atomic sections only
 ----------------Contents start----------------
&gen
dftname=b3pw91-d3
basis=6-31G*
numd=5
ip11=2
iaccg=3
isolv=2
igeopt=1
solvent=benzene
ifreq=1
&
&atomic
atom basis
Pd2 lacv3p*
Br3 lacv3p*
&
 -----------------Contents end-----------------
 
  PS calculation requested. Using PS version of 6-31g*
  basis set:               non_standard                    
  net molecular charge:    0
  multiplicity:            1
  
  Using up to   4 threads per process
  
  This run will use ECP on            2  atoms
  number of basis functions....          516
  
 Input geometry:
                                   angstroms
  atom               x                 y                 z
  P1            0.0000000000      0.0000000000      0.0000000000 
  Pd2           0.0000000000      0.0000000000      2.2562152928 
  Br3           2.5621400489      0.0000000000      2.3261133603 
  C73          -4.7377864855      0.0090707826      2.0643448706 
  C74          -4.0640249196     -1.1992507029      1.9871001104 
  C75          -2.6697006388     -1.1994924065      2.0655625530 
  C76          -1.9687090155     -0.0023242019      2.2319228250 
  C77          -2.6765757767      1.2010269609      2.3029692476 
  C78          -4.0683465600      1.2123558804      2.2222149763 
  F79          -6.0880118093      0.0147620914      1.9758937787 
  H80          -4.6263479161     -2.1200643995      1.8636164403 
  H81          -2.1308120737     -2.1364076000      1.9780796589 
  H82          -2.1436398054      2.1409696449      2.3988099038 
  H83          -4.6330988249      2.1380452372      2.2707200520 
  C3            1.8168740000      0.0000000000     -0.5778410000 
  C4           -0.8434890000      1.4252840000     -0.9715180000 
  C5           -0.8972560000     -1.6587410000     -0.3454820000 
  C6            3.1495210000      1.3984640000      1.1560820000 
  C7            3.8588263281      1.1355513573      2.3736813746 
  C8            3.8867198551      2.0949863329      3.4109786919 
  C9            3.2436713859      3.3334635638      3.3380250593 
  C10           2.5408797757      3.6173351334      2.1694795371 
  C11           2.5256422589      2.6599211623      1.1483858364 
  C12           3.0135280000      0.5741960000     -0.0169290000 
  C13           4.1905000000      0.2861180000     -0.7490990000 
  C14           4.2768280000     -0.4722710000     -1.9225270000 
  C15           3.1083040000     -1.0053740000     -2.4560800000 
  C16           1.9211360000     -0.7480340000     -1.7680690000 
  C17          -2.3917700000      1.4641300000     -0.9448800000 
  C18          -0.3788420000      2.8361950000     -0.5323130000 
  C19          -0.4455240000      1.3408580000     -2.4674050000 
  C20          -0.0177960000     -2.8755410000      0.0296550000 
  C21          -1.4453590000     -1.9535040000     -1.7679970000 
  C22          -2.1262300000     -1.7392700000      0.5941800000 
  C23           4.5637188704     -0.1496340805      2.7549693092 
  H24           4.4281014864      1.8864358777      4.3488201825 
  H25           3.2854925696      4.0574705499      4.1691033164 
  H26           2.0157266420      4.5805592357      2.0515936415 
  H27           1.9883373856      2.9823097538      0.2660395240 
  H28           5.1648570000      0.6855070000     -0.4721570000 
  H29           5.2430580000     -0.6375380000     -2.4300450000 
  H30           3.1237660000     -1.6027090000     -3.3835720000 
  H31           1.0324530000     -1.1846760000     -2.2280190000 
  H32          -2.8081380000      1.6140360000      0.0705490000 
  H33          -2.7931410000      2.3029860000     -1.5580800000 
  H34          -2.8583580000      0.5482850000     -1.3582140000 
  H35          -0.6553110000      3.0576040000      0.5218020000 
  H36           0.7195950000      2.9676930000     -0.6585650000 
  H37          -0.8498760000      3.6399150000     -1.1432090000 
  H38          -0.7462210000      0.3798070000     -2.9348810000 
  H39          -0.9210170000      2.1442960000     -3.0752880000 
  H40           0.6524840000      1.4549820000     -2.6096750000 
  H41           0.9648250000     -2.8622550000     -0.4905250000 
  H42           0.1711760000     -2.9295420000      1.1223420000 
  H43          -0.5069560000     -3.8419160000     -0.2300880000 
  H44          -0.6634350000     -2.0908620000     -2.5422720000 
  H45          -2.0275400000     -2.9029450000     -1.7892070000 
  H46          -2.1492470000     -1.1796830000     -2.1325550000 
  H47          -1.8356470000     -1.6862910000      1.6668530000 
  H48          -2.8513880000     -0.9189660000      0.4051340000 
  H49          -2.6842430000     -2.6960970000      0.4765580000 
  H50           5.6022699500     -0.1875264494      2.3540258547 
  H51           3.9615378474     -1.0487278623      2.4922235730 
  H52           4.6795764486     -0.2577548218      3.8570505592 
   
  principal moments of inertia:
        amu*angstrom^2:              2674.36266              5186.38642              6020.22889
                g*cm^2:          4.44088312E-37          8.61219619E-37          9.99682402E-37
   
  rotational constants:
               cm^(-1):      0.00630342      0.00325036      0.00280016
                   GHz:      0.18897176      0.09744338      0.08394681
   
  Molecular weight:     592.05 amu
   
  Stoichiometry: PdC27PH33BrF
  Molecular Point Group: C1      
  Point Group used: C1
  
 
Number of optimization coordinates:   246
Number of independent coordinates:    246
Number of non-redundant coordinates:  186
Number of frozen coordinates:           0
Number of harmonic constraints:         0
 
Number of geometric degrees of freedom:   186
Maximum geometric degrees of freedom:     186
 " " " " " excluding dummy atoms:         186
 
 
  bond lengths (angstroms):
 
 P1      -Pd2     :   2.256215      P1      -C3      :   1.906550
 P1      -C4      :   1.920093      P1      -C5      :   1.917250
 Pd2     -Br3     :   2.563093      Pd2     -C76     :   1.968860
 Br3     -C6      :   1.915644      Br3     -C7      :   1.724278
 Br3     -C23     :   2.052468      C73     -C74     :   1.385627
 C73     -C78     :   1.385990      C73     -F79     :   1.353131
 C74     -C75     :   1.396530      C74     -H80     :   1.085980
 C75     -C76     :   1.397239      C75     -H81     :   1.084373
 C75     -C22     :   1.658821      C75     -H47     :   1.044791
 C76     -C77     :   1.397919      C77     -C78     :   1.394158
 C77     -H82     :   1.084757      C78     -H83     :   1.085449
 H81     -H47     :   0.621763      C3      -C12     :   1.440939
 C3      -C16     :   1.409634      C4      -C17     :   1.548997
 C4      -C18     :   1.549022      C4      -C19     :   1.550220
 C5      -C20     :   1.547508      C5      -C21     :   1.552692
 C5      -C22     :   1.549137      C6      -C7      :   1.433452
 C6      -C11     :   1.407323      C6      -C12     :   1.440093
 C7      -C8      :   1.413251      C7      -C23     :   1.514581
 C8      -C9      :   1.397376      C8      -H24     :   1.102785
 C9      -C10     :   1.392838      C9      -H25     :   1.103008
 C10     -C11     :   1.399824      C10     -H26     :   1.103396
 C11     -H27     :   1.082204      C12     -C13     :   1.415742
 C13     -C14     :   1.399836      C13     -H28     :   1.088843
 C14     -C15     :   1.390800      C14     -H29     :   1.103851
 C15     -C16     :   1.396048      C15     -H30     :   1.103308
 C16     -H31     :   1.091773      C17     -H32     :   1.107669
 C17     -H33     :   1.113909      C17     -H34     :   1.107845
 C18     -H35     :   1.112032      C18     -H36     :   1.113461
 C18     -H37     :   1.114017      C19     -H38     :   1.110212
 C19     -H39     :   1.114059      C19     -H40     :   1.113053
 C20     -H41     :   1.111894      C20     -H42     :   1.110221
 C20     -H43     :   1.113833      C21     -H44     :   1.108952
 C21     -H45     :   1.113922      C21     -H46     :   1.107772
 C22     -H47     :   1.112597      C22     -H48     :   1.111077
 C22     -H49     :   1.113881      C23     -H50     :   1.113903
 C23     -H51     :   1.113565      C23     -H52     :   1.113416
 
  bond angles:
 
 C3      -P1      -Pd2     : 107.642814  C4      -P1      -Pd2     : 120.396068
 C4      -P1      -C3      : 105.383690  C5      -P1      -Pd2     : 100.381213
 C5      -P1      -C3      : 113.039431  C5      -P1      -C4      : 110.209354
 Br3     -Pd2     -P1      :  91.562706  C76     -Pd2     -P1      :  89.293047
 C76     -Pd2     -Br3     : 179.141579  C6      -Br3     -Pd2     : 106.849139
 C7      -Br3     -Pd2     : 138.806493  C7      -Br3     -C6      :  46.012236
 C23     -Br3     -Pd2     : 168.678557  C23     -Br3     -C6      :  83.212973
 C23     -Br3     -C7      :  46.280924  C78     -C73     -C74     : 121.909126
 F79     -C73     -C74     : 119.027529  F79     -C73     -C78     : 119.062389
 C75     -C74     -C73     : 118.848879  H80     -C74     -C73     : 119.601754
 H80     -C74     -C75     : 121.548898  C76     -C75     -C74     : 120.493887
 H81     -C75     -C74     : 119.458344  H81     -C75     -C76     : 120.038367
 C22     -C75     -C74     : 106.100803  C22     -C75     -C76     : 102.711734
 C22     -C75     -H81     :  58.967424  H47     -C75     -C74     : 140.866389
 H47     -C75     -C76     :  92.530174  H47     -C75     -H81     :  33.893201
 H47     -C75     -C22     :  41.266454  C75     -C76     -Pd2     : 120.274260
 C77     -C76     -Pd2     : 120.310758  C77     -C76     -C75     : 119.311759
 C78     -C77     -C76     : 120.634266  H82     -C77     -C76     : 120.106568
 H82     -C77     -C78     : 119.244040  C77     -C78     -C73     : 118.797858
 H83     -C78     -C73     : 119.615841  H83     -C78     -C77     : 121.583776
 H47     -H81     -C75     :  69.562124  C12     -C3      -P1      : 132.332083
 C16     -C3      -P1      : 109.049994  C16     -C3      -C12     : 118.601565
 C17     -C4      -P1      : 116.680003  C18     -C4      -P1      : 113.633317
 C18     -C4      -C17     : 105.789550  C19     -C4      -P1      : 109.575020
 C19     -C4      -C17     : 105.935583  C19     -C4      -C18     : 104.252746
 C20     -C5      -P1      : 111.754645  C21     -C5      -P1      : 119.639032
 C21     -C5      -C20     : 105.868645  C22     -C5      -P1      : 107.875063
 C22     -C5      -C20     : 105.244514  C22     -C5      -C21     : 105.414608
 C7      -C6      -Br3     :  59.935436  C11     -C6      -Br3     : 121.450992
 C11     -C6      -C7      : 112.855389  C12     -C6      -Br3     :  92.906236
 C12     -C6      -C7      : 129.318543  C12     -C6      -C11     : 117.822169
 C6      -C7      -Br3     :  74.052328  C8      -C7      -Br3     : 118.827995
 C8      -C7      -C6      : 120.577643  C23     -C7      -Br3     :  78.352836
 C23     -C7      -C6      : 126.852870  C23     -C7      -C8      : 112.463886
 C9      -C8      -C7      : 123.661511  H24     -C8      -C7      : 120.364684
 H24     -C8      -C9      : 115.971317  C10     -C9      -C8      : 117.169856
 H25     -C9      -C8      : 121.666137  H25     -C9      -C10     : 121.163760
 C11     -C10     -C9      : 118.559909  H26     -C10     -C9      : 120.510758
 H26     -C10     -C11     : 120.927422  C10     -C11     -C6      : 127.174781
 H27     -C11     -C6      : 119.444547  H27     -C11     -C10     : 113.352565
 C6      -C12     -C3      : 128.578123  C13     -C12     -C3      : 114.079668
 C13     -C12     -C6      : 117.336141  C14     -C13     -C12     : 126.514616
 H28     -C13     -C12     : 122.531223  H28     -C13     -C14     : 110.900352
 C15     -C14     -C13     : 118.517836  H29     -C14     -C13     : 121.365931
 H29     -C14     -C15     : 120.110049  C16     -C15     -C14     : 117.048897
 H30     -C15     -C14     : 121.214686  H30     -C15     -C16     : 121.736280
 C15     -C16     -C3      : 125.228312  H31     -C16     -C3      : 120.513439
 H31     -C16     -C15     : 114.258064  H32     -C17     -C4      : 113.258537
 H33     -C17     -C4      : 111.689655  H33     -C17     -H32     : 105.503065
 H34     -C17     -C4      : 113.192670  H34     -C17     -H32     : 107.193094
 H34     -C17     -H33     : 105.391539  H35     -C18     -C4      : 112.058038
 H36     -C18     -C4      : 111.797889  H36     -C18     -H35     : 109.222001
 H37     -C18     -C4      : 112.013244  H37     -C18     -H35     : 105.726505
 H37     -C18     -H36     : 105.648678  H38     -C19     -C4      : 112.576983
 H39     -C19     -C4      : 112.189921  H39     -C19     -H38     : 106.196471
 H40     -C19     -C4      : 111.777365  H40     -C19     -H38     : 107.585060
 H40     -C19     -H39     : 106.102308  H41     -C20     -C5      : 112.298348
 H42     -C20     -C5      : 111.935505  H42     -C20     -H41     : 108.095584
 H43     -C20     -C5      : 112.091550  H43     -C20     -H41     : 106.820756
 H43     -C20     -H42     : 105.192635  H44     -C21     -C5      : 114.473937
 H45     -C21     -C5      : 111.330423  H45     -C21     -H44     : 104.456631
 H46     -C21     -C5      : 113.153150  H46     -C21     -H44     : 107.744798
 H46     -C21     -H45     : 104.894240  C5      -C22     -C75     : 141.355000
 H47     -C22     -C75     :  38.269788  H47     -C22     -C5      : 112.032471
 H48     -C22     -C75     :  72.353232  H48     -C22     -C5      : 112.097904
 H48     -C22     -H47     : 107.418253  H49     -C22     -C75     : 102.066978
 H49     -C22     -C5      : 112.211684  H49     -C22     -H47     : 105.875619
 H49     -C22     -H48     : 106.814392  C7      -C23     -Br3     :  55.366240
 H50     -C23     -Br3     : 146.773103  H50     -C23     -C7      : 111.849660
 H51     -C23     -Br3     :  58.815306  H51     -C23     -C7      : 111.964901
 H51     -C23     -H50     : 113.066083  H52     -C23     -Br3     : 108.383439
 H52     -C23     -C7      : 112.334273  H52     -C23     -H50     : 104.830478
 H52     -C23     -H51     : 102.205211  H81     -H47     -C75     :  76.544676
 C22     -H47     -C75     : 100.463758  C22     -H47     -H81     : 108.913199
 
  torsional angles:
 
 P1      -Pd2     -Br3     -C6      :  49.708796
 P1      -Pd2     -Br3     -C7      :  90.614959
 P1      -Pd2     -Br3     -C23     :-158.199976
 P1      -Pd2     -C76     -C75     :  82.491527
 P1      -Pd2     -C76     -C77     : -93.789362
 P1      -C3      -C12     -C6      :  -3.538704
 P1      -C3      -C12     -C13     : 177.391602
 P1      -C3      -C16     -C15     :-177.644279
 P1      -C3      -C16     -H31     :   2.190069
 P1      -C4      -C17     -H32     :  62.775020
 P1      -C4      -C17     -H33     :-178.274494
 P1      -C4      -C17     -H34     : -59.513232
 P1      -C4      -C18     -H35     : -63.928460
 P1      -C4      -C18     -H36     :  59.071534
 P1      -C4      -C18     -H37     : 177.433697
 P1      -C4      -C19     -H38     :  59.682494
 P1      -C4      -C19     -H39     : 179.407630
 P1      -C4      -C19     -H40     : -61.546178
 P1      -C5      -C20     -H41     : -56.022773
 P1      -C5      -C20     -H42     :  65.784275
 P1      -C5      -C20     -H43     :-176.287823
 P1      -C5      -C21     -H44     :  67.566361
 P1      -C5      -C21     -H45     :-174.255908
 P1      -C5      -C21     -H46     : -56.409800
 P1      -C5      -C22     -C75     : -27.380306
 P1      -C5      -C22     -H47     : -59.157476
 P1      -C5      -C22     -H48     :  61.695607
 P1      -C5      -C22     -H49     :-178.104440
 Pd2     -P1      -C3      -C12     : -32.618306
 Pd2     -P1      -C3      -C16     : 145.847045
 Pd2     -P1      -C4      -C17     : -71.513102
 Pd2     -P1      -C4      -C18     :  52.011638
 Pd2     -P1      -C4      -C19     : 168.168159
 Pd2     -P1      -C5      -C20     : -70.217488
 Pd2     -P1      -C5      -C21     : 165.326564
 Pd2     -P1      -C5      -C22     :  45.006587
 Pd2     -Br3     -C6      -C7      : 143.172326
 Pd2     -Br3     -C6      -C11     :  43.266384
 Pd2     -Br3     -C6      -C12     : -82.104077
 Pd2     -Br3     -C7      -C6      : -60.581095
 Pd2     -Br3     -C7      -C8      :  55.946659
 Pd2     -Br3     -C7      -C23     : 165.329042
 Pd2     -Br3     -C23     -C7      :-121.823243
 Pd2     -Br3     -C23     -H50     : 161.413897
 Pd2     -Br3     -C23     -H51     :  76.474378
 Pd2     -Br3     -C23     -H52     : -16.923189
 Pd2     -C76     -C75     -C74     :-177.095593
 Pd2     -C76     -C75     -H81     :   1.782994
 Pd2     -C76     -C75     -C22     : -59.529419
 Pd2     -C76     -C75     -H47     : -19.110190
 Pd2     -C76     -C77     -C78     : 176.927632
 Pd2     -C76     -C77     -H82     :  -1.646969
 Br3     -Pd2     -P1      -C3      :   0.000000
 Br3     -Pd2     -P1      -C4      :-120.617223
 Br3     -Pd2     -P1      -C5      : 118.410104
 Br3     -Pd2     -C76     -C75     : -92.990519
 Br3     -Pd2     -C76     -C77     :  90.728592
 Br3     -C6      -C7      -C8      :-114.433449
 Br3     -C6      -C7      -C23     :  61.537517
 Br3     -C6      -C11     -C10     :  67.678424
 Br3     -C6      -C11     -H27     :-114.385929
 Br3     -C6      -C12     -C3      :  64.232747
 Br3     -C6      -C12     -C13     :-116.723378
 Br3     -C7      -C6      -C11     : 114.221122
 Br3     -C7      -C6      -C12     : -66.523406
 Br3     -C7      -C8      -C9      : -87.556125
 Br3     -C7      -C8      -H24     :  91.846456
 Br3     -C7      -C23     -H50     : 144.922767
 Br3     -C7      -C23     -H51     :  16.834577
 Br3     -C7      -C23     -H52     : -97.504855
 Br3     -C23     -C7      -C6      : -59.662526
 Br3     -C23     -C7      -C8      : 116.584305
 C73     -C74     -C75     -C76     :   0.605200
 C73     -C74     -C75     -H81     :-178.279856
 C73     -C74     -C75     -C22     :-115.229725
 C73     -C74     -C75     -H47     :-143.000173
 C73     -C78     -C77     -C76     :  -0.275010
 C73     -C78     -C77     -H82     : 178.311769
 C74     -C73     -C78     -C77     :   0.102037
 C74     -C73     -C78     -H83     : 179.533252
 C74     -C75     -C76     -C77     :  -0.777681
 C74     -C75     -H81     -H47     : 139.180537
 C74     -C75     -C22     -C5      : 154.463570
 C74     -C75     -C22     -H47     :-153.522511
 C74     -C75     -C22     -H48     :  50.914273
 C74     -C75     -C22     -H49     : -53.114482
 C74     -C75     -H47     -H81     : -64.398229
 C74     -C75     -H47     -C22     :  42.743301
 C75     -C74     -C73     -C78     :  -0.266097
 C75     -C74     -C73     -F79     : 179.374734
 C75     -C76     -C77     -C78     :   0.611093
 C75     -C76     -C77     -H82     :-177.963508
 C75     -H81     -H47     -C22     : -96.627845
 C75     -C22     -C5      -C20     :  92.060726
 C75     -C22     -C5      -C21     :-156.277798
 C75     -C22     -H47     -H81     :  79.231166
 C75     -H47     -C22     -C5      : 147.928490
 C75     -H47     -C22     -H48     :  24.404005
 C75     -H47     -C22     -H49     : -89.450836
 C76     -Pd2     -P1      -C3      :-179.932358
 C76     -Pd2     -P1      -C4      :  59.450419
 C76     -Pd2     -P1      -C5      : -61.522254
 C76     -Pd2     -Br3     -C6      :-134.810497
 C76     -Pd2     -Br3     -C7      : -93.904334
 C76     -Pd2     -Br3     -C23     :  17.280731
 C76     -C75     -C74     -H80     :-179.644890
 C76     -C75     -H81     -H47     : -39.709681
 C76     -C75     -C22     -C5      :  27.123353
 C76     -C75     -C22     -H47     :  79.137272
 C76     -C75     -C22     -H48     : -76.425944
 C76     -C75     -C22     -H49     : 179.545301
 C76     -C75     -H47     -H81     : 146.383773
 C76     -C75     -H47     -C22     :-106.474697
 C76     -C77     -C78     -H83     :-179.694551
 C77     -C76     -C75     -H81     : 178.100905
 C77     -C76     -C75     -C22     : 116.788492
 C77     -C76     -C75     -H47     : 157.207721
 C77     -C78     -C73     -F79     :-179.538673
 C78     -C73     -C74     -H80     : 179.979021
 F79     -C73     -C74     -H80     :  -0.380148
 F79     -C73     -C78     -H83     :  -0.107458
 H80     -C74     -C75     -H81     :   1.470054
 H80     -C74     -C75     -C22     :  64.520185
 H80     -C74     -C75     -H47     :  36.749736
 H81     -C75     -C22     -C5      : -90.467704
 H81     -C75     -C22     -H47     : -38.453785
 H81     -C75     -C22     -H48     : 165.982999
 H81     -C75     -C22     -H49     :  61.954244
 H81     -C75     -H47     -C22     : 107.141530
 H81     -H47     -C75     -C22     :-107.141530
 H81     -H47     -C22     -C5      :-132.840344
 H81     -H47     -C22     -H48     : 103.635171
 H81     -H47     -C22     -H49     : -10.219670
 H82     -C77     -C78     -H83     :  -1.107772
 C3      -P1      -C4      -C17     : 166.762405
 C3      -P1      -C4      -C18     : -69.712856
 C3      -P1      -C4      -C19     :  46.443665
 C3      -P1      -C5      -C20     :  44.159859
 C3      -P1      -C5      -C21     : -80.296088
 C3      -P1      -C5      -C22     : 159.383935
 C3      -C12     -C6      -C7      : 116.873206
 C3      -C12     -C6      -C11     : -63.902545
 C3      -C12     -C13     -C14     :   0.274863
 C3      -C12     -C13     -H28     : 177.359151
 C3      -C16     -C15     -C14     :  -0.346891
 C3      -C16     -C15     -H30     : 179.785728
 C4      -P1      -C3      -C12     :  97.038236
 C4      -P1      -C3      -C16     : -84.496413
 C4      -P1      -C5      -C20     : 161.788653
 C4      -P1      -C5      -C21     :  37.332705
 C4      -P1      -C5      -C22     : -82.987272
 C5      -P1      -C3      -C12     :-142.540243
 C5      -P1      -C3      -C16     :  35.925108
 C5      -P1      -C4      -C17     :  44.498558
 C5      -P1      -C4      -C18     : 168.023298
 C5      -P1      -C4      -C19     : -75.820182
 C5      -C22     -C75     -H47     : -52.013919
 C6      -Br3     -C7      -C8      : 116.527754
 C6      -Br3     -C7      -C23     :-134.089863
 C6      -Br3     -C23     -C7      :  31.360353
 C6      -Br3     -C23     -H50     : -45.402507
 C6      -Br3     -C23     -H51     :-130.342026
 C6      -Br3     -C23     -H52     : 136.260406
 C6      -C7      -Br3     -C23     : 134.089863
 C6      -C7      -C8      -C9      :   0.204575
 C6      -C7      -C8      -H24     : 179.607156
 C6      -C7      -C23     -H50     :  85.260242
 C6      -C7      -C23     -H51     : -42.827948
 C6      -C7      -C23     -H52     :-157.167381
 C6      -C11     -C10     -C9      :   0.273642
 C6      -C11     -C10     -H26     : 179.773359
 C6      -C12     -C3      -C16     : 178.113550
 C6      -C12     -C13     -C14     :-178.906444
 C6      -C12     -C13     -H28     :  -1.822156
 C7      -Br3     -C6      -C11     : -99.905942
 C7      -Br3     -C6      -C12     : 134.723597
 C7      -Br3     -C23     -H50     : -76.762860
 C7      -Br3     -C23     -H51     :-161.702379
 C7      -Br3     -C23     -H52     : 104.900053
 C7      -C6      -Br3     -C23     : -31.518168
 C7      -C6      -C11     -C10     :  -0.019764
 C7      -C6      -C11     -H27     : 177.915884
 C7      -C6      -C12     -C13     : -64.082919
 C7      -C8      -C9      -C10     :   0.054983
 C7      -C8      -C9      -H25     : 179.876051
 C8      -C7      -Br3     -C23     :-109.382383
 C8      -C7      -C6      -C11     :  -0.212327
 C8      -C7      -C6      -C12     : 179.043146
 C8      -C7      -C23     -H50     : -98.492928
 C8      -C7      -C23     -H51     : 133.418882
 C8      -C7      -C23     -H52     :  19.079450
 C8      -C9      -C10     -C11     :  -0.276610
 C8      -C9      -C10     -H26     :-179.778484
 C9      -C8      -C7      -C23     :-176.307482
 C9      -C10     -C11     -H27     :-177.768294
 C10     -C9      -C8      -H24     :-179.371646
 C10     -C11     -C6      -C12     :-179.368488
 C11     -C6      -Br3     -C23     :-131.424110
 C11     -C6      -C7      -C23     : 175.758639
 C11     -C6      -C12     -C13     : 115.141330
 C11     -C10     -C9      -H25     : 179.901367
 C12     -C3      -C16     -C15     :   1.063585
 C12     -C3      -C16     -H31     :-179.102067
 C12     -C6      -Br3     -C23     : 103.205429
 C12     -C6      -C7      -C23     :  -4.985888
 C12     -C6      -C11     -H27     :  -1.432840
 C12     -C13     -C14     -C15     :   0.419544
 C12     -C13     -C14     -H29     : 179.515586
 C13     -C12     -C3      -C16     :  -0.956143
 C13     -C14     -C15     -C16     :  -0.387844
 C13     -C14     -C15     -H30     : 179.480274
 C14     -C15     -C16     -H31     : 179.809641
 C15     -C14     -C13     -H28     :-176.949296
 C16     -C15     -C14     -H29     :-179.495593
 C17     -C4      -C18     -H35     :  65.348403
 C17     -C4      -C18     -H36     :-171.651602
 C17     -C4      -C18     -H37     : -53.289439
 C17     -C4      -C19     -H38     : -66.981941
 C17     -C4      -C19     -H39     :  52.743195
 C17     -C4      -C19     -H40     : 171.789387
 C18     -C4      -C17     -H32     : -64.694553
 C18     -C4      -C17     -H33     :  54.255933
 C18     -C4      -C17     -H34     : 173.017195
 C18     -C4      -C19     -H38     :-178.358513
 C18     -C4      -C19     -H39     : -58.633377
 C18     -C4      -C19     -H40     :  60.412815
 C19     -C4      -C17     -H32     :-174.987439
 C19     -C4      -C17     -H33     : -56.036953
 C19     -C4      -C17     -H34     :  62.724309
 C19     -C4      -C18     -H35     : 176.830700
 C19     -C4      -C18     -H36     : -60.169305
 C19     -C4      -C18     -H37     :  58.192858
 C20     -C5      -C21     -H44     : -59.667052
 C20     -C5      -C21     -H45     :  58.510680
 C20     -C5      -C21     -H46     : 176.356787
 C20     -C5      -C22     -H47     :  60.283556
 C20     -C5      -C22     -H48     :-178.863361
 C20     -C5      -C22     -H49     : -58.663408
 C21     -C5      -C20     -H41     :  75.812279
 C21     -C5      -C20     -H42     :-162.380674
 C21     -C5      -C20     -H43     : -44.452771
 C21     -C5      -C22     -H47     : 171.945031
 C21     -C5      -C22     -H48     : -67.201886
 C21     -C5      -C22     -H49     :  52.998068
 C22     -C75     -H81     -H47     :  47.352704
 C22     -C5      -C20     -H41     :-172.848971
 C22     -C5      -C20     -H42     : -51.041923
 C22     -C5      -C20     -H43     :  66.885980
 C22     -C5      -C21     -H44     :-170.886081
 C22     -C5      -C21     -H45     : -52.708349
 C22     -C5      -C21     -H46     :  65.137758
 C23     -C7      -C8      -H24     :   3.095099
 H24     -C8      -C9      -H25     :   0.449421
 H25     -C9      -C10     -H26     :   0.399493
 H26     -C10     -C11     -H27     :   1.731423
 H28     -C13     -C14     -H29     :   2.146746
 H29     -C14     -C15     -H30     :   0.372525
 H30     -C15     -C16     -H31     :  -0.057740
 H47     -C75     -C22     -H48     :-155.563216
 H47     -C75     -C22     -H49     : 100.408029
 
  nuclear repulsion energy.......          3810.687487824 hartrees
  
  Detected an organometallic with only one TM atom. 
  
  
 
  Will use High-Quality Initial guess for organometallics
       including d-d repulsion (iguess=30)
 
 Non-default options chosen:
   SCF calculation type: DFT(b3pw91-d3)              
   DFT=Becke_3_Parameter/HF+Slater+Becke88+PW91+PW-GGAIIC (B3PW91-D3)
   Geometry will be optimized in redundant internal coordinates
   Solvation energy will be computed using PBF
     -solute cavity energy will not be included
     -surface area terms will not be included
   Vibrational frequencies and related properties will be computed
      from analytic second derivatives
   IR intensities will be computed
   Thermochemical properties will be computed
   Maximum number of geometry steps: 100
   Scaling standard convergence criteria by a factor of   5.00
   Solvent: benzene                                                         
   Internal dielectric constant:    1.000
   Continuum dielectric constant:   2.283
   Solvent probe molecule radius:   2.600
  
 Non-default print settings:
     11=  2
  
 Temporary integer options set:
     21= -1  73=  2
  
  atom       vdw   vdw2    cov     mass  grid  daf  charge   basis
  P1        2.147  2.074  1.060   30.974    Y    Y      Y    ps_6-31g*
  Pd2       1.450  1.450  1.280  105.903    Y    Y      Y    lacv3p*
  Br3       2.095  2.095  1.140   78.918    Y    Y      Y    lav3p*
  C73       1.949  1.900  0.770   12.000    Y    Y      Y    ps_6-31g*
  C74       1.949  1.900  0.770   12.000    Y    Y      Y    ps_6-31g*
  C75       1.949  1.900  0.770   12.000    Y    Y      Y    ps_6-31g*
  C76       1.949  1.900  0.770   12.000    Y    Y      Y    ps_6-31g*
  C77       1.949  1.900  0.770   12.000    Y    Y      Y    ps_6-31g*
  C78       1.949  1.900  0.770   12.000    Y    Y      Y    ps_6-31g*
  F79       1.736  1.682  0.720   18.998    Y    Y      Y    ps_6-31g*
  H80       1.597  1.150  0.320    1.008    Y    Y      Y    ps_6-31g*
  H81       1.597  1.150  0.320    1.008    Y    Y      Y    ps_6-31g*
  H82       1.597  1.150  0.320    1.008    Y    Y      Y    ps_6-31g*
  H83       1.597  1.150  0.320    1.008    Y    Y      Y    ps_6-31g*
  C3        1.949  1.900  0.770   12.000    Y    Y      Y    ps_6-31g*
  C4        1.949  1.900  0.770   12.000    Y    Y      Y    ps_6-31g*
  C5        1.949  1.900  0.770   12.000    Y    Y      Y    ps_6-31g*
  C6        1.949  1.900  0.770   12.000    Y    Y      Y    ps_6-31g*
  C7        1.949  1.900  0.770   12.000    Y    Y      Y    ps_6-31g*
  C8        1.949  1.900  0.770   12.000    Y    Y      Y    ps_6-31g*
  C9        1.949  1.900  0.770   12.000    Y    Y      Y    ps_6-31g*
  C10       1.949  1.900  0.770   12.000    Y    Y      Y    ps_6-31g*
  C11       1.949  1.900  0.770   12.000    Y    Y      Y    ps_6-31g*
  C12       1.949  1.900  0.770   12.000    Y    Y      Y    ps_6-31g*
  C13       1.949  1.900  0.770   12.000    Y    Y      Y    ps_6-31g*
  C14       1.949  1.900  0.770   12.000    Y    Y      Y    ps_6-31g*
  C15       1.949  1.900  0.770   12.000    Y    Y      Y    ps_6-31g*
  C16       1.949  1.900  0.770   12.000    Y    Y      Y    ps_6-31g*
  C17       1.949  1.900  0.770   12.000    Y    Y      Y    ps_6-31g*
  C18       1.949  1.900  0.770   12.000    Y    Y      Y    ps_6-31g*
  C19       1.949  1.900  0.770   12.000    Y    Y      Y    ps_6-31g*
  C20       1.949  1.900  0.770   12.000    Y    Y      Y    ps_6-31g*
  C21       1.949  1.900  0.770   12.000    Y    Y      Y    ps_6-31g*
  C22       1.949  1.900  0.770   12.000    Y    Y      Y    ps_6-31g*
  C23       1.949  1.900  0.770   12.000    Y    Y      Y    ps_6-31g*
  H24       1.597  1.150  0.320    1.008    Y    Y      Y    ps_6-31g*
  H25       1.597  1.150  0.320    1.008    Y    Y      Y    ps_6-31g*
  H26       1.597  1.150  0.320    1.008    Y    Y      Y    ps_6-31g*
  H27       1.597  1.150  0.320    1.008    Y    Y      Y    ps_6-31g*
  H28       1.597  1.150  0.320    1.008    Y    Y      Y    ps_6-31g*
  H29       1.597  1.150  0.320    1.008    Y    Y      Y    ps_6-31g*
  H30       1.597  1.150  0.320    1.008    Y    Y      Y    ps_6-31g*
  H31       1.597  1.150  0.320    1.008    Y    Y      Y    ps_6-31g*
  H32       1.597  1.150  0.320    1.008    Y    Y      Y    ps_6-31g*
  H33       1.597  1.150  0.320    1.008    Y    Y      Y    ps_6-31g*
  H34       1.597  1.150  0.320    1.008    Y    Y      Y    ps_6-31g*
  H35       1.597  1.150  0.320    1.008    Y    Y      Y    ps_6-31g*
  H36       1.597  1.150  0.320    1.008    Y    Y      Y    ps_6-31g*
  H37       1.597  1.150  0.320    1.008    Y    Y      Y    ps_6-31g*
  H38       1.597  1.150  0.320    1.008    Y    Y      Y    ps_6-31g*
  H39       1.597  1.150  0.320    1.008    Y    Y      Y    ps_6-31g*
  H40       1.597  1.150  0.320    1.008    Y    Y      Y    ps_6-31g*
  H41       1.597  1.150  0.320    1.008    Y    Y      Y    ps_6-31g*
  H42       1.597  1.150  0.320    1.008    Y    Y      Y    ps_6-31g*
  H43       1.597  1.150  0.320    1.008    Y    Y      Y    ps_6-31g*
  H44       1.597  1.150  0.320    1.008    Y    Y      Y    ps_6-31g*
  H45       1.597  1.150  0.320    1.008    Y    Y      Y    ps_6-31g*
  H46       1.597  1.150  0.320    1.008    Y    Y      Y    ps_6-31g*
  H47       1.597  1.150  0.320    1.008    Y    Y      Y    ps_6-31g*
  H48       1.597  1.150  0.320    1.008    Y    Y      Y    ps_6-31g*
  H49       1.597  1.150  0.320    1.008    Y    Y      Y    ps_6-31g*
  H50       1.597  1.150  0.320    1.008    Y    Y      Y    ps_6-31g*
  H51       1.597  1.150  0.320    1.008    Y    Y      Y    ps_6-31g*
  H52       1.597  1.150  0.320    1.008    Y    Y      Y    ps_6-31g*
 
  atom      formal  2spin      esp    mulk    frag
  P1           0       0        Y    0.000       0
  Pd2          0       0        Y    0.000       0
  
  end of program pre
   
 Time(pre)  user:       1.128  user+sys:       1.128  wallclock:       1.705
  
  start of program onee
  
  smallest eigenvalue of S:    3.692E-04
  number of canonical orbitals.....          513
  end of program onee
   
 Time(onee)  user:       5.964  user+sys:       5.964  wallclock:       4.534
  
  start of program hfig
  
  initial wavefunction generated automatically from atomic wavefunctions
  Only one possible d-orb occupation 
  Skip d-d repulsion considerations 
 
  Irreducible     Total no   No of occupied orbitals 
  representation  orbitals   Shell_1  Shell_2    ...
  No Symm          513        122
  ------------------------
  Orbital occupation/shell    1.000
 
  end of program hfig
   
 Time(hfig)  user:       0.934  user+sys:       0.934  wallclock:       0.979
  
  start of program probe
  
  end of program probe
   
 Time(probe)  user:       0.540  user+sys:       0.540  wallclock:       0.460
  
  start of program grid
  
   grid     grid set  grid #  grid sym
  ------    --------  ------  --------
  coarse        0        0        1
  medium        2        1        1
  fine          0        0        1
  ultrafine     4        2        1
  charge       -1        3        1
  gradient      4        2        1
  density       0        0        1
  DFT-fine    -11        4        1
  DFT-med.    -10        5        1
  DFT-grad    -12        6        1
  DFT-der2     -8        7        1
  DFT-cphf     -9        8        1
  LMP2-enrg     4        2        1
  LMP2-grad     2        1        1
  DFT-cphf2   -15        9        1
  PBF-dens      0        0        1
  plotting      0        0        1
  Rel-grad    -17        0        1
  
  number of gridpoints: 
     atom           P1         Pd2         Br3         C73         C74         C75         C76
  grid # 1         611         360         455          79          92          88          99
  grid # 2         429         334         384         334         315         285         385
  grid # 3           8         296          68          37          29          29          35
  grid # 4        8714        8714        8714        8714        8714        8714        8714
  grid # 5        1192        1192        1192        1192        1192        1192        1192
  grid # 6        9132        9132        9132        5922        5922        5922        5922
  grid # 7       23034       32968       11582       13950       13950       13950       13950
  grid # 8         722        1150         694         748         748         748         748
  grid # 9         366        2198         358         394         394         394         394
   
  number of gridpoints: 
     atom          C77         C78         F79         H80         H81         H82         H83
  grid # 1          95          93         584         112          86         113         114
  grid # 2         319         318         566         460         350         451         464
  grid # 3          31          29         365         353         169         238         387
  grid # 4        8714        8714        8714        8714        8714        8714        8714
  grid # 5        1192        1192        1192        1192        1192        1192        1192
  grid # 6        5922        5922        5922        5922        5922        5922        5922
  grid # 7       13950       13950       23190       15206       15206       15206       15206
  grid # 8         748         748         770         786         786         786         786
  grid # 9         394         394         420         420         420         420         420
   
  number of gridpoints: 
     atom           C3          C4          C5          C6          C7          C8          C9
  grid # 1          92          91          88          89          88          93          96
  grid # 2         388         369         377         343         345         328         323
  grid # 3          13           6           6          13          19          33          38
  grid # 4        8714        8714        8714        8714        8714        8714        8714
  grid # 5        1192        1192        1192        1192        1192        1192        1192
  grid # 6        5922        5922        5922        5922        5922        5922        5922
  grid # 7       13950       13950       13950       13950       13950       13950       13950
  grid # 8         748         748         748         748         748         748         748
  grid # 9         394         394         394         394         394         394         394
   
  number of gridpoints: 
     atom          C10         C11         C12         C13         C14         C15         C16
  grid # 1          96          93          96          94          97          95          91
  grid # 2         325         325         357         323         324         322         322
  grid # 3          33          24          15          31          46          32          10
  grid # 4        8714        8714        8714        8714        8714        8714        8714
  grid # 5        1192        1192        1192        1192        1192        1192        1192
  grid # 6        5922        5922        5922        5922        5922        5922        5922
  grid # 7       13950       13950       13950       13950       13950       13950       13950
  grid # 8         748         748         748         748         748         748         748
  grid # 9         394         394         394         394         394         394         394
   
  number of gridpoints: 
     atom          C17         C18         C19         C20         C21         C22         C23
  grid # 1          83          84          82          80          82          82          77
  grid # 2         239         240         242         246         241         240         243
  grid # 3           6           6           6           6           6           6           6
  grid # 4        8714        8714        8714        8714        8714        8714        8714
  grid # 5        1192        1192        1192        1192        1192        1192        1192
  grid # 6        5922        5922        5922        5922        5922        5922        5922
  grid # 7       13950       13950       13950       13950       13950       13950       13950
  grid # 8         748         748         748         748         748         748         748
  grid # 9         394         394         394         394         394         394         394
   
  number of gridpoints: 
     atom          H24         H25         H26         H27         H28         H29         H30
  grid # 1         115         118         117         104         115         118         118
  grid # 2         453         469         464         421         455         467         467
  grid # 3         324         424         384         132         316         422         411
  grid # 4        8714        8714        8714        8714        8714        8714        8714
  grid # 5        1192        1192        1192        1192        1192        1192        1192
  grid # 6        5922        5922        5922        5922        5922        5922        5922
  grid # 7       15206       15206       15206       15206       15206       15206       15206
  grid # 8         786         786         786         786         786         786         786
  grid # 9         420         420         420         420         420         420         420
   
  number of gridpoints: 
     atom          H31         H32         H33         H34         H35         H36         H37
  grid # 1         100         100         108         101         106          97         108
  grid # 2         418         421         444         424         439         412         446
  grid # 3          66          79         265         141         147         102         263
  grid # 4        8714        8714        8714        8714        8714        8714        8714
  grid # 5        1192        1192        1192        1192        1192        1192        1192
  grid # 6        5922        5922        5922        5922        5922        5922        5922
  grid # 7       15206       15206       15206       15206       15206       15206       15206
  grid # 8         786         786         786         786         786         786         786
  grid # 9         420         420         420         420         420         420         420
   
  number of gridpoints: 
     atom          H38         H39         H40         H41         H42         H43         H44
  grid # 1         102         109         104         104         107         107         102
  grid # 2         425         445         434         437         445         446         431
  grid # 3         145         269         197         202         211         272         192
  grid # 4        8714        8714        8714        8714        8714        8714        8714
  grid # 5        1192        1192        1192        1192        1192        1192        1192
  grid # 6        5922        5922        5922        5922        5922        5922        5922
  grid # 7       15206       15206       15206       15206       15206       15206       15206
  grid # 8         786         786         786         786         786         786         786
  grid # 9         420         420         420         420         420         420         420
   
  number of gridpoints: 
     atom          H45         H46         H47         H48         H49         H50         H51
  grid # 1         107         101          70         100         107         112          93
  grid # 2         443         427         305         404         427         459         442
  grid # 3         259         148           9          50         157         337         239
  grid # 4        8714        8714        8714        8714        8714        8714        8714
  grid # 5        1192        1192        1192        1192        1192        1192        1192
  grid # 6        5922        5922        5922        5922        5922        5922        5922
  grid # 7       15206       15206       15206       15206       15206       15206       15206
  grid # 8         786         786         786         786         786         786         786
  grid # 9         420         420         420         420         420         420         420
   
  number of gridpoints: 
     atom          H52       total
  grid # 1         104        7904
  grid # 2         447       24473
  grid # 3         277        8875
  grid # 4        8714      557696
  grid # 5        1192       76288
  grid # 6        5922      388638
  grid # 7       15206      969222
  grid # 8         786       49470
  grid # 9         420       27840
   
  end of program grid
   
 Time(grid)  user:     212.930  user+sys:     212.930  wallclock:     109.122
  
  start of program rwr
  
  end of program rwr
   
 Time(rwr)  user:      16.429  user+sys:      16.429  wallclock:      20.623
  
  start of program scf
  
 number of electrons..........        244
 number of alpha electrons....        122
 number of beta electrons.....        122
 number of orbitals, total....        513
 number of doubly-occ'd orbs..        122
 number of open shell orbs....          0
 number of occupied orbitals..        122
 number of virtual orbitals...        391
 number of hamiltonians.......          1
 number of shells.............          1
 SCF type: DFT=Becke_3_Parameter/HF+Slater+Becke88+PW91+PW-GGAIIC (B3PW91-D3)
 Energy computed using pseudospectral method.
 Convergence Criterion:
    Energy (econv):       1.00E-05
    RMS density (dconv):  5.00E-06
  
       i  u  d  i  g                   
       t  p  i  c  r                                 RMS    maximum
       e  d  i  u  i                       energy  density   DIIS  
       r  t  s  t  d       total energy    change  change    error 
  
etot    1  N  N  5  M   -1623.61746223283           3.1E-03  2.2E-01
etot    2  Y  Y  6  M   -1626.63959440070  3.0E+00  8.6E-03  1.8E-01
etot    3  Y  Y  6  M   -1624.62106878748 -2.0E+00  7.2E-03  1.5E-01
etot    4  N  Y  2  U   -1627.68755191576  3.1E+00  4.1E-03  5.5E-02
etot    5  Y  Y  6  M   -1628.13524144116  4.5E-01  2.2E-03  3.6E-02
etot    6  N  Y  2  U   -1628.36641315629  2.3E-01  1.3E-03  1.3E-02
etot    7  Y  Y  6  M   -1628.42762948648  6.1E-02  5.8E-04  1.5E-02
etot    8  N  Y  2  U   -1628.45380843442  2.6E-02  5.4E-04  3.4E-03
etot    9  Y  Y  6  M   -1628.46011258332  6.3E-03  3.6E-04  1.8E-03
etot   10  N  Y  2  U   -1628.46075462770  6.4E-04  2.4E-04  3.0E-03
etot   11  Y  Y  6  M   -1628.46021525844 -5.4E-04  1.7E-04  3.3E-03
etot   12  Y  Y  6  M   -1628.45695730163 -3.3E-03  1.5E-04  4.3E-03
etot   13  Y  Y  6  M   -1628.45988556782  2.9E-03  1.3E-04  3.4E-03
etot   14  Y  Y  6  M   -1628.46316300549  3.3E-03  6.0E-05  2.0E-03
etot   15  N  Y  2  U   -1628.46440635399  1.2E-03  7.5E-05  1.4E-03
etot   16  Y  Y  6  M   -1628.46513282051  7.3E-04  4.9E-05  6.3E-04
etot   17  N  Y  2  U   -1628.46530730143  1.7E-04  2.5E-05  2.2E-04
etot   18  N  Y  2  U   -1628.46533387412  2.7E-05  1.2E-05  6.2E-05
etot   19  N  Y  2  U   -1628.46533672836  2.9E-06  6.9E-06  1.7E-05
etot   20  N  Y  2  U   -1628.46533723083  5.0E-07  3.4E-06  1.7E-05
etot   21  N  N  2  U   -1628.46533739041  1.6E-07  0.0E+00  0.0E+00
 
  Computing the dispersion energy correction and its gradients...
  
  
 Energy components, in hartrees:
   (A)  Nuclear repulsion............    3810.68748782446
   (E)  Total one-electron terms.....   -9859.86141010452
   (F)    Electron-nuclear...........  -11393.53645811890
   (H)    Kinetic....................    1533.67504801437
   (I)  Total two-electron terms.....    4420.70858488966
   (J)    Coulomb....................    4628.71477725111
   (K)    Exchange+Correlation.......    -208.00619236145
   (L)  Electronic energy............   -5439.15282521487  (E+I)
   (N0) D3 correction................      -0.11929724208
   (N)  Total energy.................   -1628.58463463249  (A+L+N0)
   (O)  Gas phase energy.............   -1628.58463463249
  
 SCFE: SCF energy: DFT(b3pw91-d3)     -1628.58463463249 hartrees   iterations:  21
  
 
 HOMO energy:    -0.10961
 LUMO energy:    -0.07928
 
  Orbital energies (hartrees): 
   -77.11067   -24.67150   -10.23927   -10.23815   -10.23741   -10.23535
   -10.22034   -10.21308   -10.21027   -10.20749   -10.19017   -10.18938
   -10.18583   -10.18322   -10.18193   -10.18100   -10.17946   -10.17779
   -10.17175   -10.17157   -10.16826   -10.16562   -10.16063   -10.15985
   -10.15596   -10.14863   -10.14640   -10.14233   -10.13131    -6.60826
    -4.76610    -4.76573    -4.76399    -3.33439    -2.06868    -2.06075
    -2.03895    -1.20178    -1.04587    -1.02702    -0.87418    -0.84257
    -0.83188    -0.82803    -0.81945    -0.80368    -0.76408    -0.74713
    -0.73979    -0.71913    -0.71165    -0.70960    -0.70190    -0.69247
    -0.69132    -0.68215    -0.66292    -0.63892    -0.62429    -0.61412
    -0.60042    -0.58362    -0.58011    -0.57092    -0.54817    -0.52686
    -0.51972    -0.50752    -0.50414    -0.49805    -0.48883    -0.48059
    -0.47628    -0.47009    -0.46900    -0.46392    -0.45412    -0.45302
    -0.44940    -0.44681    -0.44313    -0.43811    -0.43375    -0.42716
    -0.42308    -0.41574    -0.41279    -0.40664    -0.40224    -0.39294
    -0.39054    -0.38799    -0.38709    -0.38069    -0.37498    -0.37222
    -0.37082    -0.36596    -0.35346    -0.34807    -0.34598    -0.34420
    -0.33909    -0.33655    -0.33319    -0.32850    -0.32425    -0.32227
    -0.30744    -0.29824    -0.28321    -0.27581    -0.27172    -0.26401
    -0.26146    -0.25650    -0.23931    -0.23038    -0.22450    -0.20870
    -0.14228    -0.10961    -0.07928    -0.04855    -0.02028    -0.01490
    -0.01233     0.00483     0.01661     0.02032     0.03079     0.03902
 
  end of program scf
   
 Time(scf)  user:     614.626  user+sys:     614.626  wallclock:     330.645
  
  start of program der1a
  
  end of program der1a
   
 Time(der1a)  user:      20.221  user+sys:      20.221  wallclock:      10.690
  
  start of program rwr
  
  end of program rwr
   
 Time(rwr)  user:      17.494  user+sys:      17.494  wallclock:      21.812
  
  start of program der1b
  
   
  forces (hartrees/bohr) : total     
   
 atom  label           x              y              z
 ---- --------   -------------  -------------  -------------
    1 P1          1.266012E-02   1.609159E-02   5.791847E-03
    2 Pd2         1.491339E-02   2.510272E-02  -1.060714E-03
    3 Br3        -3.893707E-01  -1.738616E-01   1.147984E-01
    4 C73         7.528763E-03  -3.673253E-04  -3.608082E-03
    5 C74        -5.165991E-02  -1.512898E-02   1.895763E-02
    6 C75        -1.047424E-01   5.967700E-02   1.481023E-01
    7 C76         1.757387E-02   5.641146E-02   5.124410E-02
    8 C77         1.174707E-02  -2.366311E-02  -1.965625E-03
    9 C78        -1.966622E-02   1.583126E-02   5.428713E-04
   10 F79         8.902116E-03  -2.758509E-03  -6.206477E-05
   11 H80         3.269449E-04   7.625137E-05   3.260379E-03
   12 H81        -1.389948E-01  -2.086110E-01   2.719296E-01
   13 H82         1.937424E-03   8.167664E-04   3.286872E-04
   14 H83        -3.865844E-04  -4.626726E-04   1.785524E-03
   15 C3         -2.651128E-02  -2.519736E-03  -1.515730E-02
   16 C4         -9.471294E-03   2.183481E-02  -2.871334E-02
   17 C5          1.258365E-04  -2.436401E-02  -2.014307E-02
   18 C6          1.459102E-02   1.469349E-01  -1.040993E-01
   19 C7          8.982851E-02   1.363178E-02   3.738661E-02
   20 C8          1.452449E-02   5.828046E-02   4.722159E-02
   21 C9          5.423179E-03  -1.636201E-02  -2.335260E-03
   22 C10        -6.772261E-03   1.511927E-02   2.219217E-03
   23 C11        -1.629872E-03   7.782988E-03  -1.300448E-02
   24 C12         2.866913E-02  -1.189256E-02  -6.292726E-02
   25 C13         1.520234E-02  -4.261924E-03  -9.045724E-03
   26 C14        -9.619957E-04  -5.896997E-04   1.364707E-03
   27 C15        -2.179401E-03  -2.696798E-03   1.015223E-03
   28 C16         3.180053E-03  -1.064978E-02  -1.312583E-02
   29 C17        -1.319966E-02  -8.489610E-03   9.797549E-03
   30 C18         8.086072E-03   4.755895E-03   1.389253E-02
   31 C19         1.059607E-02  -8.061828E-03  -1.316226E-02
   32 C20         1.732205E-02  -4.170378E-03   5.287120E-03
   33 C21        -6.485959E-03   4.074516E-03  -1.445489E-02
   34 C22        -5.425219E-03   2.595910E-02  -2.755302E-01
   35 C23         1.661444E-01  -3.268934E-02   8.591914E-03
   36 H24        -3.000863E-03  -4.684563E-03  -1.351948E-02
   37 H25         1.020144E-03  -9.274702E-03  -6.717283E-03
   38 H26         5.794271E-03  -1.061216E-02  -2.402960E-03
   39 H27         4.414746E-03  -1.060970E-02  -7.263500E-05
   40 H28        -6.007375E-03   6.206249E-03   1.365196E-02
   41 H29        -8.282331E-03   4.342599E-03   7.525857E-03
   42 H30        -2.946260E-03   6.134635E-03   9.255411E-03
   43 H31         9.859528E-04   6.066671E-03   5.113582E-03
   44 H32         5.890251E-03  -3.642115E-03  -9.478501E-03
   45 H33         1.080160E-02  -6.524004E-03   3.148490E-03
   46 H34         4.486792E-03   5.482122E-03   3.813146E-03
   47 H35         6.367611E-03  -4.090685E-03  -7.776854E-03
   48 H36        -1.805819E-02  -3.057651E-03   3.274789E-04
   49 H37         6.485978E-04  -1.329793E-02   1.775308E-03
   50 H38         3.213994E-03   8.197920E-03   3.871722E-03
   51 H39         1.308392E-03  -5.891835E-03   1.049784E-02
   52 H40        -1.077844E-02  -2.513480E-03   1.863344E-03
   53 H41        -8.822981E-03  -3.489069E-04   6.173586E-03
   54 H42         2.789564E-03   4.706183E-03  -7.091291E-03
   55 H43        -8.680316E-06   1.227119E-02  -8.623957E-04
   56 H44        -2.964215E-03   3.110420E-03   6.909298E-03
   57 H45         6.408287E-03   7.447297E-03   6.039461E-03
   58 H46         7.801567E-03  -4.449227E-03   4.009222E-03
   59 H47         2.253748E-01   1.153934E-01  -1.497947E-01
   60 H48         1.812047E-02  -2.335981E-02  -4.548255E-02
   61 H49         9.913801E-03   3.811619E-03  -2.183082E-03
   62 H50         2.472358E-04  -3.257703E-03   4.006177E-03
   63 H51         7.809132E-02  -9.579112E-03   2.300224E-03
   64 H52        -4.381069E-03   1.144993E-02  -1.079553E-02
 -------------   -------------  -------------  -------------
     total        2.543416E-04   2.065201E-04  -7.728396E-04
   
  end of program der1b
   
 Time(der1b)  user:     121.009  user+sys:     121.009  wallclock:      64.192
  
  start of program geopt
  
 ----------------------------------------------------------------------------
  Geometry optimization step  1
  Total energy:     -1628.58463463249 hartrees
 ----------------------------------------------------------------------------
  
  
  Level shifts adjusted to satisfy step-size constraints
   Step size:    0.3001531
   Cos(theta):   0.9968452
   Final level shift:  -1.5967846E+00
  
  gradient maximum:        2.1652E-01 .  (  2.2500E-03 )
  gradient rms:            3.6631E-02 .  (  1.5000E-03 )
  displacement maximum:    1.1764E-01 .  (  9.0000E-03 )
  displacement rms:        1.9134E-02 .  (  6.0000E-03 )
  
  predicted energy change:  -1.5785E-01
  step size:     0.30010
  trust radius:  0.30000
  
  molecular structure not yet converged...
  
  center of mass moved by:
     x:    -2.1777E-02     y:     4.5521E-05     z:     2.4123E-02
  
  new geometry: 
                                   angstroms
  atom               x                 y                 z
  P1            0.0071853796      0.0152175986     -0.0114574188 
  Pd2          -0.0109480928      0.0203899538      2.2532743426 
  Br3           2.5434534869     -0.0359938479      2.3544936712 
  C73          -4.7660398750      0.0041958367      2.1359883406 
  C74          -4.0982226540     -1.2057575649      2.0453534520 
  C75          -2.6932186726     -1.1972550090      2.0917631818 
  C76          -1.9818799259      0.0113787821      2.2518405262 
  C77          -2.6993504297      1.2048644081      2.3307263537 
  C78          -4.0973225416      1.2121738926      2.2761986700 
  F79          -6.1156414383      0.0080801925      2.0788614606 
  H80          -4.6651281252     -2.1257998201      1.9397722061 
  H81          -2.1711027925     -2.1649067417      2.0187368435 
  H82          -2.1727334158      2.1494775097      2.4205284208 
  H83          -4.6650508481      2.1352812233      2.3369351134 
  C3            1.8202643740      0.0031627097     -0.6019078904 
  C4           -0.8299723516      1.4144973792     -1.0215583536 
  C5           -0.8977681036     -1.6320029069     -0.3831735171 
  C6            3.1550851814      1.3836801582      1.1538138320 
  C7            3.8745029407      1.1161840159      2.3861273187 
  C8            3.9169453200      2.0974949996      3.4169275991 
  C9            3.2774308661      3.3319089741      3.3215680058 
  C10           2.5716264247      3.6106051005      2.1504673762 
  C11           2.5441427069      2.6483930318      1.1336314044 
  C12           3.0248688886      0.5655007800     -0.0379439020 
  C13           4.2092452371      0.2873748392     -0.7544842215 
  C14           4.2927919571     -0.4597444550     -1.9324034503 
  C15           3.1219824031     -0.9825891147     -2.4761875959 
  C16           1.9284973880     -0.7323516327     -1.7988085053 
  C17          -2.3765870760      1.4140435670     -1.0152249999 
  C18          -0.3923348320      2.8291936573     -0.5798877977 
  C19          -0.3922772396      1.3033160396     -2.5041207705 
  C20          -0.0087259757     -2.8390148933     -0.0020512346 
  C21          -1.4262929306     -1.8940176931     -1.8175813392 
  C22          -2.1312902602     -1.7192452152      0.5566173928 
  C23           4.6135729630     -0.1603361293      2.7682489557 
  H24           4.4635324677      1.8907515668      4.3482302539 
  H25           3.3268521666      4.0680408774      4.1373976985 
  H26           2.0534284475      4.5726062998      2.0224791923 
  H27           2.0160321041      2.9582846297      0.2430469887 
  H28           5.1715960352      0.6929698891     -0.4459590469 
  H29           5.2583733859     -0.6233889164     -2.4348612414 
  H30           3.1354558270     -1.5697142344     -3.4065841502 
  H31           1.0386854318     -1.1578181339     -2.2635132329 
  H32          -2.8067938561      1.5673190815     -0.0094390330 
  H33          -2.7812709911      2.2333666227     -1.6470811204 
  H34          -2.8121449453      0.4816439622     -1.4195219571 
  H35          -0.6923956238      3.0507839456      0.4648517987 
  H36           0.7017671614      2.9718143414     -0.6858001235 
  H37          -0.8637618899      3.6155849437     -1.2073408985 
  H38          -0.6704662249      0.3323235038     -2.9585097801 
  H39          -0.8621838713      2.0894365014     -3.1332725406 
  H40           0.7050652638      1.4240778034     -2.6194732077 
  H41           0.9749952847     -2.8164291303     -0.5134474411 
  H42           0.1768308563     -2.8863215872      1.0896460376 
  H43          -0.4905422427     -3.8040209562     -0.2681528129 
  H44          -0.6327859619     -2.0238633762     -2.5783746424 
  H45          -2.0144710752     -2.8359084051     -1.8583873073 
  H46          -2.1133821909     -1.1060573864     -2.1759755224 
  H47          -1.8389216965     -1.6874919333      1.6694748072 
  H48          -2.8623235889     -0.9215961719      0.3309261402 
  H49          -2.6630996182     -2.6863965705      0.4239951991 
  H50           5.6548925002     -0.1854991016      2.3744256315 
  H51           4.1025982146     -1.1060662543      2.5171986150 
  H52           4.7399655556     -0.2601499266      3.8665418730 
   
 
  bond lengths (angstroms):
 
 P1      -Pd2     :   2.264810      P1      -C3      :   1.906838
 P1      -C4      :   1.918103      P1      -C5      :   1.915842
 Pd2     -Br3     :   2.557028      Pd2     -C76     :   1.970953
 Br3     -C6      :   1.957345      Br3     -C7      :   1.760741
 Br3     -C23     :   2.114722      C73     -C74     :   1.384984
 C73     -C78     :   1.387823      C73     -F79     :   1.350816
 C74     -C75     :   1.405796      C74     -H80     :   1.085821
 C75     -C76     :   1.411532      C75     -H81     :   1.101947
 C75     -C22     :   1.716074      C75     -H47     :   1.071673
 C76     -C77     :   1.394774      C77     -C78     :   1.399054
 C77     -H82     :   1.085211      C78     -H83     :   1.085418
 H81     -H47     :   0.678420      C3      -C12     :   1.444075
 C3      -C16     :   1.408995      C4      -C17     :   1.546628
 C4      -C18     :   1.545304      C4      -C19     :   1.549816
 C5      -C20     :   1.546780      C5      -C21     :   1.550973
 C5      -C22     :   1.553189      C6      -C7      :   1.451796
 C6      -C11     :   1.404691      C6      -C12     :   1.451434
 C7      -C8      :   1.423841      C7      -C23     :   1.523727
 C8      -C9      :   1.393503      C8      -H24     :   1.099466
 C9      -C10     :   1.395460      C9      -H25     :   1.099959
 C10     -C11     :   1.400201      C10     -H26     :   1.100162
 C11     -H27     :   1.080775      C12     -C13     :   1.411925
 C13     -C14     :   1.397376      C13     -H28     :   1.088951
 C14     -C15     :   1.392790      C14     -H29     :   1.100723
 C15     -C16     :   1.394944      C15     -H30     :   1.100243
 C16     -H31     :   1.090292      C17     -H32     :   1.104616
 C17     -H33     :   1.110991      C17     -H34     :   1.105683
 C18     -H35     :   1.109333      C18     -H36     :   1.108430
 C18     -H37     :   1.111014      C19     -H38     :   1.107558
 C19     -H39     :   1.111139      C19     -H40     :   1.109978
 C20     -H41     :   1.108938      C20     -H42     :   1.108365
 C20     -H43     :   1.110943      C21     -H44     :   1.106942
 C21     -H45     :   1.111205      C21     -H46     :   1.105178
 C22     -H47     :   1.151060      C22     -H48     :   1.105256
 C22     -H49     :   1.111662      C23     -H50     :   1.113587
 C23     -H51     :   1.103869      C23     -H52     :   1.110038
 
  bond angles:
 
 C3      -P1      -Pd2     : 108.497639  C4      -P1      -Pd2     : 121.428599
 C4      -P1      -C3      : 104.864666  C5      -P1      -Pd2     : 101.081042
 C5      -P1      -C3      : 112.557661  C5      -P1      -C4      : 108.595998
 Br3     -Pd2     -P1      :  91.807101  C76     -Pd2     -P1      :  90.416466
 C76     -Pd2     -Br3     : 177.300347  C6      -Br3     -Pd2     : 105.776391
 C7      -Br3     -Pd2     : 137.856406  C7      -Br3     -C6      :  45.587349
 C23     -Br3     -Pd2     : 170.731565  C23     -Br3     -C6      :  81.765566
 C23     -Br3     -C7      :  45.166019  C78     -C73     -C74     : 122.322517
 F79     -C73     -C74     : 118.783099  F79     -C73     -C78     : 118.893485
 C75     -C74     -C73     : 118.324718  H80     -C74     -C73     : 119.660328
 H80     -C74     -C75     : 122.014864  C76     -C75     -C74     : 120.836286
 H81     -C75     -C74     : 117.777952  H81     -C75     -C76     : 121.375364
 C22     -C75     -C74     : 107.211110  C22     -C75     -C76     : 101.354917
 C22     -C75     -H81     :  61.213992  H47     -C75     -C74     : 141.346485
 H47     -C75     -C76     :  91.985927  H47     -C75     -H81     :  36.339627
 H47     -C75     -C22     :  41.177149  C75     -C76     -Pd2     : 120.526700
 C77     -C76     -Pd2     : 120.693158  C77     -C76     -C75     : 118.676823
 C78     -C77     -C76     : 121.082212  H82     -C77     -C76     : 119.992207
 H82     -C77     -C78     : 118.918753  C77     -C78     -C73     : 118.741820
 H83     -C78     -C73     : 119.595690  H83     -C78     -C77     : 121.662078
 H47     -H81     -C75     :  69.400146  C12     -C3      -P1      : 132.048796
 C16     -C3      -P1      : 109.838904  C16     -C3      -C12     : 118.095965
 C17     -C4      -P1      : 115.726550  C18     -C4      -P1      : 113.187121
 C18     -C4      -C17     : 106.397560  C19     -C4      -P1      : 109.157549
 C19     -C4      -C17     : 106.637246  C19     -C4      -C18     : 105.016963
 C20     -C5      -P1      : 110.586812  C21     -C5      -P1      : 119.055286
 C21     -C5      -C20     : 106.972706  C22     -C5      -P1      : 107.820340
 C22     -C5      -C20     : 105.281110  C22     -C5      -C21     : 106.228760
 C7      -C6      -Br3     :  60.034466  C11     -C6      -Br3     : 121.731233
 C11     -C6      -C7      : 113.179341  C12     -C6      -Br3     :  93.829223
 C12     -C6      -C7      : 129.609460  C12     -C6      -C11     : 117.175237
 C6      -C7      -Br3     :  74.378185  C8      -C7      -Br3     : 119.112980
 C8      -C7      -C6      : 120.151911  C23     -C7      -Br3     :  79.803190
 C23     -C7      -C6      : 127.414883  C23     -C7      -C8      : 112.418711
 C9      -C8      -C7      : 123.181728  H24     -C8      -C7      : 119.897523
 H24     -C8      -C9      : 116.916225  C10     -C9      -C8      : 117.804976
 H25     -C9      -C8      : 121.430088  H25     -C9      -C10     : 120.764527
 C11     -C10     -C9      : 118.824779  H26     -C10     -C9      : 120.697297
 H26     -C10     -C11     : 120.475301  C10     -C11     -C6      : 126.851657
 H27     -C11     -C6      : 118.850258  H27     -C11     -C10     : 114.265350
 C6      -C12     -C3      : 127.953100  C13     -C12     -C3      : 115.140058
 C13     -C12     -C6      : 116.902912  C14     -C13     -C12     : 125.680314
 H28     -C13     -C12     : 121.611865  H28     -C13     -C14     : 112.651888
 C15     -C14     -C13     : 118.656653  H29     -C14     -C13     : 121.112850
 H29     -C14     -C15     : 120.224015  C16     -C15     -C14     : 117.534784
 H30     -C15     -C14     : 121.344663  H30     -C15     -C16     : 121.120432
 C15     -C16     -C3      : 124.880399  H31     -C16     -C3      : 120.203776
 H31     -C16     -C15     : 114.915635  H32     -C17     -C4      : 113.150475
 H33     -C17     -C4      : 111.205032  H33     -C17     -H32     : 105.881758
 H34     -C17     -C4      : 113.120935  H34     -C17     -H32     : 107.249389
 H34     -C17     -H33     : 105.690742  H35     -C18     -C4      : 112.051338
 H36     -C18     -C4      : 111.717341  H36     -C18     -H35     : 109.346322
 H37     -C18     -C4      : 111.494038  H37     -C18     -H35     : 106.004493
 H37     -C18     -H36     : 105.890467  H38     -C19     -C4      : 112.607488
 H39     -C19     -C4      : 111.805770  H39     -C19     -H38     : 106.363645
 H40     -C19     -C4      : 111.765660  H40     -C19     -H38     : 107.521279
 H40     -C19     -H39     : 106.396041  H41     -C20     -C5      : 112.355217
 H42     -C20     -C5      : 111.852783  H42     -C20     -H41     : 107.853355
 H43     -C20     -C5      : 111.686896  H43     -C20     -H41     : 106.975334
 H43     -C20     -H42     : 105.751100  H44     -C21     -C5      : 114.278710
 H45     -C21     -C5      : 110.948719  H45     -C21     -H44     : 104.760007
 H46     -C21     -C5      : 113.036937  H46     -C21     -H44     : 107.843371
 H46     -C21     -H45     : 105.269035  C5      -C22     -C75     : 141.651299
 H47     -C22     -C75     :  37.805369  H47     -C22     -C5      : 112.440118
 H48     -C22     -C75     :  75.319313  H48     -C22     -C5      : 111.173660
 H48     -C22     -H47     : 110.213032  H49     -C22     -C75     : 102.398461
 H49     -C22     -C5      : 110.892433  H49     -C22     -H47     : 105.120657
 H49     -C22     -H48     : 106.684127  C7      -C23     -Br3     :  55.030791
 H50     -C23     -Br3     : 147.942500  H50     -C23     -C7      : 112.569541
 H51     -C23     -Br3     :  63.432392  H51     -C23     -C7      : 115.860890
 H51     -C23     -H50     : 109.454890  H52     -C23     -Br3     : 108.079316
 H52     -C23     -C7      : 112.252345  H52     -C23     -H50     : 103.969482
 H52     -C23     -H51     : 101.577332  H81     -H47     -C75     :  74.260227
 C22     -H47     -C75     : 101.017482  C22     -H47     -H81     : 110.729097
 
  torsional angles:
 
 P1      -Pd2     -Br3     -C6      :  49.644921
 P1      -Pd2     -Br3     -C7      :  89.147816
 P1      -Pd2     -Br3     -C23     :-166.531766
 P1      -Pd2     -C76     -C75     :  82.326591
 P1      -Pd2     -C76     -C77     : -93.928923
 P1      -C3      -C12     -C6      :  -3.523084
 P1      -C3      -C12     -C13     : 177.226983
 P1      -C3      -C16     -C15     :-177.508865
 P1      -C3      -C16     -H31     :   2.324515
 P1      -C4      -C17     -H32     :  62.775345
 P1      -C4      -C17     -H33     :-178.204130
 P1      -C4      -C17     -H34     : -59.448534
 P1      -C4      -C18     -H35     : -63.511506
 P1      -C4      -C18     -H36     :  59.586319
 P1      -C4      -C18     -H37     : 177.854050
 P1      -C4      -C19     -H38     :  59.694446
 P1      -C4      -C19     -H39     : 179.384255
 P1      -C4      -C19     -H40     : -61.464719
 P1      -C5      -C20     -H41     : -56.266738
 P1      -C5      -C20     -H42     :  65.205849
 P1      -C5      -C20     -H43     :-176.484167
 P1      -C5      -C21     -H44     :  67.565990
 P1      -C5      -C21     -H45     :-174.272530
 P1      -C5      -C21     -H46     : -56.288585
 P1      -C5      -C22     -C75     : -28.228138
 P1      -C5      -C22     -H47     : -59.386790
 P1      -C5      -C22     -H48     :  64.727862
 P1      -C5      -C22     -H49     :-176.756299
 Pd2     -P1      -C3      -C12     : -31.996675
 Pd2     -P1      -C3      -C16     : 146.465763
 Pd2     -P1      -C4      -C17     : -71.929490
 Pd2     -P1      -C4      -C18     :  51.251587
 Pd2     -P1      -C4      -C19     : 167.816098
 Pd2     -P1      -C5      -C20     : -70.438985
 Pd2     -P1      -C5      -C21     : 165.130812
 Pd2     -P1      -C5      -C22     :  44.172639
 Pd2     -Br3     -C6      -C7      : 143.306563
 Pd2     -Br3     -C6      -C11     :  43.072176
 Pd2     -Br3     -C6      -C12     : -82.348036
 Pd2     -Br3     -C7      -C6      : -58.978914
 Pd2     -Br3     -C7      -C8      :  57.205857
 Pd2     -Br3     -C7      -C23     : 167.287487
 Pd2     -Br3     -C23     -C7      :-113.539265
 Pd2     -Br3     -C23     -H50     : 170.015149
 Pd2     -Br3     -C23     -H51     :  85.574506
 Pd2     -Br3     -C23     -H52     :  -8.599957
 Pd2     -C76     -C75     -C74     :-177.876681
 Pd2     -C76     -C75     -H81     :   3.322447
 Pd2     -C76     -C75     -C22     : -59.753299
 Pd2     -C76     -C75     -H47     : -19.323612
 Pd2     -C76     -C77     -C78     : 177.402539
 Pd2     -C76     -C77     -H82     :  -1.636552
 Br3     -Pd2     -P1      -C3      :  -0.930087
 Br3     -Pd2     -P1      -C4      :-122.360436
 Br3     -Pd2     -P1      -C5      : 117.606334
 Br3     -Pd2     -C76     -C75     : -63.129530
 Br3     -Pd2     -C76     -C77     : 120.614956
 Br3     -C6      -C7      -C8      :-114.949511
 Br3     -C6      -C7      -C23     :  63.555285
 Br3     -C6      -C11     -C10     :  67.873911
 Br3     -C6      -C11     -H27     :-114.334995
 Br3     -C6      -C12     -C3      :  64.022531
 Br3     -C6      -C12     -C13     :-116.738890
 Br3     -C7      -C6      -C11     : 114.426973
 Br3     -C7      -C6      -C12     : -67.848168
 Br3     -C7      -C8      -C9      : -87.274306
 Br3     -C7      -C8      -H24     :  91.927493
 Br3     -C7      -C23     -H50     : 146.028423
 Br3     -C7      -C23     -H51     :  18.993590
 Br3     -C7      -C23     -H52     : -97.065833
 Br3     -C23     -C7      -C6      : -61.178739
 Br3     -C23     -C7      -C8      : 117.422679
 C73     -C74     -C75     -C76     :   1.166086
 C73     -C74     -C75     -H81     :-179.991041
 C73     -C74     -C75     -C22     :-113.982850
 C73     -C74     -C75     -H47     :-143.028294
 C73     -C78     -C77     -C76     :  -0.248531
 C73     -C78     -C77     -H82     : 178.800674
 C74     -C73     -C78     -C77     :  -0.147474
 C74     -C73     -C78     -H83     : 179.622960
 C74     -C75     -C76     -C77     :  -1.546686
 C74     -C75     -H81     -H47     : 140.668499
 C74     -C75     -C22     -C5      : 156.149059
 C74     -C75     -C22     -H47     :-152.574595
 C74     -C75     -C22     -H48     :  50.446045
 C74     -C75     -C22     -H49     : -53.811288
 C74     -C75     -H47     -H81     : -63.868802
 C74     -C75     -H47     -C22     :  44.780280
 C75     -C74     -C73     -C78     :  -0.309301
 C75     -C74     -C73     -F79     : 179.341799
 C75     -C76     -C77     -C78     :   1.078865
 C75     -C76     -C77     -H82     :-177.960225
 C75     -H81     -H47     -C22     : -96.063808
 C75     -C22     -C5      -C20     :  89.852316
 C75     -C22     -C5      -C21     :-156.900495
 C75     -C22     -H47     -H81     :  77.184739
 C75     -H47     -C22     -C5      : 148.418523
 C75     -H47     -C22     -H48     :  23.773513
 C75     -H47     -C22     -H49     : -90.833684
 C76     -Pd2     -P1      -C3      :-179.398906
 C76     -Pd2     -P1      -C4      :  59.170746
 C76     -Pd2     -P1      -C5      : -60.862485
 C76     -Pd2     -Br3     -C6      :-164.917545
 C76     -Pd2     -Br3     -C7      :-125.414649
 C76     -Pd2     -Br3     -C23     : -21.094231
 C76     -C75     -C74     -H80     :-178.943358
 C76     -C75     -H81     -H47     : -40.495217
 C76     -C75     -C22     -C5      :  28.593179
 C76     -C75     -C22     -H47     :  79.869525
 C76     -C75     -C22     -H48     : -77.109835
 C76     -C75     -C22     -H49     : 178.632832
 C76     -C75     -H47     -H81     : 146.305722
 C76     -C75     -H47     -C22     :-105.045196
 C76     -C77     -C78     -H83     : 179.985991
 C77     -C76     -C75     -H81     : 179.652443
 C77     -C76     -C75     -C22     : 116.576696
 C77     -C76     -C75     -H47     : 157.006384
 C77     -C78     -C73     -F79     :-179.798203
 C78     -C73     -C74     -H80     : 179.797491
 F79     -C73     -C74     -H80     :  -0.551410
 F79     -C73     -C78     -H83     :  -0.027769
 H80     -C74     -C75     -H81     :  -0.100486
 H80     -C74     -C75     -C22     :  65.907705
 H80     -C74     -C75     -H47     :  36.862262
 H81     -C75     -C22     -C5      : -91.114624
 H81     -C75     -C22     -H47     : -39.838278
 H81     -C75     -C22     -H48     : 163.182362
 H81     -C75     -C22     -H49     :  58.925029
 H81     -C75     -H47     -C22     : 108.649082
 H81     -H47     -C75     -C22     :-108.649082
 H81     -H47     -C22     -C5      :-134.396738
 H81     -H47     -C22     -H48     : 100.958252
 H81     -H47     -C22     -H49     : -13.648945
 H82     -C77     -C78     -H83     :  -0.964804
 C3      -P1      -C4      -C17     : 164.917112
 C3      -P1      -C4      -C18     : -71.901811
 C3      -P1      -C4      -C19     :  44.662701
 C3      -P1      -C5      -C20     :  45.119363
 C3      -P1      -C5      -C21     : -79.310841
 C3      -P1      -C5      -C22     : 159.730987
 C3      -C12     -C6      -C7      : 117.553280
 C3      -C12     -C6      -C11     : -64.797765
 C3      -C12     -C13     -C14     :   0.401716
 C3      -C12     -C13     -H28     : 177.477555
 C3      -C16     -C15     -C14     :  -0.381763
 C3      -C16     -C15     -H30     : 179.743313
 C4      -P1      -C3      -C12     :  99.126196
 C4      -P1      -C3      -C16     : -82.411367
 C4      -P1      -C5      -C20     : 160.768206
 C4      -P1      -C5      -C21     :  36.338002
 C4      -P1      -C5      -C22     : -84.620170
 C5      -P1      -C3      -C12     :-143.000307
 C5      -P1      -C3      -C16     :  35.462131
 C5      -P1      -C4      -C17     :  44.382339
 C5      -P1      -C4      -C18     : 167.563416
 C5      -P1      -C4      -C19     : -75.872072
 C5      -C22     -C75     -H47     : -51.276346
 C6      -Br3     -C7      -C8      : 116.184771
 C6      -Br3     -C7      -C23     :-133.733599
 C6      -Br3     -C23     -C7      :  31.433979
 C6      -Br3     -C23     -H50     : -45.011607
 C6      -Br3     -C23     -H51     :-129.452251
 C6      -Br3     -C23     -H52     : 136.373287
 C6      -C7      -Br3     -C23     : 133.733599
 C6      -C7      -C8      -C9      :   0.836591
 C6      -C7      -C8      -H24     :-179.961610
 C6      -C7      -C23     -H50     :  84.849684
 C6      -C7      -C23     -H51     : -42.185149
 C6      -C7      -C23     -H52     :-158.244572
 C6      -C11     -C10     -C9      :   0.573243
 C6      -C11     -C10     -H26     : 179.988198
 C6      -C12     -C3      -C16     : 178.116451
 C6      -C12     -C13     -C14     :-178.935073
 C6      -C12     -C13     -H28     :  -1.859234
 C7      -Br3     -C6      -C11     :-100.234386
 C7      -Br3     -C6      -C12     : 134.345402
 C7      -Br3     -C23     -H50     : -76.445586
 C7      -Br3     -C23     -H51     :-160.886230
 C7      -Br3     -C23     -H52     : 104.939308
 C7      -C6      -Br3     -C23     : -31.181077
 C7      -C6      -C11     -C10     :  -0.159880
 C7      -C6      -C11     -H27     : 177.631214
 C7      -C6      -C12     -C13     : -63.208141
 C7      -C8      -C9      -C10     :  -0.412286
 C7      -C8      -C9      -H25     : 179.818795
 C8      -C7      -Br3     -C23     :-110.081630
 C8      -C7      -C6      -C11     :  -0.522538
 C8      -C7      -C6      -C12     : 177.202322
 C8      -C7      -C23     -H50     : -96.548899
 C8      -C7      -C23     -H51     : 136.416268
 C8      -C7      -C23     -H52     :  20.356846
 C8      -C9      -C10     -C11     :  -0.266616
 C8      -C9      -C10     -H26     :-179.680231
 C9      -C8      -C7      -C23     :-177.878778
 C9      -C10     -C11     -H27     :-177.304557
 C10     -C9      -C8      -H24     :-179.636242
 C10     -C11     -C6      -C12     :-178.189732
 C11     -C6      -Br3     -C23     :-131.415463
 C11     -C6      -C7      -C23     : 177.982258
 C11     -C6      -C12     -C13     : 114.440815
 C11     -C10     -C9      -H25     : 179.503916
 C12     -C3      -C16     -C15     :   1.196909
 C12     -C3      -C16     -H31     :-178.969712
 C12     -C6      -Br3     -C23     : 103.164325
 C12     -C6      -C7      -C23     :  -4.292882
 C12     -C6      -C11     -H27     :  -0.398638
 C12     -C13     -C14     -C15     :   0.398881
 C12     -C13     -C14     -H29     : 179.474588
 C13     -C12     -C3      -C16     :  -1.133481
 C13     -C14     -C15     -C16     :  -0.420100
 C13     -C14     -C15     -H30     : 179.454527
 C14     -C15     -C16     -H31     : 179.777016
[...]
    C76      X     0.00002  -0.00002   0.00052  -0.00005  -0.00008   0.00254
    C76      Y    -0.00001  -0.00002  -0.00171   0.00002  -0.00001   0.00126
    C76      Z    -0.00001  -0.00001  -0.00013   0.00001   0.00001  -0.00050
    C77      X     0.00005  -0.00001   0.02966   0.00039   0.00005   0.00002
    C77      Y     0.00004  -0.00002   0.02157   0.00023   0.00001   0.00070
    C77      Z    -0.00000   0.00001  -0.00364  -0.00005  -0.00000   0.00004
    C78      X    -0.00004  -0.00007  -0.01310  -0.00021  -0.00001  -0.00008
    C78      Y     0.00024   0.00043   0.07537   0.00118   0.00002   0.00133
    C78      Z     0.00002   0.00003   0.00433   0.00007   0.00000   0.00004
    F79      X    -0.00001   0.00000   0.00050   0.00001   0.00001   0.00013
    F79      Y     0.00000  -0.00000  -0.00001  -0.00000   0.00000  -0.00013
    F79      Z    -0.00000   0.00000  -0.00008  -0.00000   0.00000  -0.00002
    H80      X    -0.00389   0.00164  -0.01911   0.00072  -0.00221   0.12480
    H80      Y    -0.00316   0.00134  -0.01451   0.00055  -0.00175   0.09792
    H80      Z     0.00077  -0.00033   0.00379  -0.00014   0.00044  -0.02491
    H81      X    -0.00017  -0.00007   0.00214   0.00018   0.00283  -0.14660
    H81      Y     0.00122   0.00023  -0.01009  -0.00144  -0.01810   0.92782
    H81      Z    -0.00005  -0.00004  -0.00001   0.00005   0.00019  -0.00855
    H82      X    -0.00048   0.00049  -0.30954  -0.00339  -0.00039  -0.00235
    H82      Y    -0.00044   0.00037  -0.25793  -0.00271  -0.00029  -0.00253
    H82      Z    -0.00002  -0.00019   0.03699   0.00039   0.00003   0.00035
    H83      X     0.00047   0.00086   0.14438   0.00236   0.00006   0.00213
    H83      Y    -0.00273  -0.00499  -0.84711  -0.01344  -0.00022  -0.01373
    H83      Z    -0.00016  -0.00030  -0.04847  -0.00078  -0.00002  -0.00076
    C3       X     0.00014  -0.00003   0.00002  -0.00002  -0.00100  -0.00001
    C3       Y     0.00013  -0.00003   0.00000   0.00001   0.00066   0.00003
    C3       Z     0.00021   0.00001   0.00002   0.00012   0.00245   0.00006
    C4       X     0.00001   0.00002  -0.00000   0.00004   0.00006  -0.00000
    C4       Y    -0.00001   0.00002   0.00003   0.00002   0.00001   0.00001
    C4       Z     0.00001  -0.00001  -0.00001  -0.00003  -0.00008   0.00002
    C5       X     0.00002  -0.00000   0.00001   0.00001   0.00024   0.00003
    C5       Y     0.00003  -0.00000  -0.00000   0.00000   0.00006  -0.00010
    C5       Z     0.00001   0.00001   0.00001  -0.00000  -0.00005   0.00001
    C6       X     0.00010   0.00059  -0.00003   0.00061  -0.00004  -0.00003
    C6       Y    -0.00062  -0.00143  -0.00001  -0.00206  -0.00001  -0.00001
    C6       Z    -0.00009  -0.00020   0.00000  -0.00100   0.00003  -0.00003
    C7       X    -0.00001   0.00000   0.00001   0.00023   0.00001  -0.00003
    C7       Y     0.00043   0.00104   0.00000  -0.00079  -0.00003  -0.00005
    C7       Z     0.00077   0.00192   0.00002  -0.00039  -0.00001   0.00000
    C8       X    -0.00616  -0.01727  -0.00004   0.00835   0.00001   0.00003
    C8       Y     0.01022   0.02861   0.00008  -0.01406  -0.00002  -0.00004
    C8       Z    -0.01367  -0.03813  -0.00010   0.01772   0.00003   0.00011
    C9       X     0.00023   0.00058  -0.00002   0.00059  -0.00000   0.00001
    C9       Y    -0.00700  -0.02008  -0.00002   0.01231   0.00001   0.00001
    C9       Z    -0.01442  -0.04182  -0.00014   0.03084   0.00004   0.00004
    C10      X     0.00005   0.00111   0.00026  -0.01341  -0.00002  -0.00001
    C10      Y     0.00052  -0.00135  -0.00066   0.03717   0.00007   0.00002
    C10      Z     0.00129   0.00308  -0.00012   0.00648   0.00001  -0.00001
    C11      X    -0.00519  -0.01295   0.00033  -0.02009  -0.00004  -0.00002
    C11      Y     0.00867   0.02154  -0.00054   0.03249   0.00005   0.00005
    C11      Z    -0.01265  -0.03152   0.00093  -0.05113  -0.00010  -0.00003
    C12      X     0.00148  -0.00061  -0.00000  -0.00006   0.00051   0.00002
    C12      Y     0.00026   0.00005  -0.00001   0.00019   0.00035   0.00000
    C12      Z    -0.00087   0.00032  -0.00001  -0.00005   0.00036  -0.00001
    C13      X    -0.02382   0.00916  -0.00001   0.00090   0.00094   0.00001
    C13      Y    -0.01797   0.00689  -0.00000   0.00068   0.00078   0.00001
    C13      Z    -0.02312   0.00892   0.00000   0.00100   0.00108   0.00002
    C14      X    -0.05534   0.02007   0.00007   0.00121   0.00263   0.00007
    C14      Y    -0.01139   0.00411   0.00002   0.00022   0.00093   0.00002
    C14      Z     0.02225  -0.00811  -0.00003  -0.00055  -0.00014  -0.00001
    C15      X    -0.00568   0.00200   0.00001   0.00005   0.00542   0.00011
    C15      Y     0.01246  -0.00443  -0.00001  -0.00017  -0.00365  -0.00007
    C15      Z     0.03494  -0.01241  -0.00005  -0.00045  -0.01354  -0.00027
    C16      X    -0.00352   0.00128   0.00004   0.00018  -0.05488  -0.00107
    C16      Y    -0.00344   0.00123   0.00003   0.00013  -0.03903  -0.00076
    C16      Z    -0.00517   0.00185   0.00004   0.00017  -0.04568  -0.00089
    C17      X     0.00001  -0.00001  -0.00007  -0.00003  -0.00000  -0.00007
    C17      Y     0.00004   0.00005   0.00023   0.00006  -0.00001  -0.00005
    C17      Z     0.00005   0.00007   0.00083   0.00006  -0.00008   0.00064
    C18      X     0.00037   0.00082  -0.00045   0.00102   0.00002  -0.00002
    C18      Y     0.00000   0.00004  -0.00004   0.00007   0.00003   0.00001
    C18      Z     0.00015   0.00044   0.00122   0.00049  -0.00015   0.00000
    C19      X     0.00032  -0.00002   0.00002   0.00003   0.00170   0.00002
    C19      Y     0.00005   0.00009   0.00009   0.00009   0.00072  -0.00002
    C19      Z    -0.00002   0.00002   0.00001   0.00001  -0.00022  -0.00002
    C20      X     0.00005   0.00001   0.00000  -0.00004   0.00018  -0.00002
    C20      Y     0.00006   0.00000  -0.00001  -0.00004   0.00006  -0.00002
    C20      Z    -0.00005   0.00000  -0.00002  -0.00001  -0.00026  -0.00003
    C21      X     0.00095  -0.00031   0.00000  -0.00005   0.00363   0.00002
    C21      Y     0.00019  -0.00005   0.00002  -0.00000   0.00066   0.00001
    C21      Z    -0.00060   0.00020  -0.00002   0.00001  -0.00282  -0.00002
    C22      X    -0.00000   0.00001   0.00001  -0.00002  -0.00009  -0.00036
    C22      Y     0.00002  -0.00000  -0.00004   0.00000   0.00000   0.00093
    C22      Z    -0.00002   0.00001  -0.00001  -0.00001  -0.00015   0.00022
    C23      X    -0.00015  -0.00008   0.00002   0.00006   0.00001   0.00001
    C23      Y    -0.00000   0.00009   0.00002  -0.00016   0.00000  -0.00001
    C23      Z    -0.00033  -0.00105   0.00000   0.00009   0.00003  -0.00000
    H24      X     0.06669   0.18597   0.00048  -0.08722  -0.00014  -0.00041
    H24      Y    -0.10913  -0.30456  -0.00078   0.14300   0.00023   0.00066
    H24      Z     0.15748   0.43895   0.00111  -0.20456  -0.00040  -0.00097
    H25      X     0.00047   0.00158  -0.00002  -0.00256  -0.00001   0.00000
    H25      Y     0.07024   0.20292   0.00050  -0.13969  -0.00020  -0.00021
    H25      Z     0.16296   0.47127   0.00124  -0.33194  -0.00047  -0.00045
    H26      X     0.00201  -0.00531  -0.00260   0.14568   0.00029   0.00007
    H26      Y    -0.00632   0.01214   0.00724  -0.39945  -0.00077  -0.00015
    H26      Z    -0.00250  -0.00264   0.00112  -0.05947  -0.00015  -0.00002
    H27      X     0.06037   0.15065  -0.00420   0.23328   0.00033   0.00018
    H27      Y    -0.09891  -0.24598   0.00684  -0.37994  -0.00058  -0.00032
    H27      Z     0.14607   0.36351  -0.01026   0.56627   0.00090   0.00044
    H28      X     0.27793  -0.10730   0.00011  -0.01090  -0.01072  -0.00011
    H28      Y     0.19580  -0.07535   0.00007  -0.00745  -0.00765  -0.00009
    H28      Z     0.23591  -0.09097   0.00007  -0.00938  -0.00923  -0.00013
    H29      X     0.61038  -0.22142  -0.00077  -0.01360  -0.02274  -0.00061
    H29      Y     0.12582  -0.04561  -0.00016  -0.00274  -0.00516  -0.00014
    H29      Z    -0.24439   0.08872   0.00031   0.00556   0.00781   0.00022
    H30      X     0.08603  -0.03051  -0.00014  -0.00107  -0.03503  -0.00071
    H30      Y    -0.12680   0.04500   0.00019   0.00166   0.04405   0.00089
    H30      Z    -0.38072   0.13509   0.00058   0.00488   0.13714   0.00279
    H31      X     0.05967  -0.02143  -0.00052  -0.00216   0.63373   0.01235
    H31      Y     0.04379  -0.01573  -0.00037  -0.00149   0.45127   0.00879
    H31      Z     0.05263  -0.01888  -0.00044  -0.00168   0.52625   0.01027
    H32      X     0.00007   0.00013   0.00177   0.00010  -0.00046   0.00150
    H32      Y    -0.00002  -0.00000  -0.00040   0.00000   0.00004  -0.00051
    H32      Z    -0.00035  -0.00066  -0.00948  -0.00058   0.00147  -0.00784
    H33      X    -0.00019   0.00012  -0.00011   0.00021   0.00048  -0.00067
    H33      Y     0.00016  -0.00013   0.00026  -0.00024  -0.00034   0.00093
    H33      Z    -0.00010   0.00011   0.00015   0.00018   0.00018  -0.00052
    H34      X    -0.00011  -0.00016  -0.00081  -0.00014   0.00004   0.00002
    H34      Y    -0.00048  -0.00053  -0.00285  -0.00052   0.00015   0.00014
    H34      Z    -0.00018  -0.00019  -0.00091  -0.00021  -0.00001   0.00031
    H35      X     0.00062   0.00167   0.00139   0.00205  -0.00030   0.00003
    H35      Y    -0.00027  -0.00079  -0.00178  -0.00094   0.00024   0.00001
    H35      Z    -0.00219  -0.00652  -0.01325  -0.00782   0.00156  -0.00019
    H36      X    -0.00460  -0.01083   0.00498  -0.01433  -0.00067   0.00011
    H36      Y    -0.00142  -0.00312   0.00109  -0.00424  -0.00012   0.00005
    H36      Z     0.00091   0.00209  -0.00131   0.00242  -0.00001  -0.00000
    H37      X    -0.00131  -0.00258  -0.00096  -0.00302   0.00053   0.00008
    H37      Y     0.00129   0.00254   0.00083   0.00299  -0.00048  -0.00007
    H37      Z    -0.00111  -0.00227  -0.00049  -0.00273   0.00033   0.00009
    H38      X     0.00002  -0.00021  -0.00019  -0.00020  -0.00096   0.00003
    H38      Y    -0.00009  -0.00117  -0.00124  -0.00104  -0.00121   0.00030
    H38      Z    -0.00006  -0.00049  -0.00062  -0.00046  -0.00104   0.00012
    H39      X    -0.00119   0.00046   0.00027   0.00027  -0.00434  -0.00006
    H39      Y     0.00103  -0.00036  -0.00021  -0.00021   0.00322   0.00004
    H39      Z    -0.00057   0.00025   0.00023   0.00018  -0.00150   0.00001
    H40      X    -0.00309   0.00019  -0.00027  -0.00043  -0.01925  -0.00021
    H40      Y    -0.00124   0.00019  -0.00005  -0.00005  -0.00695  -0.00008
    H40      Z     0.00101  -0.00004   0.00008   0.00016   0.00540   0.00004
    H41      X    -0.00052  -0.00007  -0.00008   0.00033  -0.00251   0.00037
    H41      Y     0.00010  -0.00007  -0.00002   0.00005  -0.00013   0.00003
    H41      Z     0.00025   0.00014   0.00007  -0.00031   0.00070  -0.00022
    H42      X     0.00000  -0.00000   0.00006   0.00003   0.00005   0.00007
    H42      Y     0.00006  -0.00001  -0.00001   0.00003   0.00028   0.00011
    H42      Z     0.00016  -0.00012   0.00010   0.00035   0.00177   0.00041
    H43      X    -0.00019   0.00002   0.00003   0.00010  -0.00009   0.00003
    H43      Y    -0.00082  -0.00001   0.00005   0.00033  -0.00032   0.00029
    H43      Z     0.00002  -0.00001   0.00002   0.00003   0.00000  -0.00003
    H44      X    -0.00913   0.00303  -0.00016   0.00028  -0.04467  -0.00034
    H44      Y    -0.00338   0.00115  -0.00005   0.00011  -0.01890  -0.00022
    H44      Z     0.00880  -0.00290   0.00015  -0.00030   0.04174   0.00024
    H45      X    -0.00008   0.00001   0.00001  -0.00000   0.00042   0.00002
    H45      Y    -0.00185   0.00046  -0.00006   0.00004  -0.00459  -0.00005
    H45      Z    -0.00011   0.00003   0.00002  -0.00000  -0.00078   0.00004
    H46      X    -0.00336   0.00111   0.00012   0.00031  -0.00997  -0.00001
    H46      Y     0.00183  -0.00058  -0.00004  -0.00014   0.00581  -0.00000
    H46      Z    -0.00119   0.00039   0.00002   0.00010  -0.00398   0.00004
    H47      X     0.00009  -0.00003   0.00005   0.00001   0.00065  -0.00076
    H47      Y     0.00005  -0.00001  -0.00006  -0.00001   0.00016  -0.00029
    H47      Z     0.00020  -0.00008   0.00017   0.00011   0.00158  -0.01032
    H48      X     0.00002  -0.00005  -0.00032   0.00014  -0.00018   0.01102
    H48      Y     0.00001   0.00003   0.00019  -0.00009  -0.00002  -0.00608
    H48      Z     0.00002  -0.00001  -0.00011   0.00002   0.00002   0.00251
    H49      X    -0.00014   0.00001   0.00006   0.00002   0.00001  -0.00087
    H49      Y    -0.00050   0.00005   0.00026   0.00007   0.00001  -0.00568
    H49      Z    -0.00003   0.00000   0.00008   0.00001   0.00005  -0.00118
    H50      X     0.00239   0.00234  -0.00022  -0.00199  -0.00024  -0.00009
    H50      Y    -0.00033  -0.00063  -0.00001   0.00061   0.00002   0.00002
    H50      Z     0.00013  -0.00067  -0.00002   0.00004  -0.00003  -0.00001
    H51      X     0.00045   0.00198  -0.00001   0.00004  -0.00003   0.00002
    H51      Y     0.00033   0.00135  -0.00009   0.00107  -0.00015   0.00005
    H51      Z     0.00163   0.00595  -0.00019   0.00109  -0.00014   0.00008
    H52      X    -0.00060  -0.00253  -0.00005   0.00054   0.00006   0.00003
    H52      Y    -0.00160  -0.00552  -0.00015   0.00223   0.00012   0.00010
    H52      Z     0.00127   0.00471   0.00018  -0.00144  -0.00019  -0.00006
  
  Number of imaginary frequencies:   0
   
  Writing vibrational animation data to ox_add_L_trans_L1_PL154.vib
  Writing IR vibrational spectrum data to ox_add_L_trans_L1_PL154_vib.spm
  rotational symmetry number:  1

  rotational temperatures (K):      0.007056      0.005324      0.004159
   
  The Quasi-Harmonic approximation will be applied to compute
  vibrational constributions to thermodynamic properties.
  Frequencies will be adjusted to a minimum value of  100.00 cm^-1.

  vibrational temperatures:
       mode:      1        2        3        4        5        6
  temp. (K):   143.88   143.88   143.88   143.88   143.88   143.88
   
       mode:      7        8        9       10       11       12
  temp. (K):   143.88   143.88   143.88   143.88   148.64   155.32
   
       mode:     13       14       15       16       17       18
  temp. (K):   163.41   185.41   195.36   205.57   214.25   228.91
   
       mode:     19       20       21       22       23       24
  temp. (K):   242.82   251.52   287.10   295.18   314.17   344.38
   
       mode:     25       26       27       28       29       30
  temp. (K):   350.95   355.71   363.78   369.47   375.80   389.83
   
       mode:     31       32       33       34       35       36
  temp. (K):   421.03   426.41   447.62   457.00   473.38   479.14
   
       mode:     37       38       39       40       41       42
  temp. (K):   499.02   510.29   515.27   555.26   582.61   588.30
   
       mode:     43       44       45       46       47       48
  temp. (K):   596.05   597.13   603.60   618.57   628.33   665.93
   
       mode:     49       50       51       52       53       54
  temp. (K):   703.56   730.31   744.42   751.80   772.16   805.68
   
       mode:     55       56       57       58       59       60
  temp. (K):   833.90   840.31   853.56   889.87   908.36   909.91
   
       mode:     61       62       63       64       65       66
  temp. (K):   992.63  1006.01  1063.45  1080.30  1106.96  1118.19
   
       mode:     67       68       69       70       71       72
  temp. (K):  1140.16  1182.09  1182.89  1194.02  1197.84  1200.85
   
       mode:     73       74       75       76       77       78
  temp. (K):  1211.23  1277.10  1306.08  1363.35  1375.90  1378.43
   
       mode:     79       80       81       82       83       84
  temp. (K):  1385.51  1388.52  1391.96  1401.74  1414.33  1424.09
   
       mode:     85       86       87       88       89       90
  temp. (K):  1429.38  1454.26  1457.69  1468.96  1476.14  1476.38
   
       mode:     91       92       93       94       95       96
  temp. (K):  1503.42  1515.34  1519.24  1524.40  1533.27  1538.59
   
       mode:     97       98       99      100      101      102
  temp. (K):  1552.34  1559.23  1597.92  1623.66  1665.80  1678.46
   
       mode:    103      104      105      106      107      108
  temp. (K):  1718.47  1737.99  1741.11  1744.63  1753.54  1775.37
   
       mode:    109      110      111      112      113      114
  temp. (K):  1779.57  1784.78  1793.80  1805.16  1844.20  1849.47
   
       mode:    115      116      117      118      119      120
  temp. (K):  1879.13  1893.38  1897.75  1933.19  1941.73  1963.08
   
       mode:    121      122      123      124      125      126
  temp. (K):  2046.60  2050.25  2053.41  2056.79  2056.87  2061.94
   
       mode:    127      128      129      130      131      132
  temp. (K):  2095.92  2107.06  2117.58  2134.45  2160.97  2161.85
   
       mode:    133      134      135      136      137      138
  temp. (K):  2167.97  2173.43  2176.00  2176.08  2184.62  2184.95
   
       mode:    139      140      141      142      143      144
  temp. (K):  2187.65  2196.67  2199.65  2202.82  2211.21  2216.46
   
       mode:    145      146      147      148      149      150
  temp. (K):  2220.92  2231.70  2236.04  2338.19  2342.44  2366.53
   
       mode:    151      152      153      154      155      156
  temp. (K):  2375.88  2380.48  2397.89  4381.25  4386.07  4388.11
   
       mode:    157      158      159      160      161      162
  temp. (K):  4390.66  4390.99  4392.44  4397.21  4481.27  4486.85
   
       mode:    163      164      165      166      167      168
  temp. (K):  4490.04  4494.09  4496.28  4500.98  4504.42  4530.95
   
       mode:    169      170      171      172      173      174
  temp. (K):  4547.74  4549.68  4551.25  4570.09  4584.67  4587.35
   
       mode:    175      176      177      178      179      180
  temp. (K):  4590.34  4591.47  4604.62  4606.79  4607.52  4622.04
   
       mode:    181      182      183      184      185      186
  temp. (K):  4625.09  4625.30  4634.02  4634.55  4683.27  4685.58
   
   
  Thermodynamic properties calculated assuming an ideal gas

  In the table below, the units for temperature
  are kelvins, the units for U, H, and G are
  kcal/mol and the units for Cv and S are cal/(mol K)

  The zero point energy (ZPE):    336.199 kcal/mol
  is not included in U, H, or G in the table below
  
 
  =============================================================================
  Thermodynamic properties for P = 1.00E+00 atm, calculated at   1 temperatures


  T =   298.15 K, P = 1.00E+00 atm
   
                  U         Cv          S          H          G        ln(Q)
              =========  =========  =========  =========  =========  =========
  trans.          0.889      2.981     45.019      1.481    -11.941   20.15452
  rot.            0.889      2.981     36.673      0.889    -10.045   16.95473
  vib.           18.712    121.747    113.588     18.712    -15.154   25.57693
  elec.           0.000      0.000      0.000      0.000      0.000    0.00000
  ----------------------------------------------------------------------------
  total          20.490    127.709    195.281     21.082    -37.141   62.68617
   
   Total internal energy, Utot(SCFE + ZPE + U):   -1629.059489 hartrees
   Total enthalpy, Htot (Utot + nRT), with n=1:   -1629.058544 hartrees
    Total Gibbs free energy, Gtot (Htot - T*S):   -1629.151329 hartrees
   
  end of program freq
   
 Time(freq)  user:       0.292  user+sys:       0.292  wallclock:       0.360
  
  start of program post
  
  Writing input files for PBF
  end of program post
   
 Time(post)  user:       0.162  user+sys:       0.162  wallclock:       0.131

 Total cpu seconds     user:   85394.064   user+sys:   85394.064
  
 Total elapsed time:    49232 seconds

Job ox_add_L_trans_L1_PL154 completed on bp1-compute145.data.bp.acrc.priv at Tue Mar 25 04:34:57 2025
