Job PL154 started on bp1-compute084.data.bp.acrc.priv at Wed Mar 26 18:05:52 2025
jobid: bp1-compute084-0-67e441fa

  +--------------------------------------------------------------------+
  |  Jaguar version 12.5, release 138                                  |
  |                                                                    |
  |  Copyright Schrodinger, Inc.                                       |
  |  All Rights Reserved.                                              |
  |                                                                    |
  |  The following have contributed to Jaguar (listed alphabetically): |
  |  Ty Balduf, Mike Beachy, Chandler Bennett, Art Bochevarov,         |
  |  Dale Braden, Yixiang Cao, Alan Chien, Chris Cortis,               |
  |  Rich Friesner, Jim Furness, Bill Goddard, Hod Greeley,            |
  |  Tom Hughes, Leif Jacobson, Jean-Marc Langlois, Daniel Levine,     |
  |  Rob Murphy, Dean Philipp, Tom Pollard, Murco Ringnalda,           |
  |  Daniel Mainz, Pablo Videla, Mark Watson, Haoyu Yu.                |
  |                                                                    |
  |  Use of this program should be acknowledged in publications as:    |
  |                                                                    |
  |  Jaguar, version 12.5, Schrodinger, Inc., New York, NY, 2024.      |
  |                                                                    |
  |  A. D. Bochevarov, E. Harder, T. F. Hughes, J. R. Greenwood,       |
  |  D. A. Braden, D. M. Philipp, D. Rinaldo, M. D. Halls,             |
  |  J. Zhang, R. A. Friesner, "Jaguar: A High-Performance Quantum     |
  |  Chemistry Software Program with Strengths in Life and Materials   |
  |  Sciences", Int. J. Quantum Chem., 2013, 113(18), 2110-2142.       |
  +--------------------------------------------------------------------+
  
  start of program pre
  
  Job name: PL154
  Executables used: /software/local/apps/schrodinger2024-3/jaguar-v12.5/bin/Linux-x86_64
  Temporary files : /tmp/ar21627/PL154#bp1-compute084-0-67e441fa
  Basis file : using default basis file from /software/local/apps/schrodinger2024-3
  Maestro file (input):  PL154.mae
  Maestro file (output): PL154.01.mae
  
 Contents of input file: &gen and (if present) &atomic sections only
 ----------------Contents start----------------
&gen
dftname=b3pw91-d3
basis=6-31G*
numd=5
ip11=2
iaccg=3
isolv=2
igeopt=1
solvent=benzene
ifreq=1
&
 -----------------Contents end-----------------
 
  PS calculation requested. Using PS version of 6-31g*
  basis set:               6-31g*                          
  net molecular charge:    0
  multiplicity:            1
  
  Using up to   4 threads per process
  
  number of basis functions....          370
  
 Input geometry:
                                   angstroms
  atom               x                 y                 z
  P1            0.0000000000      0.0000000000      0.0000000000 
  C3            1.8168740000      0.0000000000     -0.5778410000 
  C4           -0.8434890000      1.4252840000     -0.9715180000 
  C5           -0.8972560000     -1.6587410000     -0.3454820000 
  C6            3.1495210000      1.3984640000      1.1560820000 
  C7            3.8588263281      1.1355513573      2.3736813746 
  C8            3.8867198551      2.0949863329      3.4109786919 
  C9            3.2436713859      3.3334635638      3.3380250593 
  C10           2.5408797757      3.6173351334      2.1694795371 
  C11           2.5256422589      2.6599211623      1.1483858364 
  C12           3.0135280000      0.5741960000     -0.0169290000 
  C13           4.1905000000      0.2861180000     -0.7490990000 
  C14           4.2768280000     -0.4722710000     -1.9225270000 
  C15           3.1083040000     -1.0053740000     -2.4560800000 
  C16           1.9211360000     -0.7480340000     -1.7680690000 
  C17          -2.3917700000      1.4641300000     -0.9448800000 
  C18          -0.3788420000      2.8361950000     -0.5323130000 
  C19          -0.4455240000      1.3408580000     -2.4674050000 
  C20          -0.0177960000     -2.8755410000      0.0296550000 
  C21          -1.4453590000     -1.9535040000     -1.7679970000 
  C22          -2.1262300000     -1.7392700000      0.5941800000 
  C23           4.5637188704     -0.1496340805      2.7549693092 
  H24           4.4281014864      1.8864358777      4.3488201825 
  H25           3.2854925696      4.0574705499      4.1691033164 
  H26           2.0157266420      4.5805592357      2.0515936415 
  H27           1.9883373856      2.9823097538      0.2660395240 
  H28           5.1648570000      0.6855070000     -0.4721570000 
  H29           5.2430580000     -0.6375380000     -2.4300450000 
  H30           3.1237660000     -1.6027090000     -3.3835720000 
  H31           1.0324530000     -1.1846760000     -2.2280190000 
  H32          -2.8081380000      1.6140360000      0.0705490000 
  H33          -2.7931410000      2.3029860000     -1.5580800000 
  H34          -2.8583580000      0.5482850000     -1.3582140000 
  H35          -0.6553110000      3.0576040000      0.5218020000 
  H36           0.7195950000      2.9676930000     -0.6585650000 
  H37          -0.8498760000      3.6399150000     -1.1432090000 
  H38          -0.7462210000      0.3798070000     -2.9348810000 
  H39          -0.9210170000      2.1442960000     -3.0752880000 
  H40           0.6524840000      1.4549820000     -2.6096750000 
  H41           0.9648250000     -2.8622550000     -0.4905250000 
  H42           0.1711760000     -2.9295420000      1.1223420000 
  H43          -0.5069560000     -3.8419160000     -0.2300880000 
  H44          -0.6634350000     -2.0908620000     -2.5422720000 
  H45          -2.0275400000     -2.9029450000     -1.7892070000 
  H46          -2.1492470000     -1.1796830000     -2.1325550000 
  H47          -1.8356470000     -1.6862910000      1.6668530000 
  H48          -2.8513880000     -0.9189660000      0.4051340000 
  H49          -2.6842430000     -2.6960970000      0.4765580000 
  H50           5.6022699500     -0.1875264494      2.3540258547 
  H51           3.9615378474     -1.0487278623      2.4922235730 
  H52           4.6795764486     -0.2577548218      3.8570505592 
   
  principal moments of inertia:
        amu*angstrom^2:              1423.61101              2618.32050              2988.96966
                g*cm^2:          2.36396141E-37          4.34782293E-37          4.96330028E-37
   
  rotational constants:
               cm^(-1):      0.01184146      0.00643834      0.00563995
                   GHz:      0.35499796      0.19301648      0.16908134
   
  Molecular weight:     312.20 amu
   
  Stoichiometry: C21PH29
  Molecular Point Group: C1      
  Point Group used: C1
  
 
Number of optimization coordinates:   160
Number of independent coordinates:    160
Number of non-redundant coordinates:  147
Number of frozen coordinates:           0
Number of harmonic constraints:         0
 
Number of geometric degrees of freedom:   147
Maximum geometric degrees of freedom:     147
 " " " " " excluding dummy atoms:         147
 
 
  bond lengths (angstroms):
 
 P1      -C3      :   1.906550      P1      -C4      :   1.920093
 P1      -C5      :   1.917250      C3      -C12     :   1.440939
 C3      -C16     :   1.409634      C4      -C17     :   1.548997
 C4      -C18     :   1.549022      C4      -C19     :   1.550220
 C5      -C20     :   1.547508      C5      -C21     :   1.552692
 C5      -C22     :   1.549137      C6      -C7      :   1.433452
 C6      -C11     :   1.407323      C6      -C12     :   1.440093
 C7      -C8      :   1.413251      C7      -C23     :   1.514581
 C8      -C9      :   1.397376      C8      -H24     :   1.102785
 C9      -C10     :   1.392838      C9      -H25     :   1.103008
 C10     -C11     :   1.399824      C10     -H26     :   1.103396
 C11     -H27     :   1.082204      C12     -C13     :   1.415742
 C13     -C14     :   1.399836      C13     -H28     :   1.088843
 C14     -C15     :   1.390800      C14     -H29     :   1.103851
 C15     -C16     :   1.396048      C15     -H30     :   1.103308
 C16     -H31     :   1.091773      C17     -H32     :   1.107669
 C17     -H33     :   1.113909      C17     -H34     :   1.107845
 C18     -H35     :   1.112032      C18     -H36     :   1.113461
 C18     -H37     :   1.114017      C19     -H38     :   1.110212
 C19     -H39     :   1.114059      C19     -H40     :   1.113053
 C20     -H41     :   1.111894      C20     -H42     :   1.110221
 C20     -H43     :   1.113833      C21     -H44     :   1.108952
 C21     -H45     :   1.113922      C21     -H46     :   1.107772
 C22     -H47     :   1.112597      C22     -H48     :   1.111077
 C22     -H49     :   1.113881      C23     -H50     :   1.113903
 C23     -H51     :   1.113565      C23     -H52     :   1.113416
 
  bond angles:
 
 C4      -P1      -C3      : 105.383690  C5      -P1      -C3      : 113.039431
 C5      -P1      -C4      : 110.209354  C12     -C3      -P1      : 132.332083
 C16     -C3      -P1      : 109.049994  C16     -C3      -C12     : 118.601565
 C17     -C4      -P1      : 116.680003  C18     -C4      -P1      : 113.633317
 C18     -C4      -C17     : 105.789550  C19     -C4      -P1      : 109.575020
 C19     -C4      -C17     : 105.935583  C19     -C4      -C18     : 104.252746
 C20     -C5      -P1      : 111.754645  C21     -C5      -P1      : 119.639032
 C21     -C5      -C20     : 105.868645  C22     -C5      -P1      : 107.875063
 C22     -C5      -C20     : 105.244514  C22     -C5      -C21     : 105.414608
 C11     -C6      -C7      : 112.855389  C12     -C6      -C7      : 129.318543
 C12     -C6      -C11     : 117.822169  C8      -C7      -C6      : 120.577643
 C23     -C7      -C6      : 126.852870  C23     -C7      -C8      : 112.463886
 C9      -C8      -C7      : 123.661511  H24     -C8      -C7      : 120.364684
 H24     -C8      -C9      : 115.971317  C10     -C9      -C8      : 117.169856
 H25     -C9      -C8      : 121.666137  H25     -C9      -C10     : 121.163760
 C11     -C10     -C9      : 118.559909  H26     -C10     -C9      : 120.510758
 H26     -C10     -C11     : 120.927422  C10     -C11     -C6      : 127.174781
 H27     -C11     -C6      : 119.444547  H27     -C11     -C10     : 113.352565
 C6      -C12     -C3      : 128.578123  C13     -C12     -C3      : 114.079668
 C13     -C12     -C6      : 117.336141  C14     -C13     -C12     : 126.514616
 H28     -C13     -C12     : 122.531223  H28     -C13     -C14     : 110.900352
 C15     -C14     -C13     : 118.517836  H29     -C14     -C13     : 121.365931
 H29     -C14     -C15     : 120.110049  C16     -C15     -C14     : 117.048897
 H30     -C15     -C14     : 121.214686  H30     -C15     -C16     : 121.736280
 C15     -C16     -C3      : 125.228312  H31     -C16     -C3      : 120.513439
 H31     -C16     -C15     : 114.258064  H32     -C17     -C4      : 113.258537
 H33     -C17     -C4      : 111.689655  H33     -C17     -H32     : 105.503065
 H34     -C17     -C4      : 113.192670  H34     -C17     -H32     : 107.193094
 H34     -C17     -H33     : 105.391539  H35     -C18     -C4      : 112.058038
 H36     -C18     -C4      : 111.797889  H36     -C18     -H35     : 109.222001
 H37     -C18     -C4      : 112.013244  H37     -C18     -H35     : 105.726505
 H37     -C18     -H36     : 105.648678  H38     -C19     -C4      : 112.576983
 H39     -C19     -C4      : 112.189921  H39     -C19     -H38     : 106.196471
 H40     -C19     -C4      : 111.777365  H40     -C19     -H38     : 107.585060
 H40     -C19     -H39     : 106.102308  H41     -C20     -C5      : 112.298348
 H42     -C20     -C5      : 111.935505  H42     -C20     -H41     : 108.095584
 H43     -C20     -C5      : 112.091550  H43     -C20     -H41     : 106.820756
 H43     -C20     -H42     : 105.192635  H44     -C21     -C5      : 114.473937
 H45     -C21     -C5      : 111.330423  H45     -C21     -H44     : 104.456631
 H46     -C21     -C5      : 113.153150  H46     -C21     -H44     : 107.744798
 H46     -C21     -H45     : 104.894240  H47     -C22     -C5      : 112.032471
 H48     -C22     -C5      : 112.097904  H48     -C22     -H47     : 107.418253
 H49     -C22     -C5      : 112.211684  H49     -C22     -H47     : 105.875619
 H49     -C22     -H48     : 106.814392  H50     -C23     -C7      : 111.849660
 H51     -C23     -C7      : 111.964901  H51     -C23     -H50     : 113.066083
 H52     -C23     -C7      : 112.334273  H52     -C23     -H50     : 104.830478
 H52     -C23     -H51     : 102.205211
 
  torsional angles:
 
 P1      -C3      -C12     -C6      :  -3.538704
 P1      -C3      -C12     -C13     : 177.391602
 P1      -C3      -C16     -C15     :-177.644279
 P1      -C3      -C16     -H31     :   2.190069
 P1      -C4      -C17     -H32     :  62.775020
 P1      -C4      -C17     -H33     :-178.274494
 P1      -C4      -C17     -H34     : -59.513232
 P1      -C4      -C18     -H35     : -63.928460
 P1      -C4      -C18     -H36     :  59.071534
 P1      -C4      -C18     -H37     : 177.433697
 P1      -C4      -C19     -H38     :  59.682494
 P1      -C4      -C19     -H39     : 179.407630
 P1      -C4      -C19     -H40     : -61.546178
 P1      -C5      -C20     -H41     : -56.022773
 P1      -C5      -C20     -H42     :  65.784275
 P1      -C5      -C20     -H43     :-176.287823
 P1      -C5      -C21     -H44     :  67.566361
 P1      -C5      -C21     -H45     :-174.255908
 P1      -C5      -C21     -H46     : -56.409800
 P1      -C5      -C22     -H47     : -59.157476
 P1      -C5      -C22     -H48     :  61.695607
 P1      -C5      -C22     -H49     :-178.104440
 C3      -P1      -C4      -C17     : 166.762405
 C3      -P1      -C4      -C18     : -69.712856
 C3      -P1      -C4      -C19     :  46.443665
 C3      -P1      -C5      -C20     :  44.159859
 C3      -P1      -C5      -C21     : -80.296088
 C3      -P1      -C5      -C22     : 159.383935
 C3      -C12     -C6      -C7      : 116.873206
 C3      -C12     -C6      -C11     : -63.902545
 C3      -C12     -C13     -C14     :   0.274863
 C3      -C12     -C13     -H28     : 177.359151
 C3      -C16     -C15     -C14     :  -0.346891
 C3      -C16     -C15     -H30     : 179.785728
 C4      -P1      -C3      -C12     :  97.038236
 C4      -P1      -C3      -C16     : -84.496413
 C4      -P1      -C5      -C20     : 161.788653
 C4      -P1      -C5      -C21     :  37.332705
 C4      -P1      -C5      -C22     : -82.987272
 C5      -P1      -C3      -C12     :-142.540243
 C5      -P1      -C3      -C16     :  35.925108
 C5      -P1      -C4      -C17     :  44.498558
 C5      -P1      -C4      -C18     : 168.023298
 C5      -P1      -C4      -C19     : -75.820182
 C6      -C7      -C8      -C9      :   0.204575
 C6      -C7      -C8      -H24     : 179.607156
 C6      -C7      -C23     -H50     :  85.260242
 C6      -C7      -C23     -H51     : -42.827948
 C6      -C7      -C23     -H52     :-157.167381
 C6      -C11     -C10     -C9      :   0.273642
 C6      -C11     -C10     -H26     : 179.773359
 C6      -C12     -C3      -C16     : 178.113550
 C6      -C12     -C13     -C14     :-178.906444
 C6      -C12     -C13     -H28     :  -1.822156
 C7      -C6      -C11     -C10     :  -0.019764
 C7      -C6      -C11     -H27     : 177.915884
 C7      -C6      -C12     -C13     : -64.082919
 C7      -C8      -C9      -C10     :   0.054983
 C7      -C8      -C9      -H25     : 179.876051
 C8      -C7      -C6      -C11     :  -0.212327
 C8      -C7      -C6      -C12     : 179.043146
 C8      -C7      -C23     -H50     : -98.492928
 C8      -C7      -C23     -H51     : 133.418882
 C8      -C7      -C23     -H52     :  19.079450
 C8      -C9      -C10     -C11     :  -0.276610
 C8      -C9      -C10     -H26     :-179.778484
 C9      -C8      -C7      -C23     :-176.307482
 C9      -C10     -C11     -H27     :-177.768294
 C10     -C9      -C8      -H24     :-179.371646
 C10     -C11     -C6      -C12     :-179.368488
 C11     -C6      -C7      -C23     : 175.758639
 C11     -C6      -C12     -C13     : 115.141330
 C11     -C10     -C9      -H25     : 179.901367
 C12     -C3      -C16     -C15     :   1.063585
 C12     -C3      -C16     -H31     :-179.102067
 C12     -C6      -C7      -C23     :  -4.985888
 C12     -C6      -C11     -H27     :  -1.432840
 C12     -C13     -C14     -C15     :   0.419544
 C12     -C13     -C14     -H29     : 179.515586
 C13     -C12     -C3      -C16     :  -0.956143
 C13     -C14     -C15     -C16     :  -0.387844
 C13     -C14     -C15     -H30     : 179.480274
 C14     -C15     -C16     -H31     : 179.809641
 C15     -C14     -C13     -H28     :-176.949296
 C16     -C15     -C14     -H29     :-179.495593
 C17     -C4      -C18     -H35     :  65.348403
 C17     -C4      -C18     -H36     :-171.651602
 C17     -C4      -C18     -H37     : -53.289439
 C17     -C4      -C19     -H38     : -66.981941
 C17     -C4      -C19     -H39     :  52.743195
 C17     -C4      -C19     -H40     : 171.789387
 C18     -C4      -C17     -H32     : -64.694553
 C18     -C4      -C17     -H33     :  54.255933
 C18     -C4      -C17     -H34     : 173.017195
 C18     -C4      -C19     -H38     :-178.358513
 C18     -C4      -C19     -H39     : -58.633377
 C18     -C4      -C19     -H40     :  60.412815
 C19     -C4      -C17     -H32     :-174.987439
 C19     -C4      -C17     -H33     : -56.036953
 C19     -C4      -C17     -H34     :  62.724309
 C19     -C4      -C18     -H35     : 176.830700
 C19     -C4      -C18     -H36     : -60.169305
 C19     -C4      -C18     -H37     :  58.192858
 C20     -C5      -C21     -H44     : -59.667052
 C20     -C5      -C21     -H45     :  58.510680
 C20     -C5      -C21     -H46     : 176.356787
 C20     -C5      -C22     -H47     :  60.283556
 C20     -C5      -C22     -H48     :-178.863361
 C20     -C5      -C22     -H49     : -58.663408
 C21     -C5      -C20     -H41     :  75.812279
 C21     -C5      -C20     -H42     :-162.380674
 C21     -C5      -C20     -H43     : -44.452771
 C21     -C5      -C22     -H47     : 171.945031
 C21     -C5      -C22     -H48     : -67.201886
 C21     -C5      -C22     -H49     :  52.998068
 C22     -C5      -C20     -H41     :-172.848971
 C22     -C5      -C20     -H42     : -51.041923
 C22     -C5      -C20     -H43     :  66.885980
 C22     -C5      -C21     -H44     :-170.886081
 C22     -C5      -C21     -H45     : -52.708349
 C22     -C5      -C21     -H46     :  65.137758
 C23     -C7      -C8      -H24     :   3.095099
 H24     -C8      -C9      -H25     :   0.449421
 H25     -C9      -C10     -H26     :   0.399493
 H26     -C10     -C11     -H27     :   1.731423
 H28     -C13     -C14     -H29     :   2.146746
 H29     -C14     -C15     -H30     :   0.372525
 H30     -C15     -C16     -H31     :  -0.057740
 
  nuclear repulsion energy.......          2001.297324090 hartrees
 
 Non-default options chosen:
   SCF calculation type: DFT(b3pw91-d3)              
   DFT=Becke_3_Parameter/HF+Slater+Becke88+PW91+PW-GGAIIC (B3PW91-D3)
   Geometry will be optimized in redundant internal coordinates
   Solvation energy will be computed using PBF
     -solute cavity energy will not be included
     -surface area terms will not be included
   Vibrational frequencies and related properties will be computed
      from analytic second derivatives
   IR intensities will be computed
   Thermochemical properties will be computed
   Maximum number of geometry steps: 100
   Scaling standard convergence criteria by a factor of   5.00
   Solvent: benzene                                                         
   Internal dielectric constant:    1.000
   Continuum dielectric constant:   2.283
   Solvent probe molecule radius:   2.600
  
 Non-default print settings:
     11=  2
  
 Temporary integer options set:
     73=  2
  
  atom       vdw   vdw2    cov     mass  grid  daf  charge   basis
  P1        2.147  2.074  1.060   30.974    Y    Y      Y    ps_6-31g*
  C3        1.949  1.900  0.770   12.000    Y    Y      Y    ps_6-31g*
  C4        1.949  1.900  0.770   12.000    Y    Y      Y    ps_6-31g*
  C5        1.949  1.900  0.770   12.000    Y    Y      Y    ps_6-31g*
  C6        1.949  1.900  0.770   12.000    Y    Y      Y    ps_6-31g*
  C7        1.949  1.900  0.770   12.000    Y    Y      Y    ps_6-31g*
  C8        1.949  1.900  0.770   12.000    Y    Y      Y    ps_6-31g*
  C9        1.949  1.900  0.770   12.000    Y    Y      Y    ps_6-31g*
  C10       1.949  1.900  0.770   12.000    Y    Y      Y    ps_6-31g*
  C11       1.949  1.900  0.770   12.000    Y    Y      Y    ps_6-31g*
  C12       1.949  1.900  0.770   12.000    Y    Y      Y    ps_6-31g*
  C13       1.949  1.900  0.770   12.000    Y    Y      Y    ps_6-31g*
  C14       1.949  1.900  0.770   12.000    Y    Y      Y    ps_6-31g*
  C15       1.949  1.900  0.770   12.000    Y    Y      Y    ps_6-31g*
  C16       1.949  1.900  0.770   12.000    Y    Y      Y    ps_6-31g*
  C17       1.949  1.900  0.770   12.000    Y    Y      Y    ps_6-31g*
  C18       1.949  1.900  0.770   12.000    Y    Y      Y    ps_6-31g*
  C19       1.949  1.900  0.770   12.000    Y    Y      Y    ps_6-31g*
  C20       1.949  1.900  0.770   12.000    Y    Y      Y    ps_6-31g*
  C21       1.949  1.900  0.770   12.000    Y    Y      Y    ps_6-31g*
  C22       1.949  1.900  0.770   12.000    Y    Y      Y    ps_6-31g*
  C23       1.949  1.900  0.770   12.000    Y    Y      Y    ps_6-31g*
  H24       1.597  1.150  0.320    1.008    Y    Y      Y    ps_6-31g*
  H25       1.597  1.150  0.320    1.008    Y    Y      Y    ps_6-31g*
  H26       1.597  1.150  0.320    1.008    Y    Y      Y    ps_6-31g*
  H27       1.597  1.150  0.320    1.008    Y    Y      Y    ps_6-31g*
  H28       1.597  1.150  0.320    1.008    Y    Y      Y    ps_6-31g*
  H29       1.597  1.150  0.320    1.008    Y    Y      Y    ps_6-31g*
  H30       1.597  1.150  0.320    1.008    Y    Y      Y    ps_6-31g*
  H31       1.597  1.150  0.320    1.008    Y    Y      Y    ps_6-31g*
  H32       1.597  1.150  0.320    1.008    Y    Y      Y    ps_6-31g*
  H33       1.597  1.150  0.320    1.008    Y    Y      Y    ps_6-31g*
  H34       1.597  1.150  0.320    1.008    Y    Y      Y    ps_6-31g*
  H35       1.597  1.150  0.320    1.008    Y    Y      Y    ps_6-31g*
  H36       1.597  1.150  0.320    1.008    Y    Y      Y    ps_6-31g*
  H37       1.597  1.150  0.320    1.008    Y    Y      Y    ps_6-31g*
  H38       1.597  1.150  0.320    1.008    Y    Y      Y    ps_6-31g*
  H39       1.597  1.150  0.320    1.008    Y    Y      Y    ps_6-31g*
  H40       1.597  1.150  0.320    1.008    Y    Y      Y    ps_6-31g*
  H41       1.597  1.150  0.320    1.008    Y    Y      Y    ps_6-31g*
  H42       1.597  1.150  0.320    1.008    Y    Y      Y    ps_6-31g*
  H43       1.597  1.150  0.320    1.008    Y    Y      Y    ps_6-31g*
  H44       1.597  1.150  0.320    1.008    Y    Y      Y    ps_6-31g*
  H45       1.597  1.150  0.320    1.008    Y    Y      Y    ps_6-31g*
  H46       1.597  1.150  0.320    1.008    Y    Y      Y    ps_6-31g*
  H47       1.597  1.150  0.320    1.008    Y    Y      Y    ps_6-31g*
  H48       1.597  1.150  0.320    1.008    Y    Y      Y    ps_6-31g*
  H49       1.597  1.150  0.320    1.008    Y    Y      Y    ps_6-31g*
  H50       1.597  1.150  0.320    1.008    Y    Y      Y    ps_6-31g*
  H51       1.597  1.150  0.320    1.008    Y    Y      Y    ps_6-31g*
  H52       1.597  1.150  0.320    1.008    Y    Y      Y    ps_6-31g*
  
  end of program pre
   
 Time(pre)  user:       0.789  user+sys:       0.789  wallclock:       1.003
  
  start of program onee
  
  smallest eigenvalue of S:    3.812E-04
  number of canonical orbitals.....          368
  end of program onee
   
 Time(onee)  user:       0.352  user+sys:       0.352  wallclock:       0.310
  
  start of program hfig
  
  initial wavefunction generated automatically from atomic wavefunctions
 
  Irreducible     Total no   No of occupied orbitals 
  representation  orbitals   Shell_1  Shell_2    ...
  No Symm          368         85
  ------------------------
  Orbital occupation/shell    1.000
 
  end of program hfig
   
 Time(hfig)  user:       0.609  user+sys:       0.609  wallclock:       0.701
  
  start of program probe
  
  end of program probe
   
 Time(probe)  user:       0.262  user+sys:       0.262  wallclock:       0.228
  
  start of program grid
  
   grid     grid set  grid #  grid sym
  ------    --------  ------  --------
  coarse        0        0        1
  medium        2        1        1
  fine          0        0        1
  ultrafine     4        2        1
  charge       -1        3        1
  gradient      4        2        1
  density       0        0        1
  DFT-fine    -11        4        1
  DFT-med.    -10        5        1
  DFT-grad    -12        6        1
  DFT-der2     -8        7        1
  DFT-cphf     -9        8        1
  LMP2-enrg     4        2        1
  LMP2-grad     2        1        1
  DFT-cphf2   -15        9        1
  PBF-dens      0        0        1
  plotting      0        0        1
  Rel-grad    -17        0        1
  
  number of gridpoints: 
     atom           P1          C3          C4          C5          C6          C7          C8
  grid # 1         570          98          96          96          98         101          95
  grid # 2         570         365         349         351         356         366         345
  grid # 3          65          17           6           6          20          35          52
  grid # 4        4304        4304        4304        4304        4304        4304        4304
  grid # 5        1192        1192        1192        1192        1192        1192        1192
  grid # 6        8076        5226        5226        5226        5226        5226        5226
  grid # 7       22092       12650       12650       12650       12650       12650       12650
  grid # 8         634         688         688         688         688         688         688
  grid # 9         340         358         358         358         358         358         358
   
  number of gridpoints: 
     atom           C9         C10         C11         C12         C13         C14         C15
  grid # 1          97          97          94          98          94          97          95
  grid # 2         340         341         334         360         334         340         338
  grid # 3          52          46          34          19          31          46          32
  grid # 4        4304        4304        4304        4304        4304        4304        4304
  grid # 5        1192        1192        1192        1192        1192        1192        1192
  grid # 6        5226        5226        5226        5226        5226        5226        5226
  grid # 7       12650       12650       12650       12650       12650       12650       12650
  grid # 8         688         688         688         688         688         688         688
  grid # 9         358         358         358         358         358         358         358
   
  number of gridpoints: 
     atom          C16         C17         C18         C19         C20         C21         C22
  grid # 1          93          78          79          79          79          80          79
  grid # 2         330         274         276         276         273         273         272
  grid # 3          10           6           6           6           6           6           6
  grid # 4        4304        4304        4304        4304        4304        4304        4304
  grid # 5        1192        1192        1192        1192        1192        1192        1192
  grid # 6        5226        5226        5226        5226        5226        5226        5226
  grid # 7       12650       12650       12650       12650       12650       12650       12650
  grid # 8         688         688         688         688         688         688         688
  grid # 9         358         358         358         358         358         358         358
   
  number of gridpoints: 
     atom          C23         H24         H25         H26         H27         H28         H29
  grid # 1          79         115         118         118         103         115         118
  grid # 2         275         438         453         448         404         440         451
  grid # 3           6         329         428         388         135         317         422
  grid # 4        4304        4304        4304        4304        4304        4304        4304
  grid # 5        1192        1192        1192        1192        1192        1192        1192
  grid # 6        5226        5226        5226        5226        5226        5226        5226
  grid # 7       12650       13718       13718       13718       13718       13718       13718
  grid # 8         688         744         744         744         744         744         744
  grid # 9         358         382         382         382         382         382         382
   
  number of gridpoints: 
     atom          H30         H31         H32         H33         H34         H35         H36
  grid # 1         118         102         107         108         101         109          98
  grid # 2         451         401         430         432         408         435         399
  grid # 3         411          66         258         267         146         254         103
  grid # 4        4304        4304        4304        4304        4304        4304        4304
  grid # 5        1192        1192        1192        1192        1192        1192        1192
  grid # 6        5226        5226        5226        5226        5226        5226        5226
  grid # 7       13718       13718       13718       13718       13718       13718       13718
  grid # 8         744         744         744         744         744         744         744
  grid # 9         382         382         382         382         382         382         382
   
  number of gridpoints: 
     atom          H37         H38         H39         H40         H41         H42         H43
  grid # 1         108         103         109         104         105         108         107
  grid # 2         434         409         433         423         425         430         434
  grid # 3         263         145         269         197         208         273         273
  grid # 4        4304        4304        4304        4304        4304        4304        4304
  grid # 5        1192        1192        1192        1192        1192        1192        1192
  grid # 6        5226        5226        5226        5226        5226        5226        5226
  grid # 7       13718       13718       13718       13718       13718       13718       13718
  grid # 8         744         744         744         744         744         744         744
  grid # 9         382         382         382         382         382         382         382
   
  number of gridpoints: 
     atom          H44         H45         H46         H47         H48         H49         H50
  grid # 1         102         107         101         108         104         107         112
  grid # 2         415         431         411         431         420         435         447
  grid # 3         192         259         148         290         174         277         337
  grid # 4        4304        4304        4304        4304        4304        4304        4304
  grid # 5        1192        1192        1192        1192        1192        1192        1192
  grid # 6        5226        5226        5226        5226        5226        5226        5226
  grid # 7       13718       13718       13718       13718       13718       13718       13718
  grid # 8         744         744         744         744         744         744         744
  grid # 9         382         382         382         382         382         382         382
   
  number of gridpoints: 
     atom          H51         H52       total
  grid # 1         110         107        5604
  grid # 2         444         436       19786
  grid # 3         311         295        7948
  grid # 4        4304        4304      219504
  grid # 5        1192        1192       60792
  grid # 6        5226        5226      269376
  grid # 7       13718       13718      685564
  grid # 8         744         744       36658
  grid # 9         382         382       18936
   
  end of program grid
   
 Time(grid)  user:      50.545  user+sys:      50.545  wallclock:      26.788
  
  start of program rwr
  
  end of program rwr
   
 Time(rwr)  user:       7.749  user+sys:       7.749  wallclock:       9.963
  
  start of program scf
  
 number of electrons..........        170
 number of alpha electrons....         85
 number of beta electrons.....         85
 number of orbitals, total....        368
 number of doubly-occ'd orbs..         85
 number of open shell orbs....          0
 number of occupied orbitals..         85
 number of virtual orbitals...        283
 number of hamiltonians.......          1
 number of shells.............          1
 SCF type: DFT=Becke_3_Parameter/HF+Slater+Becke88+PW91+PW-GGAIIC (B3PW91-D3)
 Energy computed using pseudospectral method.
 Convergence Criterion:
    Energy (econv):       1.00E-05
    RMS density (dconv):  5.00E-06
  
       i  u  d  i  g                   
       t  p  i  c  r                                 RMS    maximum
       e  d  i  u  i                       energy  density   DIIS  
       r  t  s  t  d       total energy    change  change    error 
  
etot    1  N  N  5  M   -1156.18405654665           4.0E-03  8.1E-02
etot    2  Y  Y  6  M   -1158.27776949916  2.1E+00  3.0E-03  3.9E-02
etot    3  Y  Y  6  M   -1158.42928987093  1.5E-01  1.5E-03  2.6E-02
etot    4  N  Y  2  U   -1158.57823693487  1.5E-01  7.7E-04  2.1E-02
etot    5  Y  Y  6  M   -1158.62586544174  4.8E-02  2.8E-04  1.1E-02
etot    6  N  Y  2  U   -1158.62833519067  2.5E-03  4.8E-04  7.2E-03
etot    7  Y  Y  6  M   -1158.62888093311  5.5E-04  1.1E-04  2.1E-03
etot    8  Y  Y  6  M   -1158.63010363324  1.2E-03  2.7E-05  5.6E-04
etot    9  N  Y  2  U   -1158.63033199426  2.3E-04  9.0E-06  1.2E-04
etot   10  N  Y  2  U   -1158.63033437383  2.4E-06  2.4E-06  5.0E-05
etot   11  N  N  2  U   -1158.63033483589  4.6E-07  0.0E+00  0.0E+00
 
  Computing the dispersion energy correction and its gradients...
  
  
 Energy components, in hartrees:
   (A)  Nuclear repulsion............    2001.29732408958
   (E)  Total one-electron terms.....   -5555.64668566542
   (F)    Electron-nuclear...........   -6707.32735945617
   (H)    Kinetic....................    1151.68067379075
   (I)  Total two-electron terms.....    2395.71902673996
   (J)    Coulomb....................    2543.38706004647
   (K)    Exchange+Correlation.......    -147.66803330652
   (L)  Electronic energy............   -3159.92765892546  (E+I)
   (M)  -V/T.........................       2.00603436456  (-(A+F+I)/H)
   (N0) D3 correction................      -0.06764945550
   (N)  Total energy.................   -1158.69798429138  (A+L+N0)
   (O)  Gas phase energy.............   -1158.69798429138
  
 SCFE: SCF energy: DFT(b3pw91-d3)     -1158.69798429138 hartrees   iterations:  11
  
 
 HOMO energy:    -0.18673
 LUMO energy:    -0.03027
 
  Orbital energies (hartrees): 
   -77.03255   -10.19967   -10.19742   -10.19465   -10.19401   -10.18532
   -10.18264   -10.17641   -10.17498   -10.17436   -10.17392   -10.16762
   -10.16551   -10.16511   -10.16280   -10.16191   -10.16095   -10.16092
   -10.15808   -10.15759   -10.15688   -10.15101    -6.53513    -4.69351
    -4.69314    -4.68753    -0.86902    -0.84577    -0.81594    -0.80098
    -0.78138    -0.76376    -0.74869    -0.72233    -0.68456    -0.68231
    -0.67732    -0.67579    -0.67335    -0.63901    -0.61475    -0.59926
    -0.58189    -0.56778    -0.54958    -0.52601    -0.49947    -0.48791
    -0.46505    -0.46289    -0.45118    -0.44939    -0.44621    -0.44102
    -0.43319    -0.43145    -0.42198    -0.41844    -0.41493    -0.40689
    -0.39594    -0.39003    -0.38619    -0.37993    -0.37574    -0.37264
    -0.36979    -0.36412    -0.35812    -0.35531    -0.34983    -0.34711
    -0.33673    -0.32965    -0.32851    -0.32556    -0.31749    -0.31378
    -0.30639    -0.29824    -0.26361    -0.25230    -0.23626    -0.23167
    -0.18673    -0.03027    -0.01415     0.00583     0.01080     0.05156
     0.06545     0.08018     0.08120     0.09859     0.11051
 
  end of program scf
   
 Time(scf)  user:     112.001  user+sys:     112.001  wallclock:      60.620
  
  start of program der1a
  
  end of program der1a
   
 Time(der1a)  user:       0.599  user+sys:       0.599  wallclock:       0.515
  
  start of program rwr
  
  end of program rwr
   
 Time(rwr)  user:       8.080  user+sys:       8.080  wallclock:      10.968
  
  start of program der1b
  
   
  forces (hartrees/bohr) : total     
   
 atom  label           x              y              z
 ---- --------   -------------  -------------  -------------
    1 P1          4.441512E-03   2.385800E-02   4.922363E-02
    2 C3         -1.781054E-02  -7.502445E-03  -1.755295E-02
    3 C4         -2.660828E-03   1.435576E-02  -3.866888E-02
    4 C5         -1.023276E-02  -2.603872E-02  -1.763946E-02
    5 C6         -4.747818E-03   3.653333E-02   5.201412E-02
    6 C7          1.476348E-03  -4.410444E-03   1.249984E-02
    7 C8         -1.114610E-03   9.079229E-03   2.961342E-03
    8 C9         -4.459015E-04   1.784749E-04  -2.323824E-03
    9 C10         2.526346E-03  -1.599337E-03   2.240607E-03
   10 C11        -6.373117E-03   1.512988E-02  -6.352790E-03
   11 C12         9.207266E-04  -3.878823E-02  -3.574656E-02
   12 C13         1.523440E-02  -1.562387E-03  -6.794249E-03
   13 C14        -4.840810E-03  -1.832994E-03  -2.510817E-03
   14 C15         3.428609E-03  -8.732949E-04   1.446425E-03
   15 C16         5.602216E-03  -8.752541E-03  -1.356018E-02
   16 C17        -1.121524E-02  -9.432011E-03   8.219338E-03
   17 C18         6.394306E-03   3.950107E-03   1.260772E-02
   18 C19         4.949113E-03  -2.818312E-03  -1.440609E-02
   19 C20         1.685376E-02  -2.867795E-03   5.583428E-03
   20 C21        -4.945682E-03   7.087458E-04  -1.351518E-02
   21 C22        -7.776247E-03   1.197287E-02   1.332431E-02
   22 C23         2.384798E-04  -1.573301E-02   1.427018E-03
   23 H24        -3.486601E-03  -4.002880E-03  -1.061026E-02
   24 H25         4.410633E-04  -8.179360E-03  -7.040034E-03
   25 H26         4.246198E-03  -1.057761E-02  -1.633858E-03
   26 H27         5.310698E-03  -6.724621E-03  -1.118950E-03
   27 H28        -5.409700E-03   5.680874E-03   1.341606E-02
   28 H29        -8.076583E-03   3.971335E-03   7.804019E-03
   29 H30        -2.296300E-03   5.639200E-03   9.189392E-03
   30 H31         1.314804E-03   5.903975E-03   6.000153E-03
   31 H32         5.337112E-03  -2.822098E-03  -4.127845E-03
   32 H33         9.873890E-03  -5.991285E-03   4.101053E-03
   33 H34         4.960997E-03   5.948315E-03   3.768988E-03
   34 H35         6.532372E-03  -3.818723E-03  -7.409688E-03
   35 H36        -1.794252E-02  -3.001549E-03  -1.372848E-04
   36 H37         9.749457E-04  -1.219645E-02   1.486659E-03
   37 H38         3.267303E-03   8.124608E-03   4.388305E-03
   38 H39         1.912038E-03  -5.050264E-03   7.563560E-03
   39 H40        -1.076236E-02  -2.487893E-03   2.251599E-03
   40 H41        -8.744112E-03  -5.477810E-04   5.376805E-03
   41 H42         1.442250E-03   4.248109E-03  -8.319205E-03
   42 H43         1.072125E-04   1.200428E-02  -3.602397E-04
   43 H44        -3.704342E-03   3.908334E-03   7.039774E-03
   44 H45         5.824184E-03   6.933300E-03   5.145754E-03
   45 H46         7.483172E-03  -4.113423E-03   3.247165E-03
   46 H47        -7.532629E-04   2.520171E-03  -1.052282E-02
   47 H48         6.232819E-03  -7.340106E-03   2.216457E-03
   48 H49         8.463649E-03   7.406829E-03  -4.068800E-03
   49 H50        -1.254070E-02  -5.814537E-03  -2.542391E-03
   50 H51         1.149587E-02   7.858342E-03  -8.466673E-03
   51 H52        -1.755462E-03   8.373900E-03  -9.791086E-03
 -------------   -------------  -------------  -------------
     total       -3.491050E-04  -5.921274E-04  -6.766012E-04
   
  end of program der1b
   
 Time(der1b)  user:      45.364  user+sys:      45.364  wallclock:      23.976
  
  start of program geopt
  
 ----------------------------------------------------------------------------
  Geometry optimization step  1
  Total energy:     -1158.69798429138 hartrees
 ----------------------------------------------------------------------------
  
  
  Level shifts adjusted to satisfy step-size constraints
   Step size:    0.3000584
   Cos(theta):   0.9418158
   Final level shift:  -3.2219114E-01
  
  gradient maximum:        6.0712E-02 .  (  2.2500E-03 )
  gradient rms:            1.4639E-02 .  (  1.5000E-03 )
  displacement maximum:    1.6290E-01 .  (  9.0000E-03 )
  displacement rms:        2.3722E-02 .  (  6.0000E-03 )
  
  predicted energy change:  -4.0669E-02
  step size:     0.30006
  trust radius:  0.30000
  
  molecular structure not yet converged...
  
  center of mass moved by:
     x:    -2.6627E-03     y:     3.7438E-02     z:     4.3001E-03
  
  new geometry: 
                                   angstroms
  atom               x                 y                 z
  P1            0.0168585943      0.1622866306     -0.0428164463 
  C3            1.8079744938      0.0738151385     -0.6502741956 
  C4           -0.9114181969      1.4241216611     -1.1485538311 
  C5           -0.7939435681     -1.5521543022     -0.2269360557 
  C6            3.0846336688      1.3825166429      1.1939911890 
  C7            3.7482404355      0.9458668917      2.3684163783 
  C8            3.8165800801      1.7893551928      3.4893723050 
  C9            3.2566892836      3.0656489356      3.5168855316 
  C10           2.6009867846      3.5110084591      2.3728940502 
  C11           2.5387603836      2.6711839929      1.2654151283 
  C12           2.9882440153      0.6059687533     -0.0427571681 
  C13           4.2051560169      0.3508079589     -0.6978819020 
  C14           4.3294709216     -0.3605472740     -1.8893330957 
  C15           3.1795345451     -0.8614813150     -2.4916897924 
  C16           1.9571881887     -0.6290078846     -1.8621999964 
  C17          -2.4406605864      1.3756468430     -0.9708603240 
  C18          -0.4689975507      2.8747787538     -0.9001859662 
  C19          -0.6191508322      1.1461661198     -2.6455066968 
  C20           0.1858092648     -2.6323188998      0.2791927352 
  C21          -1.3021955168     -1.9901166756     -1.6219896661 
  C22          -2.0101843601     -1.5404948864      0.7244759073 
  C23           4.3446191218     -0.4364045702      2.5201849622 
  H24           4.3238451663      1.4387284434      4.3938110003 
  H25           3.3264105243      3.6960133489      4.4087197382 
  H26           2.1456113408      4.5054117709      2.3348591197 
  H27           2.0572471424      3.0766107944      0.3882382770 
  H28           5.1354600884      0.7571177292     -0.3026351342 
  H29           5.3119199836     -0.5116299087     -2.3478692995 
  H30           3.2255859685     -1.4188633403     -3.4324631222 
  H31           1.0785142980     -1.0211640832     -2.3678427549 
  H32          -2.7581801009      1.6344769589      0.0528133899 
  H33          -2.9298504860      2.1028022991     -1.6444295029 
  H34          -2.8714554678      0.3918700632     -1.2130401661 
  H35          -0.6746062817      3.2032514469      0.1338443905 
  H36           0.5966498251      3.0171276497     -1.1273375292 
  H37          -1.0201122414      3.5658736324     -1.5644272211 
  H38          -0.9315588994      0.1364338835     -2.9578076552 
  H39          -1.1538782419      1.8592236637     -3.3019381930 
  H40           0.4554406406      1.2470512868     -2.8767394621 
  H41           1.1533233624     -2.6058609229     -0.2506975432 
  H42           0.3939098315     -2.5207377424      1.3571345540 
  H43          -0.2375430682     -3.6441756648      0.1435717528 
  H44          -0.4993127852     -2.1527502361     -2.3596566574 
  H45          -1.8336089469     -2.9579930540     -1.5518353571 
  H46          -2.0228330826     -1.2818388922     -2.0583015279 
  H47          -1.7091479420     -1.3452744174      1.7686850691 
  H48          -2.7537568073     -0.7755156561      0.4446425507 
  H49          -2.5268000272     -2.5177516775      0.7165868164 
  H50           5.3698558747     -0.4949043411      2.1118456250 
  H51           3.6987704506     -1.2184998906      2.0822941845 
  H52           4.4403851435     -0.7135368193      3.5851211165 
   
 
  bond lengths (angstroms):
 
 P1      -C3      :   1.893391      P1      -C4      :   1.917441
 P1      -C5      :   1.905415      C3      -C12     :   1.430140
 C3      -C16     :   1.408896      C4      -C17     :   1.540294
 C4      -C18     :   1.536824      C4      -C19     :   1.550338
 C5      -C20     :   1.543644      C5      -C21     :   1.548001
 C5      -C22     :   1.544203      C6      -C7      :   1.417855
 C6      -C11     :   1.401336      C6      -C12     :   1.463511
 C7      -C8      :   1.404523      C7      -C23     :   1.513068
 C8      -C9      :   1.393973      C8      -H24     :   1.094654
 C9      -C10     :   1.391764      C9      -H25     :   1.094344
 C10     -C11     :   1.391290      C10     -H26     :   1.094373
 C11     -H27     :   1.079660      C12     -C13     :   1.405408
 C13     -C14     :   1.393211      C13     -H28     :   1.089391
 C14     -C15     :   1.391446      C14     -H29     :   1.094663
 C15     -C16     :   1.394429      C15     -H30     :   1.094463
 C16     -H31     :   1.086982      C17     -H32     :   1.102597
 C17     -H33     :   1.105331      C17     -H34     :   1.100932
 C18     -H35     :   1.104259      C18     -H36     :   1.098847
 C18     -H37     :   1.105693      C19     -H38     :   1.102130
 C19     -H39     :   1.106927      C19     -H40     :   1.103809
 C20     -H41     :   1.103434      C20     -H42     :   1.103501
 C20     -H43     :   1.105203      C21     -H44     :   1.102372
 C21     -H45     :   1.106393      C21     -H46     :   1.100611
 C22     -H47     :   1.104132      C22     -H48     :   1.102905
 C22     -H49     :   1.105434      C23     -H50     :   1.105112
 C23     -H51     :   1.104781      C23     -H52     :   1.104564
 
  bond angles:
 
 C4      -P1      -C3      : 107.680412  C5      -P1      -C3      : 109.238108
 C5      -P1      -C4      : 109.292743  C12     -C3      -P1      : 128.831276
 C16     -C3      -P1      : 113.545280  C16     -C3      -C12     : 117.621145
 C17     -C4      -P1      : 113.166933  C18     -C4      -P1      : 112.868611
 C18     -C4      -C17     : 107.270112  C19     -C4      -P1      : 110.338403
 C19     -C4      -C17     : 107.032513  C19     -C4      -C18     : 105.724390
 C20     -C5      -P1      : 109.138427  C21     -C5      -P1      : 118.774204
 C21     -C5      -C20     : 107.812308  C22     -C5      -P1      : 105.594178
 C22     -C5      -C20     : 107.648257  C22     -C5      -C21     : 107.384558
 C11     -C6      -C7      : 115.043381  C12     -C6      -C7      : 124.568212
 C12     -C6      -C11     : 120.355282  C8      -C7      -C6      : 119.927465
 C23     -C7      -C6      : 123.291875  C23     -C7      -C8      : 116.705497
 C9      -C8      -C7      : 123.097282  H24     -C8      -C7      : 119.314690
 H24     -C8      -C9      : 117.586455  C10     -C9      -C8      : 117.774242
 H25     -C9      -C8      : 121.190705  H25     -C9      -C10     : 121.034678
 C11     -C10     -C9      : 118.829798  H26     -C10     -C9      : 121.022409
 H26     -C10     -C11     : 120.146556  C10     -C11     -C6      : 125.327328
 H27     -C11     -C6      : 118.531422  H27     -C11     -C10     : 116.103789
 C6      -C12     -C3      : 127.645097  C13     -C12     -C3      : 116.680870
 C13     -C12     -C6      : 115.672447  C14     -C13     -C12     : 124.652805
 H28     -C13     -C12     : 120.171641  H28     -C13     -C14     : 115.119501
 C15     -C14     -C13     : 118.703904  H29     -C14     -C13     : 120.582221
 H29     -C14     -C15     : 120.709979  C16     -C15     -C14     : 117.969452
 H30     -C15     -C14     : 121.377872  H30     -C15     -C16     : 120.652368
 C15     -C16     -C3      : 124.355333  H31     -C16     -C3      : 119.637150
 H31     -C16     -C15     : 116.005625  H32     -C17     -C4      : 112.682608
 H33     -C17     -C4      : 110.389085  H33     -C17     -H32     : 106.492089
 H34     -C17     -C4      : 113.031504  H34     -C17     -H32     : 107.536445
 H34     -C17     -H33     : 106.297614  H35     -C18     -C4      : 112.241581
 H36     -C18     -C4      : 111.595688  H36     -C18     -H35     : 109.609489
 H37     -C18     -C4      : 110.451386  H37     -C18     -H35     : 106.487830
 H37     -C18     -H36     : 106.154004  H38     -C19     -C4      : 112.607941
 H39     -C19     -C4      : 111.471611  H39     -C19     -H38     : 106.570924
 H40     -C19     -C4      : 111.679540  H40     -C19     -H38     : 107.477441
 H40     -C19     -H39     : 106.689275  H41     -C20     -C5      : 112.475406
 H42     -C20     -C5      : 111.667676  H42     -C20     -H41     : 107.536846
 H43     -C20     -C5      : 110.933795  H43     -C20     -H41     : 107.391177
 H43     -C20     -H42     : 106.539808  H44     -C21     -C5      : 113.932433
 H45     -C21     -C5      : 110.368515  H45     -C21     -H44     : 105.259555
 H46     -C21     -C5      : 112.964869  H46     -C21     -H44     : 107.851081
 H46     -C21     -H45     : 105.879235  H47     -C22     -C5      : 111.670963
 H48     -C22     -C5      : 112.328736  H48     -C22     -H47     : 107.525758
 H49     -C22     -C5      : 110.916961  H49     -C22     -H47     : 106.886432
 H49     -C22     -H48     : 107.234848  H50     -C23     -C7      : 112.145504
 H51     -C23     -C7      : 112.119959  H51     -C23     -H50     : 111.002673
 H52     -C23     -C7      : 111.105612  H52     -C23     -H50     : 105.220157
 H52     -C23     -H51     : 104.785977
 
  torsional angles:
 
 P1      -C3      -C12     -C6      :  -1.589873
 P1      -C3      -C12     -C13     : 177.929017
 P1      -C3      -C16     -C15     :-178.162999
 P1      -C3      -C16     -H31     :   2.358108
 P1      -C4      -C17     -H32     :  62.383605
 P1      -C4      -C17     -H33     :-178.696258
 P1      -C4      -C17     -H34     : -59.793506
 P1      -C4      -C18     -H35     : -61.937968
 P1      -C4      -C18     -H36     :  61.554938
 P1      -C4      -C18     -H37     : 179.392715
 P1      -C4      -C19     -H38     :  59.763824
 P1      -C4      -C19     -H39     : 179.484809
 P1      -C4      -C19     -H40     : -61.276153
 P1      -C5      -C20     -H41     : -57.143903
 P1      -C5      -C20     -H42     :  63.869963
 P1      -C5      -C20     -H43     :-177.447559
 P1      -C5      -C21     -H44     :  67.407835
 P1      -C5      -C21     -H45     :-174.432502
 P1      -C5      -C21     -H46     : -56.118132
 P1      -C5      -C22     -H47     : -58.645087
 P1      -C5      -C22     -H48     :  62.252573
 P1      -C5      -C22     -H49     :-177.755367
 C3      -P1      -C4      -C17     : 167.524678
 C3      -P1      -C4      -C18     : -70.405921
 C3      -P1      -C4      -C19     :  47.629992
 C3      -P1      -C5      -C20     :  44.523366
 C3      -P1      -C5      -C21     : -79.531667
 C3      -P1      -C5      -C22     : 159.992756
 C3      -C12     -C6      -C7      : 115.139230
 C3      -C12     -C6      -C11     : -67.060706
 C3      -C12     -C13     -C14     :   0.845547
 C3      -C12     -C13     -H28     : 177.985896
 C3      -C16     -C15     -C14     :  -0.393000
 C3      -C16     -C15     -H30     : 179.806053
 C4      -P1      -C3      -C12     : 106.371602
 C4      -P1      -C3      -C16     : -74.200085
 C4      -P1      -C5      -C20     : 162.102390
 C4      -P1      -C5      -C21     :  38.047357
 C4      -P1      -C5      -C22     : -82.428221
 C5      -P1      -C3      -C12     :-135.039095
 C5      -P1      -C3      -C16     :  44.389218
 C5      -P1      -C4      -C17     :  48.970441
 C5      -P1      -C4      -C18     : 171.039842
 C5      -P1      -C4      -C19     : -70.924245
 C6      -C7      -C8      -C9      :  -0.058635
 C6      -C7      -C8      -H24     : 179.473679
 C6      -C7      -C23     -H50     :  85.372142
 C6      -C7      -C23     -H51     : -40.298523
 C6      -C7      -C23     -H52     :-157.182253
 C6      -C11     -C10     -C9      :   0.267829
 C6      -C11     -C10     -H26     : 179.867470
 C6      -C12     -C3      -C16     : 179.001630
 C6      -C12     -C13     -C14     :-179.577123
 C6      -C12     -C13     -H28     :  -2.436773
 C7      -C6      -C11     -C10     :  -0.246318
 C7      -C6      -C11     -H27     : 177.434655
 C7      -C6      -C12     -C13     : -64.383805
 C7      -C8      -C9      -C10     :   0.070408
 C7      -C8      -C9      -H25     : 179.849777
 C8      -C7      -C6      -C11     :   0.134190
 C8      -C7      -C6      -C12     : 178.038907
 C8      -C7      -C23     -H50     : -97.789373
 C8      -C7      -C23     -H51     : 136.539962
 C8      -C7      -C23     -H52     :  19.656232
 C8      -C9      -C10     -C11     :  -0.163695
 C8      -C9      -C10     -H26     :-179.759702
 C9      -C8      -C7      -C23     :-177.009484
 C9      -C10     -C11     -H27     :-177.463380
 C10     -C9      -C8      -H24     :-179.469488
 C10     -C11     -C6      -C12     :-178.246883
 C11     -C6      -C7      -C23     : 176.875278
 C11     -C6      -C12     -C13     : 113.416259
 C11     -C10     -C9      -H25     :-179.943426
 C12     -C3      -C16     -C15     :   1.334379
 C12     -C3      -C16     -H31     :-178.144514
 C12     -C6      -C7      -C23     :  -5.220004
 C12     -C6      -C11     -H27     :  -0.565911
 C12     -C13     -C14     -C15     :   0.091256
 C12     -C13     -C14     -H29     : 179.378312
 C13     -C12     -C3      -C16     :  -1.479479
 C13     -C14     -C15     -C16     :  -0.340170
 C13     -C14     -C15     -H30     : 179.459256
 C14     -C15     -C16     -H31     : 179.103043
 C15     -C14     -C13     -H28     :-177.178373
 C16     -C15     -C14     -H29     :-179.626283
 C17     -C4      -C18     -H35     :  63.390027
 C17     -C4      -C18     -H36     :-173.117067
 C17     -C4      -C18     -H37     : -55.279290
 C17     -C4      -C19     -H38     : -63.766087
 C17     -C4      -C19     -H39     :  55.954899
 C17     -C4      -C19     -H40     : 175.193937
 C18     -C4      -C17     -H32     : -62.764980
 C18     -C4      -C17     -H33     :  56.155157
 C18     -C4      -C17     -H34     : 175.057909
 C18     -C4      -C19     -H38     :-177.896774
 C18     -C4      -C19     -H39     : -58.175788
 C18     -C4      -C19     -H40     :  61.063249
 C19     -C4      -C17     -H32     :-175.848155
 C19     -C4      -C17     -H33     : -56.928018
 C19     -C4      -C17     -H34     :  61.974734
 C19     -C4      -C18     -H35     : 177.356392
 C19     -C4      -C18     -H36     : -59.150702
 C19     -C4      -C18     -H37     :  58.687075
 C20     -C5      -C21     -H44     : -57.294834
 C20     -C5      -C21     -H45     :  60.864830
 C20     -C5      -C21     -H46     : 179.179199
 C20     -C5      -C22     -H47     :  57.841298
 C20     -C5      -C22     -H48     : 178.738958
 C20     -C5      -C22     -H49     : -61.268982
 C21     -C5      -C20     -H41     :  73.147634
 C21     -C5      -C20     -H42     :-165.838500
 C21     -C5      -C20     -H43     : -47.156022
 C21     -C5      -C22     -H47     : 173.688955
 C21     -C5      -C22     -H48     : -65.413385
 C21     -C5      -C22     -H49     :  54.578675
 C22     -C5      -C20     -H41     :-171.286542
 C22     -C5      -C20     -H42     : -50.272676
 C22     -C5      -C20     -H43     :  68.409802
 C22     -C5      -C21     -H44     :-173.033959
 C22     -C5      -C21     -H45     : -54.874295
 C22     -C5      -C21     -H46     :  63.440074
 C23     -C7      -C8      -H24     :   2.522830
 H24     -C8      -C9      -H25     :   0.309881
 H25     -C9      -C10     -H26     :   0.460567
 H26     -C10     -C11     -H27     :   2.136261
 H28     -C13     -C14     -H29     :   2.108683
 H29     -C14     -C15     -H30     :   0.173143
 H30     -C15     -C16     -H31     :  -0.697905
 
  nuclear repulsion energy.......          2015.906445897 hartrees
 -------------------------------------------------
   end of geometry optimization iteration  1
 -------------------------------------------------
   
  end of program geopt
   
 Time(geopt)  user:       0.491  user+sys:       0.491  wallclock:       0.494
  
  start of program onee
  
  smallest eigenvalue of S:    3.743E-04
  number of canonical orbitals.....          368
  end of program onee
   
 Time(onee)  user:       0.353  user+sys:       0.353  wallclock:       0.337
  
  start of program probe
  
  end of program probe
   
 Time(probe)  user:       0.259  user+sys:       0.259  wallclock:       0.175
  
  start of program grid
  
  end of program grid
   
 Time(grid)  user:      51.493  user+sys:      51.493  wallclock:      27.040
  
  start of program rwr
  
  end of program rwr
   
 Time(rwr)  user:       7.913  user+sys:       7.913  wallclock:      10.420
  
  start of program scf
  
 Energy computed using pseudospectral method.
 Convergence Criterion:
    Energy (econv):       1.00E-05
    RMS density (dconv):  5.00E-06
  
       i  u  d  i  g                   
       t  p  i  c  r                                 RMS    maximum
       e  d  i  u  i                       energy  density   DIIS  
       r  t  s  t  d       total energy    change  change    error 
  
etot    1  N  N  2  U   -1158.57927319615           8.2E-04  2.0E-02
etot    2  Y  Y  6  M   -1158.66374469141  8.4E-02  1.8E-04  1.8E-03
etot    3  N  Y  2  U   -1158.66365101946 -9.4E-05  1.1E-04  2.6E-03
etot    4  Y  Y  6  M   -1158.66491836519  1.3E-03  3.1E-05  6.0E-04
etot    5  N  Y  2  U   -1158.66489827811 -2.0E-05  1.4E-05  3.4E-04
etot    6  N  Y  2  U   -1158.66491426950  1.6E-05  4.5E-06  1.0E-04
etot    7  N  N  2  U   -1158.66491595773  1.7E-06  0.0E+00  0.0E+00
 
  Computing the dispersion energy correction and its gradients...
  
  
 Energy components, in hartrees:
   (A)  Nuclear repulsion............    2015.90644589659
   (E)  Total one-electron terms.....   -5584.94348169997
   (F)    Electron-nuclear...........   -6737.09724171846
   (H)    Kinetic....................    1152.15376001849
   (I)  Total two-electron terms.....    2410.37211984565
   (J)    Coulomb....................    2558.17107457033
   (K)    Exchange+Correlation.......    -147.79895472468
   (L)  Electronic energy............   -3174.57136185432  (E+I)
   (M)  -V/T.........................       2.00565129080  (-(A+F+I)/H)
   (N0) D3 correction................      -0.06840556257
   (N)  Total energy.................   -1158.73332152030  (A+L+N0)
   (O)  Gas phase energy.............   -1158.73332152030
  
 SCFE: SCF energy: DFT(b3pw91-d3)     -1158.73332152030 hartrees   iterations:   7
  
 
 HOMO energy:    -0.18938
 LUMO energy:    -0.02717
 
  Orbital energies (hartrees): 
   -77.02680   -10.19432   -10.19193   -10.19192   -10.18898   -10.17907
   -10.17666   -10.17600   -10.17399   -10.17340   -10.17282   -10.16546
   -10.16291   -10.16264   -10.16138   -10.15913   -10.15854   -10.15723
   -10.15471   -10.15410   -10.15289   -10.14975    -6.52999    -4.68841
    -4.68785    -4.68242    -0.86984    -0.84691    -0.81812    -0.80151
    -0.77994    -0.76266    -0.74944    -0.72217    -0.68801    -0.68713
    -0.67860    -0.67806    -0.67626    -0.63830    -0.61421    -0.59880
    -0.58171    -0.56808    -0.54768    -0.52621    -0.50162    -0.48746
    -0.46270    -0.46183    -0.45459    -0.45038    -0.44691    -0.44030
    -0.43531    -0.43089    -0.42214    -0.41723    -0.41465    -0.40762
    -0.39827    -0.39356    -0.38713    -0.38161    -0.37730    -0.37270
    -0.37061    -0.36677    -0.36044    -0.35796    -0.35306    -0.34740
    -0.33999    -0.33312    -0.32999    -0.32592    -0.32158    -0.31769
    -0.30468    -0.29289    -0.26105    -0.25198    -0.23742    -0.23182
    -0.18938    -0.02717    -0.01397     0.00857     0.01300     0.06577
     0.07211     0.08306     0.08448     0.10236     0.11392
 
  end of program scf
   
 Time(scf)  user:      94.364  user+sys:      94.364  wallclock:      50.922
  
  start of program der1a
  
  end of program der1a
   
 Time(der1a)  user:       0.587  user+sys:       0.587  wallclock:       0.513
  
  start of program rwr
  
  end of program rwr
   
 Time(rwr)  user:       7.973  user+sys:       7.973  wallclock:      10.856
  
  start of program der1b
  
   
  forces (hartrees/bohr) : total     
   
 atom  label           x              y              z
 ---- --------   -------------  -------------  -------------
    1 P1          7.621024E-03   2.072923E-02   3.885272E-02
    2 C3         -1.259856E-02  -1.445185E-03  -1.665862E-02
    3 C4          5.354365E-04  -2.243138E-03  -3.290994E-02
    4 C5         -3.479522E-03  -1.229341E-02  -1.215432E-02
    5 C6         -5.153060E-03   1.815778E-02   3.125990E-02
    6 C7          1.619664E-04  -8.100111E-03   4.684393E-03
    7 C8          1.490697E-03   2.907664E-03   4.151423E-03
    8 C9         -4.316113E-04  -4.727734E-04  -2.610436E-03
    9 C10         1.659342E-03  -3.727878E-04   2.879986E-03
   10 C11        -5.915235E-03   7.231616E-03  -1.035056E-02
   11 C12        -3.242036E-03  -1.792666E-02  -1.541796E-02
   12 C13         1.153989E-02   5.480086E-04  -5.099462E-03
   13 C14        -3.049474E-03  -1.432613E-03  -1.928099E-03
   14 C15         7.685912E-04  -8.264096E-05   2.538339E-03
   15 C16         4.135943E-03  -4.432074E-03  -7.887255E-03
   16 C17        -5.655860E-03  -4.490648E-03   7.243239E-03
   17 C18         3.145945E-03   2.832536E-03   9.744035E-03
   18 C19         1.359242E-03  -7.196226E-04  -7.712976E-03
   19 C20         7.870455E-03   2.483552E-04   3.520668E-03
   20 C21        -2.871521E-03  -3.239192E-03  -4.813407E-03
   21 C22        -4.196212E-03   3.928714E-03   6.607672E-03
   22 C23        -1.462447E-05  -6.835846E-03   4.306520E-03
   23 H24        -1.581011E-03  -1.746634E-03  -4.880062E-03
   24 H25         2.567752E-04  -3.828921E-03  -3.542457E-03
   25 H26         1.854954E-03  -4.924948E-03  -7.286955E-04
   26 H27        -3.068717E-03  -1.779653E-03  -5.261716E-03
   27 H28        -4.091516E-03   1.480748E-03   6.603262E-03
   28 H29        -4.036007E-03   1.664845E-03   3.264211E-03
   29 H30        -7.322757E-04   2.497876E-03   4.272200E-03
   30 H31         7.056050E-04   1.753784E-03   3.849704E-03
   31 H32         2.961181E-03  -1.758320E-03  -2.199739E-03
   32 H33         5.436156E-03  -1.950698E-03   1.729628E-03
   33 H34         2.507466E-03   4.797861E-03   2.520766E-04
   34 H35         4.199299E-03  -2.962062E-03  -3.500046E-03
   35 H36        -1.631118E-03  -9.282286E-04   2.689320E-03
   36 H37         5.939900E-04  -5.867394E-03   1.208038E-03
   37 H38         2.049856E-03   6.720092E-03   1.433361E-03
   38 H39         1.137988E-03  -1.528554E-03   4.334368E-03
   39 H40        -5.437287E-03  -4.088736E-05   1.932503E-03
   40 H41        -5.284660E-03  -4.905360E-04   1.587868E-03
   41 H42         1.937461E-04   1.963118E-03  -4.451703E-03
   42 H43        -9.394558E-04   5.728783E-03  -5.703807E-04
   43 H44        -2.010816E-03   2.505429E-03   4.444671E-03
   44 H45         2.554927E-03   3.579304E-03   2.814594E-03
   45 H46         3.544762E-03  -2.938251E-03   2.832575E-03
   46 H47        -2.489217E-04   7.167671E-04  -5.889109E-03
   47 H48         4.040626E-03  -5.627845E-03   2.562476E-03
   48 H49         3.732043E-03   2.853580E-03  -2.531042E-03
   49 H50        -7.353732E-03  -2.379546E-03  -3.595242E-03
   50 H51         7.054311E-03   5.389604E-03  -4.469023E-03
   51 H52        -8.798482E-04   4.766779E-03  -3.767378E-03
 -------------   -------------  -------------  -------------
     total       -7.908664E-04   1.632977E-04  -1.329863E-03
   
  end of program der1b
   
 Time(der1b)  user:      45.285  user+sys:      45.285  wallclock:      24.017
  
  start of program geopt
  
 ----------------------------------------------------------------------------
  Geometry optimization step  2
  Total energy:     -1158.73332152030 hartrees
 ----------------------------------------------------------------------------
  
  
  Level shifts adjusted to satisfy step-size constraints
   Step size:    0.3000682
   Cos(theta):   0.9495589
   Final level shift:  -2.7476056E-01
  
  energy change:          -3.5337E-02 .  (  2.5000E-04 )
  gradient maximum:        6.7922E-02 .  (  2.2500E-03 )
  gradient rms:            1.0143E-02 .  (  1.5000E-03 )
  displacement maximum:    1.3090E-01 .  (  9.0000E-03 )
  displacement rms:        2.3722E-02 .  (  6.0000E-03 )
  
  predicted energy change:  -3.0647E-02
  step size:     0.30007
  trust radius:  0.30000
  
  molecular structure not yet converged...
  
  center of mass moved by:
     x:    -4.6222E-02     y:    -1.6694E-02     z:    -3.4055E-02
  
  new geometry: 
                                   angstroms
  atom               x                 y                 z
  P1            0.1075028816      0.2137312385     -0.0094287858 
  C3            1.8112654017      0.0134231990     -0.7511654615 
  C4           -0.7601438800      1.4963130768     -1.1334200829 
  C5           -0.6954969527     -1.5113125108     -0.1200500393 
  C6            2.9087370143      1.3686104352      1.1141608546 
  C7            3.5234106008      0.8946268010      2.2851063563 
  C8            3.5056690233      1.6949861188      3.4278098141 
  C9            2.9004901079      2.9477138243      3.4474106509 
  C10           2.2890333813      3.4161260586      2.2872884345 
  C11           2.3031837300      2.6278045983      1.1486832260 
  C12           2.9481225764      0.5656255165     -0.1325932809 
  C13           4.2184712742      0.3620556663     -0.6765161059 
  C14           4.4078197602     -0.3666368826     -1.8418619652 
  C15           3.2970916382     -0.9098194537     -2.4844699877 
  C16           2.0307763414     -0.7105283159     -1.9386478199 
  C17          -2.2663841394      1.5155789272     -0.8522227922 
  C18          -0.1643098870      2.8758774187     -0.8494940317 
  C19          -0.5447293573      1.2100009914     -2.6404939018 
  C20           0.3927523899     -2.5170039244      0.2911788913 
  C21          -1.3308191592     -1.9634670571     -1.4483270084 
  C22          -1.7803648063     -1.4939434422      0.9728521575 
  C23           4.1412813905     -0.4832224546      2.3021461517 
  H24           3.9764319930      1.3130212235      4.3302560023 
  H25           2.9003319748      3.5469407273      4.3528498828 
  H26           1.8067762274      4.3880671515      2.2552853429 
  H27           1.8609976614      2.9993552560      0.2319884646 
  H28           5.0657947500      0.8299613976     -0.1772739665 
  H29           5.4086212934     -0.4966887761     -2.2421625937 
  H30           3.3970900351     -1.4804694948     -3.4028641185 
  H31           1.1785155905     -1.1287437438     -2.4578247959 
  H32          -2.4878480156      1.8024003922      0.1834324091 
  H33          -2.7418121661      2.2559081011     -1.5075187423 
  H34          -2.7480158093      0.5549424290     -1.0506579664 
  H35          -0.3256686841      3.1890432529      0.1884987710 
  H36           0.9029190969      2.9042825083     -1.0729039520 
  H37          -0.6512488599      3.6172697286     -1.4959471324 
  H38          -0.9255286164      0.2330086671     -2.9444271882 
  H39          -1.0617175998      1.9617440691     -3.2547665167 
  H40           0.5160160216      1.2480151586     -2.9068913391 
  H41           1.2795310744     -2.4576969369     -0.3476764877 
  H42           0.7252676216     -2.3441678267      1.3218346659 
  H43          -0.0038662424     -3.5378261235      0.2302653735 
  H44          -0.5992216355     -2.1045441624     -2.2505753117 
  H45          -1.8175835449     -2.9381928550     -1.3031425682 
  H46          -2.1018726420     -1.2759298070     -1.8031647749 
  H47          -1.3467084050     -1.2871867354      1.9570236723 
  H48          -2.5541537818     -0.7455854039      0.7875811397 
  H49          -2.2726458075     -2.4739897476      1.0199715126 
  H50           5.1709075465     -0.4850524067      1.9261317163 
  H51           3.5538151147     -1.2054505052      1.7257529628 
  H52           4.2034476297     -0.8503043837      3.3330535974 
   
 
  bond lengths (angstroms):
 
 P1      -C3      :   1.868985      P1      -C4      :   1.913422
 P1      -C5      :   1.905996      C3      -C12     :   1.407126
 C3      -C16     :   1.407979      C4      -C17     :   1.532385
 C4      -C18     :   1.529323      C4      -C19     :   1.549080
 C5      -C20     :   1.537794      C5      -C21     :   1.540259
 C5      -C22     :   1.540024      C6      -C7      :   1.404848
 C6      -C11     :   1.397661      C6      -C12     :   1.483486
 C7      -C8      :   1.395228      C7      -C23     :   1.510140
 C8      -C9      :   1.391385      C8      -H24     :   1.087163
 C9      -C10     :   1.392542      C9      -H25     :   1.085768
 C10     -C11     :   1.384945      C10     -H26     :   1.085479
 C11     -H27     :   1.083470      C12     -C13     :   1.396810
 C13     -C14     :   1.387399      C13     -H28     :   1.089099
 C14     -C15     :   1.393452      C14     -H29     :   1.085706
 C15     -C16     :   1.393267      C15     -H30     :   1.085859
 C16     -H31     :   1.082034      C17     -H32     :   1.097221
 C17     -H33     :   1.097056      C17     -H34     :   1.092780
 C18     -H35     :   1.096147      C18     -H36     :   1.090732
 C18     -H37     :   1.097576      C19     -H38     :   1.091741
 C19     -H39     :   1.099875      C19     -H40     :   1.094346
 C20     -H41     :   1.094546      C20     -H42     :   1.096672
 C20     -H43     :   1.096857      C21     -H44     :   1.094870
 C21     -H45     :   1.099140      C21     -H46     :   1.092310
 C22     -H47     :   1.095171      C22     -H48     :   1.092298
 C22     -H49     :   1.097748      C23     -H50     :   1.096139
 C23     -H51     :   1.094970      C23     -H52     :   1.096077
 
  bond angles:
 
 C4      -P1      -C3      : 104.600506  C5      -P1      -C3      : 105.309005
 C5      -P1      -C4      : 112.428858  C12     -C3      -P1      : 121.331237
 C16     -C3      -P1      : 122.136925  C16     -C3      -C12     : 116.524234
 C17     -C4      -P1      : 110.264204  C18     -C4      -P1      : 108.598937
 C18     -C4      -C17     : 109.727653  C19     -C4      -P1      : 112.615646
 C19     -C4      -C17     : 108.514089  C19     -C4      -C18     : 107.047819
 C20     -C5      -P1      : 106.154726  C21     -C5      -P1      : 119.308772
 C21     -C5      -C20     : 109.300771  C22     -C5      -P1      : 104.204874
 C22     -C5      -C20     : 108.428273  C22     -C5      -C21     : 108.949685
 C11     -C6      -C7      : 118.225738  C12     -C6      -C7      : 120.414633
 C12     -C6      -C11     : 121.326786  C8      -C7      -C6      : 118.916944
 C23     -C7      -C6      : 119.752729  C23     -C7      -C8      : 121.288659
 C9      -C8      -C7      : 122.245169  H24     -C8      -C7      : 118.216414
 H24     -C8      -C9      : 119.536316  C10     -C9      -C8      : 118.822501
 H25     -C9      -C8      : 120.577581  H25     -C9      -C10     : 120.599068
 C11     -C10     -C9      : 119.272389  H26     -C10     -C9      : 121.388034
 H26     -C10     -C11     : 119.338651  C10     -C11     -C6      : 122.516980
 H27     -C11     -C6      : 117.702292  H27     -C11     -C10     : 119.749954
 C6      -C12     -C3      : 124.084581  C13     -C12     -C3      : 120.424832
 C13     -C12     -C6      : 115.486273  C14     -C13     -C12     : 121.853291
 H28     -C13     -C12     : 117.804192  H28     -C13     -C14     : 120.298298
 C15     -C14     -C13     : 118.901402  H29     -C14     -C13     : 119.894769
 H29     -C14     -C15     : 121.201219  C16     -C15     -C14     : 119.212682
 H30     -C15     -C14     : 121.432300  H30     -C15     -C16     : 119.354408
 C15     -C16     -C3      : 123.069257  H31     -C16     -C3      : 118.725267
 H31     -C16     -C15     : 118.204581  H32     -C17     -C4      : 112.017520
 H33     -C17     -C4      : 108.956318  H33     -C17     -H32     : 107.453326
 H34     -C17     -C4      : 112.882729  H34     -C17     -H32     : 108.194030
 H34     -C17     -H33     : 107.083236  H35     -C18     -C4      : 112.096826
 H36     -C18     -C4      : 111.510777  H36     -C18     -H35     : 109.302295
 H37     -C18     -C4      : 109.095211  H37     -C18     -H35     : 107.424233
 H37     -C18     -H36     : 107.209102  H38     -C19     -C4      : 112.814002
 H39     -C19     -C4      : 110.588802  H39     -C19     -H38     : 106.990369
 H40     -C19     -C4      : 111.419844  H40     -C19     -H38     : 107.542127
 H40     -C19     -H39     : 107.212363  H41     -C20     -C5      : 112.446536
 H42     -C20     -C5      : 111.273305  H42     -C20     -H41     : 107.118409
 H43     -C20     -C5      : 109.749463  H43     -C20     -H41     : 108.117791
 H43     -C20     -H42     : 107.969119  H44     -C21     -C5      : 113.209591
 H45     -C21     -C5      : 109.213464  H45     -C21     -H44     : 106.167081
 H46     -C21     -C5      : 112.738890  H46     -C21     -H44     : 108.346095
 H46     -C21     -H45     : 106.767296  H47     -C22     -C5      : 111.157084
 H48     -C22     -C5      : 112.730139  H48     -C22     -H47     : 107.673280
 H49     -C22     -C5      : 109.651577  H49     -C22     -H47     : 107.911391
 H49     -C22     -H48     : 107.533422  H50     -C23     -C7      : 112.455999
 H51     -C23     -C7      : 112.107961  H51     -C23     -H50     : 108.801059
 H52     -C23     -C7      : 109.839436  H52     -C23     -H50     : 105.593171
 H52     -C23     -H51     : 107.736089
 
  torsional angles:
 
 P1      -C3      -C12     -C6      :  -1.614196
 P1      -C3      -C12     -C13     : 177.595333
 P1      -C3      -C16     -C15     :-177.790728
 P1      -C3      -C16     -H31     :   2.559989
 P1      -C4      -C17     -H32     :  61.306510
 P1      -C4      -C17     -H33     :-179.944673
 P1      -C4      -C17     -H34     : -61.121682
 P1      -C4      -C18     -H35     : -61.577198
 P1      -C4      -C18     -H36     :  61.343537
 P1      -C4      -C18     -H37     : 179.570709
 P1      -C4      -C19     -H38     :  59.858760
 P1      -C4      -C19     -H39     : 179.637934
 P1      -C4      -C19     -H40     : -61.223436
 P1      -C5      -C20     -H41     : -58.584289
 P1      -C5      -C20     -H42     :  61.588631
 P1      -C5      -C20     -H43     :-178.969581
 P1      -C5      -C21     -H44     :  66.833332
 P1      -C5      -C21     -H45     :-175.115179
 P1      -C5      -C21     -H46     : -56.605523
 P1      -C5      -C22     -H47     : -58.050510
 P1      -C5      -C22     -H48     :  62.951823
 P1      -C5      -C22     -H49     :-177.284135
 C3      -P1      -C4      -C17     : 166.549605
 C3      -P1      -C4      -C18     : -73.192689
 C3      -P1      -C4      -C19     :  45.184718
 C3      -P1      -C5      -C20     :  42.546125
 C3      -P1      -C5      -C21     : -81.319246
 C3      -P1      -C5      -C22     : 156.928032
 C3      -C12     -C6      -C7      : 115.171941
 C3      -C12     -C6      -C11     : -66.949671
 C3      -C12     -C13     -C14     :   0.887622
 C3      -C12     -C13     -H28     : 178.474608
 C3      -C16     -C15     -C14     :  -0.420517
 C3      -C16     -C15     -H30     : 179.859428
 C4      -P1      -C3      -C12     : 106.189183
 C4      -P1      -C3      -C16     : -74.849072
 C4      -P1      -C5      -C20     : 155.857501
 C4      -P1      -C5      -C21     :  31.992129
 C4      -P1      -C5      -C22     : -89.760592
 C5      -P1      -C3      -C12     :-135.120253
 C5      -P1      -C3      -C16     :  43.841492
 C5      -P1      -C4      -C17     :  52.803594
 C5      -P1      -C4      -C18     : 173.061300
 C5      -P1      -C4      -C19     : -68.561293
 C6      -C7      -C8      -C9      :  -0.042883
 C6      -C7      -C8      -H24     : 179.426984
 C6      -C7      -C23     -H50     :  85.430076
 C6      -C7      -C23     -H51     : -37.546538
 C6      -C7      -C23     -H52     :-157.290122
 C6      -C11     -C10     -C9      :   0.119870
 C6      -C11     -C10     -H26     : 179.774729
 C6      -C12     -C3      -C16     : 179.368393
 C6      -C12     -C13     -C14     :-179.837627
 C6      -C12     -C13     -H28     :  -2.250641
 C7      -C6      -C11     -C10     :   0.003968
 C7      -C6      -C11     -H27     : 177.978945
 C7      -C6      -C12     -C13     : -64.072962
 C7      -C8      -C9      -C10     :   0.166165
 C7      -C8      -C9      -H25     : 179.832825
 C8      -C7      -C6      -C11     :  -0.042887
 C8      -C7      -C6      -C12     : 177.900244
 C8      -C7      -C23     -H50     : -96.943349
 C8      -C7      -C23     -H51     : 140.080037
 C8      -C7      -C23     -H52     :  20.336453
 C8      -C9      -C10     -C11     :  -0.200477
 C8      -C9      -C10     -H26     :-179.848026
 C9      -C8      -C7      -C23     :-177.688846
 C9      -C10     -C11     -H27     :-177.815027
 C10     -C9      -C8      -H24     :-179.296924
 C10     -C11     -C6      -C12     :-177.919484
 C11     -C6      -C7      -C23     : 177.640009
 C11     -C6      -C12     -C13     : 113.805426
 C11     -C10     -C9      -H25     :-179.867062
 C12     -C3      -C16     -C15     :   1.218099
 C12     -C3      -C16     -H31     :-178.431184
 C12     -C6      -C7      -C23     :  -4.416860
 C12     -C6      -C11     -H27     :   0.055492
 C12     -C13     -C14     -C15     :  -0.038552
 C12     -C13     -C14     -H29     : 179.380903
 C13     -C12     -C3      -C16     :  -1.422078
 C13     -C14     -C15     -C16     :  -0.197786
 C13     -C14     -C15     -H30     : 179.516249
 C14     -C15     -C16     -H31     : 179.230489
 C15     -C14     -C13     -H28     :-177.566431
 C16     -C15     -C14     -H29     :-179.609374
 C17     -C4      -C18     -H35     :  59.012980
 C17     -C4      -C18     -H36     :-178.066285
 C17     -C4      -C18     -H37     : -59.839113
 C17     -C4      -C19     -H38     : -62.497251
 C17     -C4      -C19     -H39     :  57.281923
 C17     -C4      -C19     -H40     : 176.420552
 C18     -C4      -C17     -H32     : -58.269504
 C18     -C4      -C17     -H33     :  60.479313
 C18     -C4      -C17     -H34     : 179.302304
 C18     -C4      -C19     -H38     : 179.142210
 C18     -C4      -C19     -H39     : -61.078616
 C18     -C4      -C19     -H40     :  58.060013
 C19     -C4      -C17     -H32     :-174.918964
 C19     -C4      -C17     -H33     : -56.170147
 C19     -C4      -C17     -H34     :  62.652845
 C19     -C4      -C18     -H35     : 176.581035
 C19     -C4      -C18     -H36     : -60.498231
 C19     -C4      -C18     -H37     :  57.728941
 C20     -C5      -C21     -H44     : -55.488615
 C20     -C5      -C21     -H45     :  62.562873
 C20     -C5      -C21     -H46     :-178.927470
 C20     -C5      -C22     -H47     :  54.709032
 C20     -C5      -C22     -H48     : 175.711366
 C20     -C5      -C22     -H49     : -64.524592
[...]
    C23      Y     0.00009  -0.00019  -0.00007  -0.00020   0.00014   0.00015
    C23      Z     0.00044  -0.00664   0.00039   0.00156  -0.00024  -0.00065
    H24      X     0.00058   0.20358  -0.00012  -0.09674  -0.00041   0.05952
    H24      Y    -0.00118  -0.40513   0.00023   0.19347   0.00079  -0.12040
    H24      Z     0.00199   0.69601  -0.00036  -0.32860  -0.00152   0.19878
    H25      X    -0.00001   0.01526  -0.00009   0.01848   0.00012  -0.02653
    H25      Y     0.00002  -0.19535   0.00117  -0.21309  -0.00141   0.32735
    H25      Z     0.00000  -0.38098   0.00227  -0.39993  -0.00271   0.63028
    H26      X    -0.00011  -0.04856   0.00001  -0.19725   0.00011  -0.13948
    H26      Y     0.00040   0.16998  -0.00008   0.68822  -0.00036   0.48456
    H26      Z     0.00003   0.00732  -0.00000   0.02866  -0.00006   0.01466
    H27      X     0.00043   0.01187   0.00018   0.04706  -0.00120   0.07261
    H27      Y    -0.00063  -0.02368  -0.00065  -0.09495   0.00274  -0.14592
    H27      Z     0.00122   0.04077   0.00101   0.16001  -0.00453   0.24792
    H28      X     0.00007  -0.00028   0.41787   0.00087  -0.52959  -0.00834
    H28      Y     0.00003  -0.00004   0.19668   0.00042  -0.25031  -0.00389
    H28      Z     0.00003  -0.00010   0.24873   0.00049  -0.31723  -0.00500
    H29      X    -0.00143  -0.00257  -0.55918  -0.00029   0.00250  -0.00811
    H29      Y     0.00013   0.00024   0.05938   0.00004   0.00273   0.00087
    H29      Z     0.00069   0.00106   0.24386   0.00011   0.00418   0.00354
    H30      X     0.00068   0.00001   0.05271  -0.00000   0.06813  -0.00036
    H30      Y    -0.00386  -0.00004  -0.24718   0.00000  -0.32911   0.00194
    H30      Z    -0.00679  -0.00010  -0.43849   0.00003  -0.58337   0.00343
    H31      X     0.02138   0.00052   0.06390  -0.00002   0.08519   0.00023
    H31      Y     0.01263   0.00020   0.03197  -0.00000   0.04323   0.00007
    H31      Z     0.01284   0.00021   0.03941  -0.00000   0.05350   0.00008
    H32      X    -0.00052   0.00003   0.00004  -0.00001   0.00001   0.00004
    H32      Y     0.00255  -0.00003  -0.00006  -0.00001  -0.00001  -0.00003
    H32      Z     0.01056  -0.00013  -0.00014   0.00013  -0.00007  -0.00003
    H33      X    -0.00504  -0.00010  -0.00027  -0.00010   0.00008  -0.00017
    H33      Y     0.00649   0.00012   0.00026   0.00009  -0.00007   0.00019
    H33      Z    -0.00576  -0.00008  -0.00017  -0.00010   0.00005  -0.00015
    H34      X     0.02070  -0.00020  -0.00032   0.00026  -0.00018  -0.00018
    H34      Y     0.03501  -0.00038  -0.00061   0.00044  -0.00031  -0.00036
    H34      Z     0.00500  -0.00007  -0.00009   0.00009  -0.00006  -0.00006
    H35      X     0.00059   0.00003  -0.00006   0.00010   0.00001   0.00039
    H35      Y    -0.00302  -0.00023   0.00015  -0.00106  -0.00002  -0.00177
    H35      Z    -0.00822  -0.00051   0.00052  -0.00257  -0.00008  -0.00449
    H36      X     0.01203  -0.00158  -0.00023  -0.00408  -0.00012  -0.00620
    H36      Y     0.00136  -0.00008  -0.00008  -0.00023   0.00002  -0.00032
    H36      Z    -0.00224   0.00046   0.00005   0.00107   0.00003   0.00172
    H37      X    -0.00223  -0.00049  -0.00018  -0.00114  -0.00001  -0.00193
    H37      Y     0.00380   0.00057   0.00027   0.00128   0.00003   0.00210
    H37      Z    -0.00124  -0.00055  -0.00021  -0.00128  -0.00003  -0.00218
    H38      X     0.26557  -0.00043  -0.00132   0.00015  -0.00119  -0.00026
    H38      Y     0.72542  -0.00121  -0.00347   0.00042  -0.00320  -0.00074
    H38      Z     0.12014  -0.00020  -0.00059   0.00009  -0.00056  -0.00012
    H39      X    -0.04866  -0.00015  -0.00060  -0.00012  -0.00078  -0.00026
    H39      Y     0.02826   0.00021   0.00076   0.00010   0.00092   0.00031
    H39      Z    -0.03133  -0.00018  -0.00055  -0.00012  -0.00055  -0.00027
    H40      X     0.46760  -0.00112  -0.00429  -0.00006  -0.00631  -0.00077
    H40      Y     0.01415  -0.00007  -0.00021  -0.00002  -0.00040  -0.00005
    H40      Z    -0.17420   0.00046   0.00173   0.00004   0.00254   0.00036
    H41      X     0.00098   0.00038  -0.00098   0.00019  -0.00046  -0.00049
    H41      Y    -0.00021   0.00000   0.00023  -0.00004   0.00017   0.00013
    H41      Z    -0.00056  -0.00034   0.00078  -0.00021   0.00024   0.00047
    H42      X     0.00169  -0.00064   0.00028   0.00009  -0.00000   0.00001
    H42      Y     0.00163  -0.00049   0.00032   0.00010  -0.00002   0.00001
    H42      Z     0.00365  -0.00124   0.00063   0.00032  -0.00000  -0.00014
    H43      X     0.00064  -0.00028  -0.00027   0.00013  -0.00014  -0.00029
    H43      Y     0.00134  -0.00072  -0.00068   0.00030  -0.00028  -0.00071
    H43      Z    -0.00021   0.00018   0.00016  -0.00005   0.00008   0.00015
    H44      X     0.06302  -0.00062  -0.00822   0.00007  -0.00934  -0.00032
    H44      Y    -0.00605   0.00010   0.00070  -0.00002   0.00081   0.00007
    H44      Z    -0.06577   0.00066   0.00853  -0.00007   0.00974   0.00037
    H45      X    -0.00876  -0.00019  -0.00033   0.00003  -0.00031  -0.00018
    H45      Y    -0.01540  -0.00051  -0.00146   0.00009  -0.00137  -0.00050
    H45      Z     0.00525   0.00007   0.00019  -0.00002   0.00023   0.00006
    H46      X     0.11576  -0.00027  -0.00421  -0.00012  -0.00410  -0.00038
    H46      Y    -0.08328   0.00023   0.00311   0.00007   0.00301   0.00029
    H46      Z     0.05787  -0.00014  -0.00218  -0.00005  -0.00213  -0.00020
    H47      X     0.00512   0.00010   0.00001  -0.00005  -0.00002   0.00003
    H47      Y     0.00585   0.00018   0.00001  -0.00008  -0.00003   0.00002
    H47      Z     0.01311   0.00025  -0.00009  -0.00014  -0.00010  -0.00003
    H48      X     0.02026   0.00055  -0.00018  -0.00027  -0.00015  -0.00029
    H48      Y    -0.01475  -0.00037   0.00017   0.00018   0.00010   0.00022
    H48      Z     0.00721   0.00022  -0.00005  -0.00011  -0.00002  -0.00012
    H49      X    -0.00087  -0.00024  -0.00028   0.00005   0.00000  -0.00018
    H49      Y    -0.00144  -0.00056  -0.00056   0.00014  -0.00003  -0.00043
    H49      Z    -0.00022   0.00010   0.00017  -0.00002   0.00000   0.00010
    H50      X    -0.00028  -0.00123   0.00371   0.00093  -0.00503   0.00063
    H50      Y     0.00003  -0.00102  -0.00049   0.00077   0.00069  -0.00044
    H50      Z     0.00020  -0.00133  -0.00035   0.00009   0.00054  -0.00042
    H51      X    -0.00223   0.02479  -0.00095  -0.00388  -0.00011   0.00110
    H51      Y    -0.00237   0.02471  -0.00079  -0.00293  -0.00035   0.00015
    H51      Z    -0.00298   0.03345  -0.00095  -0.00527  -0.00053   0.00115
    H52      X     0.00035  -0.00572   0.00064   0.00143  -0.00068  -0.00060
    H52      Y     0.00124  -0.02644   0.00162   0.00781  -0.00129  -0.00334
    H52      Z    -0.00249   0.04740  -0.00336  -0.01281   0.00274   0.00573
  
  vibration #          145       146       147
                 --------- --------- ---------
  frequencies      3205.57   3221.87   3241.37
  intensities        23.65      9.16      9.92
  reduc. mass         0.40      0.70      0.86
  force const         2.39      4.30      5.33
    P1       X    -0.00003  -0.00000   0.00000
    P1       Y     0.00000  -0.00002   0.00005
    P1       Z     0.00002  -0.00001   0.00009
    C3       X    -0.00009  -0.00002   0.00080
    C3       Y    -0.00015  -0.00004  -0.00121
    C3       Z    -0.00022  -0.00012  -0.00223
    C4       X    -0.00001  -0.00006  -0.00005
    C4       Y     0.00002  -0.00001   0.00000
    C4       Z    -0.00001   0.00002   0.00011
    C5       X    -0.00002  -0.00001  -0.00015
    C5       Y    -0.00002  -0.00000   0.00005
    C5       Z     0.00001   0.00002   0.00007
    C6       X     0.00015  -0.00074   0.00004
    C6       Y     0.00006   0.00296  -0.00000
    C6       Z     0.00001   0.00084  -0.00004
    C7       X     0.00001  -0.00013  -0.00001
    C7       Y    -0.00010   0.00036   0.00004
    C7       Z    -0.00010  -0.00036   0.00002
    C8       X     0.00009  -0.00107  -0.00003
    C8       Y    -0.00021   0.00238   0.00004
    C8       Z     0.00035  -0.00304  -0.00008
    C9       X    -0.00003  -0.00004   0.00000
    C9       Y     0.00033  -0.00385  -0.00004
    C9       Z     0.00062  -0.01052  -0.00010
    C10      X    -0.00010   0.00832   0.00004
    C10      Y     0.00030  -0.02985  -0.00016
    C10      Z    -0.00004  -0.00340  -0.00001
    C11      X     0.00026   0.01822   0.00004
    C11      Y    -0.00063  -0.03682  -0.00008
    C11      Z     0.00088   0.06598   0.00017
    C12      X    -0.00164   0.00008  -0.00055
    C12      Y     0.00032  -0.00019  -0.00027
    C12      Z     0.00096   0.00010  -0.00032
    C13      X     0.02987  -0.00050  -0.00153
    C13      Y     0.01582  -0.00033  -0.00087
    C13      Z     0.02090  -0.00055  -0.00117
    C14      X     0.06006  -0.00052  -0.00377
    C14      Y    -0.00648   0.00011  -0.00018
    C14      Z    -0.02640   0.00031   0.00065
    C15      X     0.00089   0.00000  -0.00402
    C15      Y    -0.01881   0.00005   0.00790
    C15      Z    -0.03263   0.00009   0.01456
    C16      X     0.00611  -0.00025   0.06464
    C16      Y     0.00409  -0.00012   0.03136
    C16      Z     0.00552  -0.00016   0.03807
    C17      X    -0.00004   0.00001   0.00004
    C17      Y    -0.00000  -0.00009   0.00005
    C17      Z    -0.00001  -0.00005   0.00015
    C18      X    -0.00007  -0.00060  -0.00000
    C18      Y     0.00004  -0.00008  -0.00001
    C18      Z    -0.00001  -0.00070   0.00014
    C19      X    -0.00052  -0.00003  -0.00229
    C19      Y    -0.00007  -0.00007  -0.00079
    C19      Z     0.00007   0.00001   0.00053
    C20      X    -0.00006   0.00005  -0.00014
    C20      Y    -0.00005   0.00004   0.00008
    C20      Z     0.00009   0.00002   0.00029
    C21      X    -0.00087   0.00004  -0.00283
    C21      Y     0.00015  -0.00001   0.00070
    C21      Z     0.00054  -0.00001   0.00217
    C22      X    -0.00003   0.00002   0.00013
    C22      Y    -0.00002  -0.00001   0.00009
    C22      Z     0.00002   0.00002   0.00018
    C23      X     0.00025   0.00004  -0.00003
    C23      Y     0.00006   0.00018   0.00000
    C23      Z     0.00004   0.00017  -0.00007
    H24      X    -0.00118   0.01020   0.00027
    H24      Y     0.00233  -0.02078  -0.00054
    H24      Z    -0.00410   0.03381   0.00100
    H25      X     0.00032  -0.00378  -0.00003
    H25      Y    -0.00365   0.05201   0.00056
    H25      Z    -0.00700   0.10417   0.00108
    H26      X     0.00105  -0.09076  -0.00053
    H26      Y    -0.00367   0.31743   0.00182
    H26      Z    -0.00014   0.01543   0.00012
    H27      X    -0.00315  -0.21439  -0.00041
    H27      Y     0.00665   0.42658   0.00089
    H27      Z    -0.01126  -0.74436  -0.00165
    H28      X    -0.34362   0.00622   0.01669
    H28      Y    -0.16481   0.00285   0.00811
    H28      Z    -0.21018   0.00402   0.01033
    H29      X    -0.66468   0.00629   0.03353
    H29      Y     0.07069  -0.00077  -0.00279
    H29      Z     0.29022  -0.00286  -0.01319
    H30      X    -0.03756   0.00006   0.02054
    H30      Y     0.20192  -0.00059  -0.08293
    H30      Z     0.35683  -0.00101  -0.14797
    H31      X    -0.08985   0.00272  -0.74313
    H31      Y    -0.04524   0.00125  -0.36060
    H31      Z    -0.05592   0.00148  -0.43940
    H32      X    -0.00003  -0.00006   0.00035
    H32      Y     0.00001   0.00008  -0.00052
    H32      Z    -0.00011   0.00057  -0.00216
    H33      X     0.00038  -0.00025  -0.00061
    H33      Y    -0.00046   0.00035   0.00062
    H33      Z     0.00034  -0.00027  -0.00040
    H34      X     0.00015   0.00023  -0.00025
    H34      Y     0.00034   0.00051  -0.00045
    H34      Z     0.00005   0.00013  -0.00003
    H35      X    -0.00002  -0.00042   0.00013
    H35      Y     0.00000   0.00393  -0.00055
    H35      Z    -0.00011   0.01056  -0.00132
    H36      X     0.00054   0.01068   0.00064
    H36      Y     0.00013   0.00087  -0.00001
    H36      Z    -0.00018  -0.00179  -0.00000
    H37      X     0.00048   0.00259  -0.00056
    H37      Y    -0.00059  -0.00273   0.00065
    H37      Z     0.00053   0.00310  -0.00051
    H38      X     0.00037   0.00037   0.00315
    H38      Y     0.00117   0.00093   0.00633
    H38      Z     0.00022   0.00021   0.00166
    H39      X     0.00140  -0.00026   0.00355
    H39      Y    -0.00151   0.00025  -0.00338
    H39      Z     0.00106  -0.00027   0.00164
    H40      X     0.00507   0.00029   0.02475
    H40      Y     0.00049  -0.00006   0.00155
    H40      Z    -0.00212  -0.00014  -0.00950
    H41      X     0.00056  -0.00027   0.00242
    H41      Y    -0.00028   0.00009  -0.00038
    H41      Z    -0.00027   0.00030  -0.00092
    H42      X    -0.00014  -0.00014  -0.00052
    H42      Y    -0.00023  -0.00020  -0.00078
    H42      Z    -0.00041  -0.00053  -0.00214
    H43      X     0.00045  -0.00015  -0.00007
    H43      Y     0.00100  -0.00021  -0.00023
    H43      Z    -0.00026   0.00002   0.00010
    H44      X     0.00790  -0.00022   0.03298
    H44      Y    -0.00072   0.00001  -0.00114
    H44      Z    -0.00829   0.00026  -0.03412
    H45      X     0.00056   0.00005   0.00037
    H45      Y     0.00183   0.00010   0.00294
    H45      Z    -0.00035   0.00002  -0.00036
    H46      X     0.00300  -0.00029   0.00814
    H46      Y    -0.00224   0.00018  -0.00614
    H46      Z     0.00156  -0.00014   0.00436
    H47      X    -0.00009  -0.00003  -0.00096
    H47      Y    -0.00011  -0.00006  -0.00097
    H47      Z    -0.00011  -0.00011  -0.00226
    H48      X     0.00016  -0.00026  -0.00001
    H48      Y    -0.00016   0.00017   0.00014
    H48      Z     0.00006  -0.00010  -0.00011
    H49      X     0.00032   0.00003  -0.00035
    H49      Y     0.00076   0.00008  -0.00074
    H49      Z    -0.00018  -0.00001   0.00017
    H50      X    -0.00257   0.00107   0.00023
    H50      Y     0.00034  -0.00038  -0.00006
    H50      Z     0.00028  -0.00014  -0.00008
    H51      X    -0.00047  -0.00131   0.00024
    H51      Y    -0.00067  -0.00169   0.00032
    H51      Z    -0.00078  -0.00191   0.00022
    H52      X    -0.00021   0.00011  -0.00003
    H52      Y     0.00000  -0.00074  -0.00027
    H52      Z     0.00000   0.00052   0.00062
  
  Number of imaginary frequencies:   0
   
  Writing vibrational animation data to PL154.vib
  Writing IR vibrational spectrum data to PL154_vib.spm
  rotational symmetry number:  1

  rotational temperatures (K):      0.016287      0.010685      0.009746
   
  The Quasi-Harmonic approximation will be applied to compute
  vibrational constributions to thermodynamic properties.
  Frequencies will be adjusted to a minimum value of  100.00 cm^-1.

  vibrational temperatures:
       mode:      1        2        3        4        5        6
  temp. (K):   143.88   143.88   143.88   143.88   143.88   143.88
   
       mode:      7        8        9       10       11       12
  temp. (K):   157.14   177.95   202.93   237.91   275.51   295.40
   
       mode:     13       14       15       16       17       18
  temp. (K):   325.24   344.02   360.05   369.67   383.91   394.51
   
       mode:     19       20       21       22       23       24
  temp. (K):   417.04   429.69   457.52   470.87   486.26   498.69
   
       mode:     25       26       27       28       29       30
  temp. (K):   505.00   514.43   547.45   569.69   585.81   588.01
   
       mode:     31       32       33       34       35       36
  temp. (K):   592.12   611.56   670.87   686.82   710.56   733.98
   
       mode:     37       38       39       40       41       42
  temp. (K):   776.95   822.28   836.26   840.87   877.70   912.61
   
       mode:     43       44       45       46       47       48
  temp. (K):   991.09  1079.64  1080.24  1111.20  1125.77  1145.01
   
       mode:     49       50       51       52       53       54
  temp. (K):  1186.30  1200.33  1201.33  1285.34  1307.06  1374.16
   
       mode:     55       56       57       58       59       60
  temp. (K):  1377.11  1385.44  1389.56  1398.25  1408.78  1413.35
   
       mode:     61       62       63       64       65       66
  temp. (K):  1420.94  1448.95  1464.03  1465.99  1477.33  1502.20
   
       mode:     67       68       69       70       71       72
  temp. (K):  1515.47  1517.90  1524.74  1534.10  1536.12  1562.75
   
       mode:     73       74       75       76       77       78
  temp. (K):  1590.62  1665.80  1674.82  1735.98  1738.00  1748.13
   
       mode:     79       80       81       82       83       84
  temp. (K):  1757.15  1772.37  1779.48  1782.40  1797.62  1804.01
   
       mode:     85       86       87       88       89       90
  temp. (K):  1853.39  1884.16  1911.90  1933.02  1962.33  2042.47
   
       mode:     91       92       93       94       95       96
  temp. (K):  2048.51  2051.62  2052.49  2070.67  2090.87  2100.83
   
       mode:     97       98       99      100      101      102
  temp. (K):  2121.47  2145.25  2163.49  2164.92  2171.90  2173.35
   
       mode:    103      104      105      106      107      108
  temp. (K):  2174.38  2177.60  2184.77  2185.70  2191.11  2199.85
   
       mode:    109      110      111      112      113      114
  temp. (K):  2205.94  2212.57  2218.82  2228.25  2231.09  2236.50
   
       mode:    115      116      117      118      119      120
  temp. (K):  2338.35  2363.78  2384.01  2412.63  4362.21  4364.24
   
       mode:    121      122      123      124      125      126
  temp. (K):  4364.67  4366.80  4371.68  4375.52  4388.66  4465.52
   
       mode:    127      128      129      130      131      132
  temp. (K):  4469.18  4471.43  4477.97  4482.79  4483.97  4486.61
   
       mode:    133      134      135      136      137      138
  temp. (K):  4505.86  4507.89  4517.12  4526.75  4537.18  4543.29
   
       mode:    139      140      141      142      143      144
  temp. (K):  4550.39  4562.92  4575.41  4585.27  4591.06  4607.95
   
       mode:    145      146      147
  temp. (K):  4612.10  4635.55  4663.60
   
   
  Thermodynamic properties calculated assuming an ideal gas

  In the table below, the units for temperature
  are kelvins, the units for U, H, and G are
  kcal/mol and the units for Cv and S are cal/(mol K)

  The zero point energy (ZPE):    282.331 kcal/mol
  is not included in U, H, or G in the table below
  
 
  =============================================================================
  Thermodynamic properties for P = 1.00E+00 atm, calculated at   1 temperatures


  T =   298.15 K, P = 1.00E+00 atm
   
                  U         Cv          S          H          G        ln(Q)
              =========  =========  =========  =========  =========  =========
  trans.          0.889      2.981     43.112      1.481    -11.373   19.19459
  rot.            0.889      2.981     34.304      0.889     -9.339   15.76236
  vib.           12.499     86.051     73.398     12.499     -9.385   15.83954
  elec.           0.000      0.000      0.000      0.000      0.000    0.00000
  ----------------------------------------------------------------------------
  total          14.276     92.013    150.813     14.869    -30.096   50.79649
   
   Total internal energy, Utot(SCFE + ZPE + U):   -1158.292520 hartrees
   Total enthalpy, Htot (Utot + nRT), with n=1:   -1158.291576 hartrees
    Total Gibbs free energy, Gtot (Htot - T*S):   -1158.363232 hartrees
   
  end of program freq
   
 Time(freq)  user:       0.269  user+sys:       0.269  wallclock:       0.291
  
  start of program post
  
  Writing input files for PBF
  end of program post
   
 Time(post)  user:       0.163  user+sys:       0.163  wallclock:       0.097

 Total cpu seconds     user:   11167.535   user+sys:   11167.535
  
 Total elapsed time:    6376 seconds

Job PL154 completed on bp1-compute084.data.bp.acrc.priv at Wed Mar 26 19:52:08 2025
