Job red_elim_N_trans_L1_PL154_2 started on bp1-compute064.data.bp.acrc.priv at Wed Apr 23 09:14:54 2025
jobid: bp1-compute064-0-6808a179

  +--------------------------------------------------------------------+
  |  Jaguar version 12.5, release 138                                  |
  |                                                                    |
  |  Copyright Schrodinger, Inc.                                       |
  |  All Rights Reserved.                                              |
  |                                                                    |
  |  The following have contributed to Jaguar (listed alphabetically): |
  |  Ty Balduf, Mike Beachy, Chandler Bennett, Art Bochevarov,         |
  |  Dale Braden, Yixiang Cao, Alan Chien, Chris Cortis,               |
  |  Rich Friesner, Jim Furness, Bill Goddard, Hod Greeley,            |
  |  Tom Hughes, Leif Jacobson, Jean-Marc Langlois, Daniel Levine,     |
  |  Rob Murphy, Dean Philipp, Tom Pollard, Murco Ringnalda,           |
  |  Daniel Mainz, Pablo Videla, Mark Watson, Haoyu Yu.                |
  |                                                                    |
  |  Use of this program should be acknowledged in publications as:    |
  |                                                                    |
  |  Jaguar, version 12.5, Schrodinger, Inc., New York, NY, 2024.      |
  |                                                                    |
  |  A. D. Bochevarov, E. Harder, T. F. Hughes, J. R. Greenwood,       |
  |  D. A. Braden, D. M. Philipp, D. Rinaldo, M. D. Halls,             |
  |  J. Zhang, R. A. Friesner, "Jaguar: A High-Performance Quantum     |
  |  Chemistry Software Program with Strengths in Life and Materials   |
  |  Sciences", Int. J. Quantum Chem., 2013, 113(18), 2110-2142.       |
  +--------------------------------------------------------------------+
  
  start of program pre
  
  Job name: red_elim_N_trans_L1_PL154_2
  Executables used: /software/local/apps/schrodinger2024-3/jaguar-v12.5/bin/Linux-x86_64
  Temporary files : /tmp/ar21627/red_elim_N_trans_L1_PL154_2#bp1-compute064-0-6808a179
  Basis file : using default basis file from /software/local/apps/schrodinger2024-3
  Maestro file (input):  red_elim_N_trans_L1_PL154_2.mae
  Maestro file (output): red_elim_N_trans_L1_PL154_2.01.mae
  
 Contents of input file: &gen and (if present) &atomic sections only
 ----------------Contents start----------------
&gen
dftname=b3pw91-d3
basis=6-31G*
numd=5
ip11=2
iaccg=3
isolv=2
igeopt=1
solvent=benzene
ifreq=1
&
&atomic
atom basis
Pd2 lacv3p*
&
 -----------------Contents end-----------------
 
  PS calculation requested. Using PS version of 6-31g*
  basis set:               non_standard                    
  net molecular charge:    0
  multiplicity:            1
  
  Using up to   4 threads per process
  
  This run will use ECP on 1 atom
  number of basis functions....          617
  
 Input geometry:
                                   angstroms
  atom               x                 y                 z
  P1            0.0000000000      0.0000000000      0.0000000000 
  Pd2           0.0000000000      0.0000000000      2.3923182082 
  N2           -2.0089262040      0.2537863987      2.1745882742 
  C16          -0.2188550679      0.0281197534      7.2562187795 
  C17          -0.3618096813     -1.1625459499      6.5347188772 
  C18          -0.3429632176     -1.1661721334      5.1371944723 
  C19          -0.1657208565      0.0173631952      4.4021695345 
  C20          -0.0361673349      1.2091666449      5.1348464771 
  C21          -0.0576433517      1.2146956882      6.5306472385 
  F10          -0.2183579689      0.0351029413      8.5892003953 
  H23          -0.5007101993     -2.1002015257      7.0741070950 
  H24          -0.4823163713     -2.1130088559      4.6153218170 
  H25           0.0687474992      2.1588726857      4.6104898253 
  H26           0.0468284059      2.1579394410      7.0679212173 
  H18          -2.5506156661     -0.6876035420      2.0003542185 
  C22          -3.7582039398      2.4014049492      5.4205510973 
  C23          -3.2763864863      3.0948777858      4.2981422519 
  C24          -2.7006241186      2.3880043624      3.2297565963 
  C25          -2.6066792044      0.9876581023      3.2837797861 
  C26          -3.0884556637      0.2941349365      4.4061125628 
  C27          -3.6642590256      1.0010586891      5.4745742872 
  H22          -4.2105330225      2.9567371923      6.2598937335 
  H27          -3.3502524030      4.1950628420      4.2558188718 
  H28          -2.3221199766      2.9328068448      2.3480145026 
  H29          -3.0146147994     -0.8059137222      4.4484636576 
  H30          -4.0427631857      0.4562562052      6.3563163721 
  C3            1.8168740000      0.0000000000     -0.5778410000 
  C4           -0.8434890000      1.4252840000     -0.9715180000 
  C5           -0.8972560000     -1.6587410000     -0.3454820000 
  C6            3.2796293429     -0.0772631011      1.5651745799 
  C7            3.4625137834     -1.1941924425      2.4448378512 
  C8            3.6827674542     -0.9928494477      3.8262243158 
  C9            3.7341317045      0.2678901385      4.4266881594 
  C10           3.5546462050      1.3740821031      3.5995714533 
  C11           3.3421428369      1.1601446389      2.2326116442 
  C12           3.0638855092     -0.0628345843      0.1414073749 
  C13           4.2092762555     -0.0954522430     -0.6900618418 
  C14           4.2237123022     -0.0670987752     -2.0895357971 
  C15           3.0101487490      0.0086446365     -2.7647042124 
  C40           1.8517008401      0.0429462734     -1.9863901935 
  C41          -2.3917700000      1.4641300000     -0.9448800000 
  C42          -0.3788420000      2.8361950000     -0.5323130000 
  C43          -0.4455240000      1.3408580000     -2.4674050000 
  C44          -0.0177960000     -2.8755410000      0.0296550000 
  C45          -1.4453590000     -1.9535040000     -1.7679970000 
  C46          -2.1262300000     -1.7392700000      0.5941800000 
  C47           3.3667242746     -2.6615240584      2.0819082524 
  H48           3.8165952529     -1.8548840558      4.5008504933 
  H49           3.9062171453      0.3868766310      5.5096724679 
  H50           3.5882308188      2.3956559905      4.0151944025 
  H51           3.2515583266      2.0764630270      1.6639984155 
  H52           5.2224133030     -0.1010445623     -0.2911858496 
  H53           5.1715446085     -0.0886533805     -2.6549006640 
  H54           2.9700872836      0.0421598939     -3.8667756221 
  H31           0.9261931514      0.1056475201     -2.5621260575 
  H32          -2.8081380000      1.6140360000      0.0705490000 
  H33          -2.7931410000      2.3029860000     -1.5580800000 
  H34          -2.8583580000      0.5482850000     -1.3582140000 
  H35          -0.6553110000      3.0576040000      0.5218020000 
  H36           0.7195950000      2.9676930000     -0.6585650000 
  H37          -0.8498760000      3.6399150000     -1.1432090000 
  H38          -0.7462210000      0.3798070000     -2.9348810000 
  H39          -0.9210170000      2.1442960000     -3.0752880000 
  H40           0.6524840000      1.4549820000     -2.6096750000 
  H41           0.9648250000     -2.8622550000     -0.4905250000 
  H42           0.1711760000     -2.9295420000      1.1223420000 
  H43          -0.5069560000     -3.8419160000     -0.2300880000 
  H44          -0.6634350000     -2.0908620000     -2.5422720000 
  H45          -2.0275400000     -2.9029450000     -1.7892070000 
  H46          -2.1492470000     -1.1796830000     -2.1325550000 
  H47          -1.8356470000     -1.6862910000      1.6668530000 
  H72          -2.8513880000     -0.9189660000      0.4051340000 
  H73          -2.6842430000     -2.6960970000      0.4765580000 
  H74           4.3287912233     -3.0526108094      1.6790954300 
  H75           2.4982815757     -2.8702720466      1.4168830718 
  H76           3.1461244098     -3.3023528219      2.9652939837 
   
  principal moments of inertia:
        amu*angstrom^2:              3643.76119              6138.52360              7918.47314
                g*cm^2:          6.05060705E-37          1.01932570E-36          1.31489324E-36
   
  rotational constants:
               cm^(-1):      0.00462644      0.00274620      0.00212890
                   GHz:      0.13869707      0.08232908      0.06382278
   
  Molecular weight:     605.18 amu
   
  Stoichiometry: PdC33PNH39F
  Molecular Point Group: C1      
  Point Group used: C1
  
 
Number of optimization coordinates:   257
Number of independent coordinates:    257
Number of non-redundant coordinates:  222
Number of frozen coordinates:           0
Number of harmonic constraints:         0
 
Number of geometric degrees of freedom:   222
Maximum geometric degrees of freedom:     222
 " " " " " excluding dummy atoms:         222
 
 
  bond lengths (angstroms):
 
 P1      -Pd2     :   2.392318      P1      -C3      :   1.906550
 P1      -C4      :   1.920093      P1      -C5      :   1.917250
 Pd2     -N2      :   2.036565      Pd2     -C19     :   2.016747
 N2      -H18     :   1.100000      N2      -C25     :   1.458143
 C16     -C17     :   1.399530      C16     -C21     :   1.400145
 C16     -F10     :   1.333000      C17     -C18     :   1.397656
 C17     -H23     :   1.090610      C18     -C19     :   1.404433
 C18     -H24     :   1.090078      C19     -C20     :   1.404989
 C20     -C21     :   1.395977      C20     -H25     :   1.089908
 C21     -H26     :   1.090544      C22     -C23     :   1.404583
 C22     -C27     :   1.404533      C22     -H22     :   1.103400
 C23     -C24     :   1.404500      C23     -H27     :   1.103474
 C24     -C25     :   1.404533      C24     -H28     :   1.103424
 C25     -C26     :   1.404533      C26     -C27     :   1.404600
 C26     -H29     :   1.103337      C27     -H30     :   1.103424
 C3      -C12     :   1.440939      C3      -C40     :   1.409634
 C4      -C41     :   1.548997      C4      -C42     :   1.549022
 C4      -C43     :   1.550220      C5      -C44     :   1.547508
 C5      -C45     :   1.552692      C5      -C46     :   1.549137
 C6      -C7      :   1.433452      C6      -C11     :   1.407323
 C6      -C12     :   1.440093      C7      -C8      :   1.413251
 C7      -C47     :   1.514581      C8      -C9      :   1.397376
 C8      -H48     :   1.102785      C9      -C10     :   1.392838
 C9      -H49     :   1.103008      C10     -C11     :   1.399824
 C10     -H50     :   1.103396      C11     -H51     :   1.082204
 C12     -C13     :   1.415742      C13     -C14     :   1.399836
 C13     -H52     :   1.088843      C14     -C15     :   1.390800
 C14     -H53     :   1.103851      C15     -C40     :   1.396048
 C15     -H54     :   1.103308      C40     -H31     :   1.091773
 C41     -H32     :   1.107669      C41     -H33     :   1.113909
 C41     -H34     :   1.107845      C42     -H35     :   1.112032
 C42     -H36     :   1.113461      C42     -H37     :   1.114017
 C43     -H38     :   1.110212      C43     -H39     :   1.114059
 C43     -H40     :   1.113053      C44     -H41     :   1.111894
 C44     -H42     :   1.110221      C44     -H43     :   1.113833
 C45     -H44     :   1.108952      C45     -H45     :   1.113922
 C45     -H46     :   1.107772      C46     -H47     :   1.112597
 C46     -H72     :   1.111077      C46     -H73     :   1.113881
 C47     -H74     :   1.113903      C47     -H75     :   1.113565
 C47     -H76     :   1.113416
 
  bond angles:
 
 C3      -P1      -Pd2     : 107.642814  C4      -P1      -Pd2     : 120.396068
 C4      -P1      -C3      : 105.383690  C5      -P1      -Pd2     : 100.381213
 C5      -P1      -C3      : 113.039431  C5      -P1      -C4      : 110.209354
 N2      -Pd2     -P1      :  83.862758  C19     -Pd2     -P1      : 175.260696
 C19     -Pd2     -N2      :  91.399003  H18     -N2      -Pd2     : 113.331428
 C25     -N2      -Pd2     : 112.691549  C25     -N2      -H18     : 110.446772
 C21     -C16     -C17     : 117.748983  F10     -C16     -C17     : 121.333471
 F10     -C16     -C21     : 120.912073  C18     -C17     -C16     : 121.085167
 H23     -C17     -C16     : 119.306782  H23     -C17     -C18     : 119.604803
 C19     -C18     -C17     : 121.522045  H24     -C18     -C17     : 118.635292
 H24     -C18     -C19     : 119.838237  C18     -C19     -Pd2     : 121.647118
 C20     -C19     -Pd2     : 121.293709  C20     -C19     -C18     : 116.972232
 C21     -C20     -C19     : 121.557740  H25     -C20     -C19     : 119.810802
 H25     -C20     -C21     : 118.624739  C20     -C21     -C16     : 121.101860
 H26     -C21     -C16     : 119.256721  H26     -C21     -C20     : 119.640461
 C27     -C22     -C23     : 120.002746  H22     -C22     -C23     : 120.000393
 H22     -C22     -C27     : 119.996860  C24     -C23     -C22     : 120.000393
 H27     -C23     -C22     : 119.995826  H27     -C23     -C24     : 120.003781
 C25     -C24     -C23     : 119.996860  H28     -C24     -C23     : 119.999284
 H28     -C24     -C25     : 120.003855  C24     -C25     -N2      : 119.996860
 C26     -C25     -N2      : 119.996860  C26     -C25     -C24     : 120.006279
 C27     -C26     -C25     : 119.996860  H29     -C26     -C25     : 120.001259
 H29     -C26     -C27     : 120.001881  C26     -C27     -C22     : 119.996860
 H30     -C27     -C22     : 120.003855  H30     -C27     -C26     : 119.999284
 C12     -C3      -P1      : 132.332083  C40     -C3      -P1      : 109.049994
 C40     -C3      -C12     : 118.601565  C41     -C4      -P1      : 116.680003
 C42     -C4      -P1      : 113.633317  C42     -C4      -C41     : 105.789550
 C43     -C4      -P1      : 109.575020  C43     -C4      -C41     : 105.935583
 C43     -C4      -C42     : 104.252746  C44     -C5      -P1      : 111.754645
 C45     -C5      -P1      : 119.639032  C45     -C5      -C44     : 105.868645
 C46     -C5      -P1      : 107.875063  C46     -C5      -C44     : 105.244514
 C46     -C5      -C45     : 105.414608  C11     -C6      -C7      : 112.855389
 C12     -C6      -C7      : 129.318543  C12     -C6      -C11     : 117.822169
 C8      -C7      -C6      : 120.577643  C47     -C7      -C6      : 126.852870
 C47     -C7      -C8      : 112.463886  C9      -C8      -C7      : 123.661511
 H48     -C8      -C7      : 120.364684  H48     -C8      -C9      : 115.971317
 C10     -C9      -C8      : 117.169856  H49     -C9      -C8      : 121.666137
 H49     -C9      -C10     : 121.163760  C11     -C10     -C9      : 118.559909
 H50     -C10     -C9      : 120.510758  H50     -C10     -C11     : 120.927422
 C10     -C11     -C6      : 127.174781  H51     -C11     -C6      : 119.444547
 H51     -C11     -C10     : 113.352565  C6      -C12     -C3      : 128.578123
 C13     -C12     -C3      : 114.079668  C13     -C12     -C6      : 117.336141
 C14     -C13     -C12     : 126.514616  H52     -C13     -C12     : 122.531223
 H52     -C13     -C14     : 110.900352  C15     -C14     -C13     : 118.517836
 H53     -C14     -C13     : 121.365931  H53     -C14     -C15     : 120.110049
 C40     -C15     -C14     : 117.048897  H54     -C15     -C14     : 121.214686
 H54     -C15     -C40     : 121.736280  C15     -C40     -C3      : 125.228312
 H31     -C40     -C3      : 120.513439  H31     -C40     -C15     : 114.258064
 H32     -C41     -C4      : 113.258537  H33     -C41     -C4      : 111.689655
 H33     -C41     -H32     : 105.503065  H34     -C41     -C4      : 113.192670
 H34     -C41     -H32     : 107.193094  H34     -C41     -H33     : 105.391539
 H35     -C42     -C4      : 112.058038  H36     -C42     -C4      : 111.797889
 H36     -C42     -H35     : 109.222001  H37     -C42     -C4      : 112.013244
 H37     -C42     -H35     : 105.726505  H37     -C42     -H36     : 105.648678
 H38     -C43     -C4      : 112.576983  H39     -C43     -C4      : 112.189921
 H39     -C43     -H38     : 106.196471  H40     -C43     -C4      : 111.777365
 H40     -C43     -H38     : 107.585060  H40     -C43     -H39     : 106.102308
 H41     -C44     -C5      : 112.298348  H42     -C44     -C5      : 111.935505
 H42     -C44     -H41     : 108.095584  H43     -C44     -C5      : 112.091550
 H43     -C44     -H41     : 106.820756  H43     -C44     -H42     : 105.192635
 H44     -C45     -C5      : 114.473937  H45     -C45     -C5      : 111.330423
 H45     -C45     -H44     : 104.456631  H46     -C45     -C5      : 113.153150
 H46     -C45     -H44     : 107.744798  H46     -C45     -H45     : 104.894240
 H47     -C46     -C5      : 112.032471  H72     -C46     -C5      : 112.097904
 H72     -C46     -H47     : 107.418253  H73     -C46     -C5      : 112.211684
 H73     -C46     -H47     : 105.875619  H73     -C46     -H72     : 106.814392
 H74     -C47     -C7      : 111.849660  H75     -C47     -C7      : 111.964901
 H75     -C47     -H74     : 113.066083  H76     -C47     -C7      : 112.334273
 H76     -C47     -H74     : 104.830478  H76     -C47     -H75     : 102.205211
 
  torsional angles:
 
 P1      -Pd2     -N2      -H18     :  82.697021
 P1      -Pd2     -N2      -C25     :-150.953049
 P1      -Pd2     -C19     -C18     :  90.381529
 P1      -Pd2     -C19     -C20     : -93.112019
 P1      -C3      -C12     -C6      :  -3.538704
 P1      -C3      -C12     -C13     : 177.391602
 P1      -C3      -C40     -C15     :-177.644279
 P1      -C3      -C40     -H31     :   2.190069
 P1      -C4      -C41     -H32     :  62.775020
 P1      -C4      -C41     -H33     :-178.274494
 P1      -C4      -C41     -H34     : -59.513232
 P1      -C4      -C42     -H35     : -63.928460
 P1      -C4      -C42     -H36     :  59.071534
 P1      -C4      -C42     -H37     : 177.433697
 P1      -C4      -C43     -H38     :  59.682494
 P1      -C4      -C43     -H39     : 179.407630
 P1      -C4      -C43     -H40     : -61.546178
 P1      -C5      -C44     -H41     : -56.022773
 P1      -C5      -C44     -H42     :  65.784275
 P1      -C5      -C44     -H43     :-176.287823
 P1      -C5      -C45     -H44     :  67.566361
 P1      -C5      -C45     -H45     :-174.255908
 P1      -C5      -C45     -H46     : -56.409800
 P1      -C5      -C46     -H47     : -59.157476
 P1      -C5      -C46     -H72     :  61.695607
 P1      -C5      -C46     -H73     :-178.104440
 Pd2     -P1      -C3      -C12     :   3.381694
 Pd2     -P1      -C3      -C40     :-178.152955
 Pd2     -P1      -C4      -C41     : -71.513102
 Pd2     -P1      -C4      -C42     :  52.011638
 Pd2     -P1      -C4      -C43     : 168.168159
 Pd2     -P1      -C5      -C44     : -70.217488
 Pd2     -P1      -C5      -C45     : 165.326564
 Pd2     -P1      -C5      -C46     :  45.006587
 Pd2     -N2      -C25     -C24     :  90.105271
 Pd2     -N2      -C25     -C26     : -89.894729
 Pd2     -C19     -C18     -C17     : 175.358092
 Pd2     -C19     -C18     -H24     :  -5.417776
 Pd2     -C19     -C20     -C21     :-175.508721
 Pd2     -C19     -C20     -H25     :   5.447408
 N2      -Pd2     -P1      -C3      : 172.800000
 N2      -Pd2     -P1      -C4      :  52.182777
 N2      -Pd2     -P1      -C5      : -68.789896
 N2      -Pd2     -C19     -C18     :  91.593634
 N2      -Pd2     -C19     -C20     : -91.899915
 N2      -C25     -C24     -C23     : 180.000000
 N2      -C25     -C24     -H28     :   0.000001
 N2      -C25     -C26     -C27     : 180.000000
 N2      -C25     -C26     -H29     :   0.000000
 C16     -C17     -C18     -C19     :   0.715588
 C16     -C17     -C18     -H24     :-178.517609
 C16     -C21     -C20     -C19     :  -0.434505
 C16     -C21     -C20     -H25     : 178.620373
 C17     -C16     -C21     -C20     :  -0.193424
 C17     -C16     -C21     -H26     : 179.449184
 C17     -C18     -C19     -C20     :  -1.292430
 C18     -C17     -C16     -C21     :   0.055695
 C18     -C17     -C16     -F10     :-179.100613
 C18     -C19     -C20     -C21     :   1.154437
 C18     -C19     -C20     -H25     :-177.889434
 C19     -Pd2     -P1      -C3      : 174.018729
 C19     -Pd2     -P1      -C4      :  53.401506
 C19     -Pd2     -P1      -C5      : -67.571166
 C19     -Pd2     -N2      -H18     : -97.202263
 C19     -Pd2     -N2      -C25     :  29.147667
 C19     -C18     -C17     -H23     :-179.944664
 C19     -C20     -C21     -H26     : 179.924240
 C20     -C19     -C18     -H24     : 177.931702
 C20     -C21     -C16     -F10     : 178.966622
 C21     -C16     -C17     -H23     :-179.285990
 F10     -C16     -C17     -H23     :   1.557702
 F10     -C16     -C21     -H26     :  -1.390769
 H23     -C17     -C18     -H24     :   0.822139
 H25     -C20     -C21     -H26     :  -1.020882
 H18     -N2      -C25     -C24     :-142.012991
 H18     -N2      -C25     -C26     :  37.987009
 C22     -C23     -C24     -C25     :   0.000000
 C22     -C23     -C24     -H28     : 179.999999
 C22     -C27     -C26     -C25     :   0.000000
 C22     -C27     -C26     -H29     : 180.000000
 C23     -C22     -C27     -C26     :   0.000000
 C23     -C22     -C27     -H30     : 180.000000
 C23     -C24     -C25     -C26     :   0.000000
 C24     -C23     -C22     -C27     :   0.000000
 C24     -C23     -C22     -H22     : 180.000000
 C24     -C25     -C26     -C27     :   0.000000
 C24     -C25     -C26     -H29     : 180.000000
 C25     -C24     -C23     -H27     : 180.000000
 C25     -C26     -C27     -H30     : 180.000000
 C26     -C25     -C24     -H28     : 180.000000
 C26     -C27     -C22     -H22     : 180.000000
 C27     -C22     -C23     -H27     : 180.000000
 H22     -C22     -C23     -H27     :   0.000000
 H22     -C22     -C27     -H30     :   0.000000
 H27     -C23     -C24     -H28     :  -0.000001
 H29     -C26     -C27     -H30     :   0.000000
 C3      -P1      -C4      -C41     : 166.762405
 C3      -P1      -C4      -C42     : -69.712856
 C3      -P1      -C4      -C43     :  46.443665
 C3      -P1      -C5      -C44     :  44.159859
 C3      -P1      -C5      -C45     : -80.296088
 C3      -P1      -C5      -C46     : 159.383935
 C3      -C12     -C6      -C7      :  95.273206
 C3      -C12     -C6      -C11     : -85.502545
 C3      -C12     -C13     -C14     :   0.274863
 C3      -C12     -C13     -H52     : 177.359151
 C3      -C40     -C15     -C14     :  -0.346891
 C3      -C40     -C15     -H54     : 179.785728
 C4      -P1      -C3      -C12     : 133.038236
 C4      -P1      -C3      -C40     : -48.496413
 C4      -P1      -C5      -C44     : 161.788653
 C4      -P1      -C5      -C45     :  37.332705
 C4      -P1      -C5      -C46     : -82.987272
 C5      -P1      -C3      -C12     :-106.540243
 C5      -P1      -C3      -C40     :  71.925108
 C5      -P1      -C4      -C41     :  44.498558
 C5      -P1      -C4      -C42     : 168.023298
 C5      -P1      -C4      -C43     : -75.820182
 C6      -C7      -C8      -C9      :   0.204575
 C6      -C7      -C8      -H48     : 179.607156
 C6      -C7      -C47     -H74     :  85.260242
 C6      -C7      -C47     -H75     : -42.827948
 C6      -C7      -C47     -H76     :-157.167381
 C6      -C11     -C10     -C9      :   0.273642
 C6      -C11     -C10     -H50     : 179.773359
 C6      -C12     -C3      -C40     : 178.113550
 C6      -C12     -C13     -C14     :-178.906444
 C6      -C12     -C13     -H52     :  -1.822156
 C7      -C6      -C11     -C10     :  -0.019764
 C7      -C6      -C11     -H51     : 177.915884
 C7      -C6      -C12     -C13     : -85.682919
 C7      -C8      -C9      -C10     :   0.054983
 C7      -C8      -C9      -H49     : 179.876051
 C8      -C7      -C6      -C11     :  -0.212327
 C8      -C7      -C6      -C12     : 179.043146
 C8      -C7      -C47     -H74     : -98.492928
 C8      -C7      -C47     -H75     : 133.418882
 C8      -C7      -C47     -H76     :  19.079450
 C8      -C9      -C10     -C11     :  -0.276610
 C8      -C9      -C10     -H50     :-179.778484
 C9      -C8      -C7      -C47     :-176.307482
 C9      -C10     -C11     -H51     :-177.768294
 C10     -C9      -C8      -H48     :-179.371646
 C10     -C11     -C6      -C12     :-179.368488
 C11     -C6      -C7      -C47     : 175.758639
 C11     -C6      -C12     -C13     :  93.541330
 C11     -C10     -C9      -H49     : 179.901367
 C12     -C3      -C40     -C15     :   1.063585
 C12     -C3      -C40     -H31     :-179.102067
 C12     -C6      -C7      -C47     :  -4.985888
 C12     -C6      -C11     -H51     :  -1.432840
 C12     -C13     -C14     -C15     :   0.419544
 C12     -C13     -C14     -H53     : 179.515586
 C13     -C12     -C3      -C40     :  -0.956143
 C13     -C14     -C15     -C40     :  -0.387844
 C13     -C14     -C15     -H54     : 179.480274
 C14     -C15     -C40     -H31     : 179.809641
 C15     -C14     -C13     -H52     :-176.949296
 C40     -C15     -C14     -H53     :-179.495593
 C41     -C4      -C42     -H35     :  65.348403
 C41     -C4      -C42     -H36     :-171.651602
 C41     -C4      -C42     -H37     : -53.289439
 C41     -C4      -C43     -H38     : -66.981941
 C41     -C4      -C43     -H39     :  52.743195
 C41     -C4      -C43     -H40     : 171.789387
 C42     -C4      -C41     -H32     : -64.694553
 C42     -C4      -C41     -H33     :  54.255933
 C42     -C4      -C41     -H34     : 173.017195
 C42     -C4      -C43     -H38     :-178.358513
 C42     -C4      -C43     -H39     : -58.633377
 C42     -C4      -C43     -H40     :  60.412815
 C43     -C4      -C41     -H32     :-174.987439
 C43     -C4      -C41     -H33     : -56.036953
 C43     -C4      -C41     -H34     :  62.724309
 C43     -C4      -C42     -H35     : 176.830700
 C43     -C4      -C42     -H36     : -60.169305
 C43     -C4      -C42     -H37     :  58.192858
 C44     -C5      -C45     -H44     : -59.667052
 C44     -C5      -C45     -H45     :  58.510680
 C44     -C5      -C45     -H46     : 176.356787
 C44     -C5      -C46     -H47     :  60.283556
 C44     -C5      -C46     -H72     :-178.863361
 C44     -C5      -C46     -H73     : -58.663408
 C45     -C5      -C44     -H41     :  75.812279
 C45     -C5      -C44     -H42     :-162.380674
 C45     -C5      -C44     -H43     : -44.452771
 C45     -C5      -C46     -H47     : 171.945031
 C45     -C5      -C46     -H72     : -67.201886
 C45     -C5      -C46     -H73     :  52.998068
 C46     -C5      -C44     -H41     :-172.848971
 C46     -C5      -C44     -H42     : -51.041923
 C46     -C5      -C44     -H43     :  66.885980
 C46     -C5      -C45     -H44     :-170.886081
 C46     -C5      -C45     -H45     : -52.708349
 C46     -C5      -C45     -H46     :  65.137758
 C47     -C7      -C8      -H48     :   3.095099
 H48     -C8      -C9      -H49     :   0.449421
 H49     -C9      -C10     -H50     :   0.399493
 H50     -C10     -C11     -H51     :   1.731423
 H52     -C13     -C14     -H53     :   2.146746
 H53     -C14     -C15     -H54     :   0.372525
 H54     -C15     -C40     -H31     :  -0.057740
 
  nuclear repulsion energy.......          4831.472636532 hartrees
  
  Detected an organometallic with only one TM atom. 
  
  Oxidation state on metal       2 is     2
  Formal multiplet on metal      2 is     1
  Formal charge on ligand        3 is    -1
  Formal multiplet on ligand     3 is     1
  Formal charge on ligand        4 is    -1
  Formal multiplet on ligand     4 is     1
  
 
  Will use High-Quality Initial guess for organometallics
       including d-d repulsion (iguess=30)
 
 Non-default options chosen:
   SCF calculation type: DFT(b3pw91-d3)              
   DFT=Becke_3_Parameter/HF+Slater+Becke88+PW91+PW-GGAIIC (B3PW91-D3)
   Geometry will be optimized in redundant internal coordinates
   Solvation energy will be computed using PBF
     -solute cavity energy will not be included
     -surface area terms will not be included
   Vibrational frequencies and related properties will be computed
      from analytic second derivatives
   IR intensities will be computed
   Thermochemical properties will be computed
   Maximum number of geometry steps: 100
   Scaling standard convergence criteria by a factor of   5.00
   Solvent: benzene                                                         
   Internal dielectric constant:    1.000
   Continuum dielectric constant:   2.283
   Solvent probe molecule radius:   2.600
  
 Non-default print settings:
     11=  2
  
 Temporary integer options set:
     21= -1  73=  2
  
  atom       vdw   vdw2    cov     mass  grid  daf  charge   basis
  P1        2.147  2.074  1.060   30.974    Y    Y      Y    ps_6-31g*
  Pd2       1.450  1.450  1.280  105.903    Y    Y      Y    lacv3p*
  N2        1.831  1.600  0.750   14.003    Y    Y      Y    ps_6-31g*
  C16       1.949  1.900  0.770   12.000    Y    Y      Y    ps_6-31g*
  C17       1.949  1.900  0.770   12.000    Y    Y      Y    ps_6-31g*
  C18       1.949  1.900  0.770   12.000    Y    Y      Y    ps_6-31g*
  C19       1.949  1.900  0.770   12.000    Y    Y      Y    ps_6-31g*
  C20       1.949  1.900  0.770   12.000    Y    Y      Y    ps_6-31g*
  C21       1.949  1.900  0.770   12.000    Y    Y      Y    ps_6-31g*
  F10       1.736  1.682  0.720   18.998    Y    Y      Y    ps_6-31g*
  H23       1.597  1.150  0.320    1.008    Y    Y      Y    ps_6-31g*
  H24       1.597  1.150  0.320    1.008    Y    Y      Y    ps_6-31g*
  H25       1.597  1.150  0.320    1.008    Y    Y      Y    ps_6-31g*
  H26       1.597  1.150  0.320    1.008    Y    Y      Y    ps_6-31g*
  H18       1.597  1.150  0.320    1.008    Y    Y      Y    ps_6-31g*
  C22       1.949  1.900  0.770   12.000    Y    Y      Y    ps_6-31g*
  C23       1.949  1.900  0.770   12.000    Y    Y      Y    ps_6-31g*
  C24       1.949  1.900  0.770   12.000    Y    Y      Y    ps_6-31g*
  C25       1.949  1.900  0.770   12.000    Y    Y      Y    ps_6-31g*
  C26       1.949  1.900  0.770   12.000    Y    Y      Y    ps_6-31g*
  C27       1.949  1.900  0.770   12.000    Y    Y      Y    ps_6-31g*
  H22       1.597  1.150  0.320    1.008    Y    Y      Y    ps_6-31g*
  H27       1.597  1.150  0.320    1.008    Y    Y      Y    ps_6-31g*
  H28       1.597  1.150  0.320    1.008    Y    Y      Y    ps_6-31g*
  H29       1.597  1.150  0.320    1.008    Y    Y      Y    ps_6-31g*
  H30       1.597  1.150  0.320    1.008    Y    Y      Y    ps_6-31g*
  C3        1.949  1.900  0.770   12.000    Y    Y      Y    ps_6-31g*
  C4        1.949  1.900  0.770   12.000    Y    Y      Y    ps_6-31g*
  C5        1.949  1.900  0.770   12.000    Y    Y      Y    ps_6-31g*
  C6        1.949  1.900  0.770   12.000    Y    Y      Y    ps_6-31g*
  C7        1.949  1.900  0.770   12.000    Y    Y      Y    ps_6-31g*
  C8        1.949  1.900  0.770   12.000    Y    Y      Y    ps_6-31g*
  C9        1.949  1.900  0.770   12.000    Y    Y      Y    ps_6-31g*
  C10       1.949  1.900  0.770   12.000    Y    Y      Y    ps_6-31g*
  C11       1.949  1.900  0.770   12.000    Y    Y      Y    ps_6-31g*
  C12       1.949  1.900  0.770   12.000    Y    Y      Y    ps_6-31g*
  C13       1.949  1.900  0.770   12.000    Y    Y      Y    ps_6-31g*
  C14       1.949  1.900  0.770   12.000    Y    Y      Y    ps_6-31g*
  C15       1.949  1.900  0.770   12.000    Y    Y      Y    ps_6-31g*
  C40       1.949  1.900  0.770   12.000    Y    Y      Y    ps_6-31g*
  C41       1.949  1.900  0.770   12.000    Y    Y      Y    ps_6-31g*
  C42       1.949  1.900  0.770   12.000    Y    Y      Y    ps_6-31g*
  C43       1.949  1.900  0.770   12.000    Y    Y      Y    ps_6-31g*
  C44       1.949  1.900  0.770   12.000    Y    Y      Y    ps_6-31g*
  C45       1.949  1.900  0.770   12.000    Y    Y      Y    ps_6-31g*
  C46       1.949  1.900  0.770   12.000    Y    Y      Y    ps_6-31g*
  C47       1.949  1.900  0.770   12.000    Y    Y      Y    ps_6-31g*
  H48       1.597  1.150  0.320    1.008    Y    Y      Y    ps_6-31g*
  H49       1.597  1.150  0.320    1.008    Y    Y      Y    ps_6-31g*
  H50       1.597  1.150  0.320    1.008    Y    Y      Y    ps_6-31g*
  H51       1.597  1.150  0.320    1.008    Y    Y      Y    ps_6-31g*
  H52       1.597  1.150  0.320    1.008    Y    Y      Y    ps_6-31g*
  H53       1.597  1.150  0.320    1.008    Y    Y      Y    ps_6-31g*
  H54       1.597  1.150  0.320    1.008    Y    Y      Y    ps_6-31g*
  H31       1.597  1.150  0.320    1.008    Y    Y      Y    ps_6-31g*
  H32       1.597  1.150  0.320    1.008    Y    Y      Y    ps_6-31g*
  H33       1.597  1.150  0.320    1.008    Y    Y      Y    ps_6-31g*
  H34       1.597  1.150  0.320    1.008    Y    Y      Y    ps_6-31g*
  H35       1.597  1.150  0.320    1.008    Y    Y      Y    ps_6-31g*
  H36       1.597  1.150  0.320    1.008    Y    Y      Y    ps_6-31g*
  H37       1.597  1.150  0.320    1.008    Y    Y      Y    ps_6-31g*
  H38       1.597  1.150  0.320    1.008    Y    Y      Y    ps_6-31g*
  H39       1.597  1.150  0.320    1.008    Y    Y      Y    ps_6-31g*
  H40       1.597  1.150  0.320    1.008    Y    Y      Y    ps_6-31g*
  H41       1.597  1.150  0.320    1.008    Y    Y      Y    ps_6-31g*
  H42       1.597  1.150  0.320    1.008    Y    Y      Y    ps_6-31g*
  H43       1.597  1.150  0.320    1.008    Y    Y      Y    ps_6-31g*
  H44       1.597  1.150  0.320    1.008    Y    Y      Y    ps_6-31g*
  H45       1.597  1.150  0.320    1.008    Y    Y      Y    ps_6-31g*
  H46       1.597  1.150  0.320    1.008    Y    Y      Y    ps_6-31g*
  H47       1.597  1.150  0.320    1.008    Y    Y      Y    ps_6-31g*
  H72       1.597  1.150  0.320    1.008    Y    Y      Y    ps_6-31g*
  H73       1.597  1.150  0.320    1.008    Y    Y      Y    ps_6-31g*
  H74       1.597  1.150  0.320    1.008    Y    Y      Y    ps_6-31g*
  H75       1.597  1.150  0.320    1.008    Y    Y      Y    ps_6-31g*
  H76       1.597  1.150  0.320    1.008    Y    Y      Y    ps_6-31g*
 
  atom      formal  2spin      esp    mulk    frag
  P1           0       0        Y    0.000       0
  Pd2          2       0        Y    0.000       0
  N2          -1       0        Y    0.000       0
  C16         -1       0        Y    0.000       0
  
  end of program pre
   
 Time(pre)  user:       1.037  user+sys:       1.037  wallclock:       1.202
  
  start of program onee
  
  smallest eigenvalue of S:    3.991E-04
  number of canonical orbitals.....          614
  end of program onee
   
 Time(onee)  user:       4.750  user+sys:       4.750  wallclock:       3.549
  
  start of program hfig
  
  initial wavefunction generated automatically from atomic wavefunctions
  Only one state below 0.010000
  Skip d-d repulsion considerations 
 
  Irreducible     Total no   No of occupied orbitals 
  representation  orbitals   Shell_1  Shell_2    ...
  No Symm          614        143
  ------------------------
  Orbital occupation/shell    1.000
 
  end of program hfig
   
 Time(hfig)  user:       1.127  user+sys:       1.127  wallclock:       1.267
  
  start of program probe
  
  end of program probe
   
 Time(probe)  user:       0.596  user+sys:       0.596  wallclock:       0.570
  
  start of program grid
  
   grid     grid set  grid #  grid sym
  ------    --------  ------  --------
  coarse        0        0        1
  medium        2        1        1
  fine          0        0        1
  ultrafine     4        2        1
  charge       -1        3        1
  gradient      4        2        1
  density       0        0        1
  DFT-fine    -11        4        1
  DFT-med.    -10        5        1
  DFT-grad    -12        6        1
  DFT-der2     -8        7        1
  DFT-cphf     -9        8        1
  LMP2-enrg     4        2        1
  LMP2-grad     2        1        1
  DFT-cphf2   -15        9        1
  PBF-dens      0        0        1
  plotting      0        0        1
  Rel-grad    -17        0        1
  
  number of gridpoints: 
     atom           P1         Pd2          N2         C16         C17         C18         C19
  grid # 1         619         356         105          79          93          95         100
  grid # 2         435         315         387         327         325         325         393
  grid # 3           9         261           7          30          26          17          13
  grid # 4        8714        8714        8714        8714        8714        8714        8714
  grid # 5        1192        1192        1192        1192        1192        1192        1192
  grid # 6        9132        9132        5922        5922        5922        5922        5922
  grid # 7       23034       32968       13958       13950       13950       13950       13950
  grid # 8         722        1150         756         748         748         748         748
  grid # 9         366        2198         406         394         394         394         394
   
  number of gridpoints: 
     atom          C20         C21         F10         H23         H24         H25         H26
  grid # 1          95          93         584         115         114         115         114
  grid # 2         324         324         563         465         458         451         464
  grid # 3          15          23         350         396         253         221         373
  grid # 4        8714        8714        8714        8714        8714        8714        8714
  grid # 5        1192        1192        1192        1192        1192        1192        1192
  grid # 6        5922        5922        5922        5922        5922        5922        5922
  grid # 7       13950       13950       23190       15206       15206       15206       15206
  grid # 8         748         748         770         786         786         786         786
  grid # 9         394         394         420         420         420         420         420
   
  number of gridpoints: 
     atom          H18         C22         C23         C24         C25         C26         C27
  grid # 1          90          96          96          96         100          96          96
  grid # 2         380         323         323         321         353         322         323
  grid # 3          83          38          36          28          30          31          34
  grid # 4        8714        8714        8714        8714        8714        8714        8714
  grid # 5        1192        1192        1192        1192        1192        1192        1192
  grid # 6        5922        5922        5922        5922        5922        5922        5922
  grid # 7       15206       13950       13950       13950       13950       13950       13950
  grid # 8         786         748         748         748         748         748         748
  grid # 9         420         394         394         394         394         394         394
   
  number of gridpoints: 
     atom          H22         H27         H28         H29         H30          C3          C4
  grid # 1         117         117         109         112         117          92          91
  grid # 2         466         466         444         447         465         389         369
  grid # 3         405         409         173         228         380          14           6
  grid # 4        8714        8714        8714        8714        8714        8714        8714
  grid # 5        1192        1192        1192        1192        1192        1192        1192
  grid # 6        5922        5922        5922        5922        5922        5922        5922
  grid # 7       15206       15206       15206       15206       15206       13950       13950
  grid # 8         786         786         786         786         786         748         748
  grid # 9         420         420         420         420         420         394         394
   
  number of gridpoints: 
     atom           C5          C6          C7          C8          C9         C10         C11
  grid # 1          88          99         100          94          96          96          93
  grid # 2         378         355         364         327         321         322         325
  grid # 3           6           9          21          30          32          30          18
  grid # 4        8714        8714        8714        8714        8714        8714        8714
  grid # 5        1192        1192        1192        1192        1192        1192        1192
  grid # 6        5922        5922        5922        5922        5922        5922        5922
  grid # 7       13950       13950       13950       13950       13950       13950       13950
  grid # 8         748         748         748         748         748         748         748
  grid # 9         394         394         394         394         394         394         394
   
  number of gridpoints: 
     atom          C12         C13         C14         C15         C40         C41         C42
  grid # 1          98          93          97          96          91          83          84
  grid # 2         359         324         324         322         322         239         240
  grid # 3          14          30          49          36          19           6           6
  grid # 4        8714        8714        8714        8714        8714        8714        8714
  grid # 5        1192        1192        1192        1192        1192        1192        1192
  grid # 6        5922        5922        5922        5922        5922        5922        5922
  grid # 7       13950       13950       13950       13950       13950       13950       13950
  grid # 8         748         748         748         748         748         748         748
  grid # 9         394         394         394         394         394         394         394
   
  number of gridpoints: 
     atom          C43         C44         C45         C46         C47         H48         H49
  grid # 1          82          80          82          79          81         114         117
  grid # 2         241         246         241         247         243         452         466
  grid # 3           6           6           6           6           6         302         375
  grid # 4        8714        8714        8714        8714        8714        8714        8714
  grid # 5        1192        1192        1192        1192        1192        1192        1192
  grid # 6        5922        5922        5922        5922        5922        5922        5922
  grid # 7       13950       13950       13950       13950       13950       15206       15206
  grid # 8         748         748         748         748         748         786         786
  grid # 9         394         394         394         394         394         420         420
   
  number of gridpoints: 
     atom          H50         H51         H52         H53         H54         H31         H32
  grid # 1         117         116         117         118         118          94         103
  grid # 2         466         452         457         467         466         388         433
  grid # 3         374         286         347         423         405          53         144
  grid # 4        8714        8714        8714        8714        8714        8714        8714
  grid # 5        1192        1192        1192        1192        1192        1192        1192
  grid # 6        5922        5922        5922        5922        5922        5922        5922
  grid # 7       15206       15206       15206       15206       15206       15206       15206
  grid # 8         786         786         786         786         786         786         786
  grid # 9         420         420         420         420         420         420         420
   
  number of gridpoints: 
     atom          H33         H34         H35         H36         H37         H38         H39
  grid # 1         108         101         107         108         109          98         109
  grid # 2         444         424         439         445         446         417         445
  grid # 3         267         146         159         238         267         135         269
  grid # 4        8714        8714        8714        8714        8714        8714        8714
  grid # 5        1192        1192        1192        1192        1192        1192        1192
  grid # 6        5922        5922        5922        5922        5922        5922        5922
  grid # 7       15206       15206       15206       15206       15206       15206       15206
  grid # 8         786         786         786         786         786         786         786
  grid # 9         420         420         420         420         420         420         420
   
  number of gridpoints: 
     atom          H40         H41         H42         H43         H44         H45         H46
  grid # 1          98         105         104         107         107         107         101
  grid # 2         406         437         432         446         443         443         427
  grid # 3         126         192         139         273         233         259         148
  grid # 4        8714        8714        8714        8714        8714        8714        8714
  grid # 5        1192        1192        1192        1192        1192        1192        1192
  grid # 6        5922        5922        5922        5922        5922        5922        5922
  grid # 7       15206       15206       15206       15206       15206       15206       15206
  grid # 8         786         786         786         786         786         786         786
  grid # 9         420         420         420         420         420         420         420
   
  number of gridpoints: 
     atom          H47         H72         H73         H74         H75         H76       total
  grid # 1          95          98         107         113         104         107        8921
  grid # 2         389         420         447         464         431         446       29425
  grid # 3          79         115         273         369         124         262       11007
  grid # 4        8714        8714        8714        8714        8714        8714      662264
  grid # 5        1192        1192        1192        1192        1192        1192       90592
  grid # 6        5922        5922        5922        5922        5922        5922      456492
  grid # 7       15206       15206       15206       15206       15206       15206     1146534
  grid # 8         786         786         786         786         786         786       58736
  grid # 9         420         420         420         420         420         420       32772
   
  end of program grid
   
 Time(grid)  user:     324.739  user+sys:     324.739  wallclock:     165.131
  
  start of program rwr
  
  end of program rwr
   
 Time(rwr)  user:      16.654  user+sys:      16.654  wallclock:      20.847
  
  start of program scf
  
 number of electrons..........        286
 number of alpha electrons....        143
 number of beta electrons.....        143
 number of orbitals, total....        614
 number of doubly-occ'd orbs..        143
 number of open shell orbs....          0
 number of occupied orbitals..        143
 number of virtual orbitals...        471
 number of hamiltonians.......          1
 number of shells.............          1
 SCF type: DFT=Becke_3_Parameter/HF+Slater+Becke88+PW91+PW-GGAIIC (B3PW91-D3)
 Energy computed using pseudospectral method.
 Convergence Criterion:
    Energy (econv):       1.00E-05
    RMS density (dconv):  5.00E-06
  
       i  u  d  i  g                   
       t  p  i  c  r                                 RMS    maximum
       e  d  i  u  i                       energy  density   DIIS  
       r  t  s  t  d       total energy    change  change    error 
  
etot    1  N  N  5  M   -1898.44033980180           2.0E-03  2.0E-01
etot    2  Y  Y  6  M   -1901.65291461141  3.2E+00  3.0E-03  1.2E-01
etot    3  Y  Y  6  M   -1902.64854368407  1.0E+00  1.1E-03  5.6E-02
etot    4  N  Y  2  U   -1902.89151741962  2.4E-01  8.9E-04  2.0E-02
etot    5  Y  Y  6  M   -1902.95617418755  6.5E-02  5.4E-04  1.1E-02
etot    6  N  Y  2  U   -1902.95872108056  2.5E-03  4.5E-04  5.2E-03
etot    7  Y  Y  6  M   -1902.96711061728  8.4E-03  8.9E-05  5.3E-03
etot    8  N  Y  2  U   -1902.97036261325  3.3E-03  3.2E-05  1.1E-03
etot    9  N  Y  2  U   -1902.97060704755  2.4E-04  9.4E-06  2.6E-04
etot   10  N  Y  2  U   -1902.97061390375  6.9E-06  3.9E-06  7.5E-05
etot   11  N  N  2  U   -1902.97061585784  2.0E-06  0.0E+00  0.0E+00
 
  Computing the dispersion energy correction and its gradients...
  
  
 Energy components, in hartrees:
   (A)  Nuclear repulsion............    4831.47263653198
   (E)  Total one-electron terms.....  -12267.87443813736
   (F)    Electron-nuclear...........  -14079.25782679426
   (H)    Kinetic....................    1811.38338865691
   (I)  Total two-electron terms.....    5533.43118574754
   (J)    Coulomb....................    5779.79935978961
   (K)    Exchange+Correlation.......    -246.36817404206
   (L)  Electronic energy............   -6734.44325238981  (E+I)
   (N0) D3 correction................      -0.13085555800
   (N)  Total energy.................   -1903.10147141584  (A+L+N0)
   (O)  Gas phase energy.............   -1903.10147141584
  
 SCFE: SCF energy: DFT(b3pw91-d3)     -1903.10147141584 hartrees   iterations:  11
  
 
 HOMO energy:    -0.17387
 LUMO energy:    -0.06147
 
  Orbital energies (hartrees): 
   -77.07613   -24.66944   -14.28963   -10.22628   -10.21584   -10.21545
   -10.21307   -10.20900   -10.19666   -10.19607   -10.19085   -10.18838
   -10.18736   -10.18036   -10.17696   -10.17693   -10.17398   -10.17361
   -10.17342   -10.17246   -10.17143   -10.16926   -10.16905   -10.16796
   -10.16439   -10.16298   -10.15448   -10.15233   -10.15068   -10.14837
   -10.14816   -10.14732   -10.14611   -10.14597   -10.14423   -10.13692
    -6.57637    -4.73471    -4.73407    -4.73038    -3.32241    -2.05548
    -2.05132    -2.02272    -1.20603    -0.88303    -0.85837    -0.85445
    -0.83347    -0.82496    -0.81848    -0.79694    -0.79359    -0.77261
    -0.76565    -0.73434    -0.72238    -0.72008    -0.71127    -0.70761
    -0.70120    -0.69473    -0.68633    -0.68570    -0.67767    -0.66196
    -0.63022    -0.60841    -0.59646    -0.58834    -0.58151    -0.58024
    -0.57514    -0.57048    -0.56040    -0.54266    -0.51781    -0.51773
    -0.49902    -0.49021    -0.48426    -0.47370    -0.47014    -0.46696
    -0.46097    -0.45921    -0.45586    -0.44965    -0.44606    -0.44069
    -0.43987    -0.43782    -0.43745    -0.43134    -0.42571    -0.42397
    -0.41961    -0.41255    -0.41007    -0.40665    -0.40308    -0.39518
    -0.39261    -0.39237    -0.38904    -0.38386    -0.38272    -0.38087
    -0.37987    -0.37492    -0.36848    -0.36597    -0.36523    -0.36045
    -0.35994    -0.35170    -0.35032    -0.34313    -0.33690    -0.33283
    -0.33079    -0.32762    -0.32481    -0.32261    -0.31974    -0.31731
    -0.31269    -0.30763    -0.30680    -0.28514    -0.26828    -0.26209
    -0.25396    -0.25239    -0.24575    -0.24257    -0.23212    -0.22928
    -0.22729    -0.22509    -0.20184    -0.19586    -0.17387    -0.06147
    -0.04322    -0.02520    -0.01378    -0.00239     0.01469     0.02036
     0.02345     0.03558     0.03635
 
  end of program scf
   
 Time(scf)  user:     420.635  user+sys:     420.635  wallclock:     226.246
  
  start of program der1a
  
  end of program der1a
   
 Time(der1a)  user:      14.059  user+sys:      14.059  wallclock:       7.612
  
  start of program rwr
  
  end of program rwr
   
 Time(rwr)  user:      18.212  user+sys:      18.212  wallclock:      21.798
  
  start of program der1b
  
   
  forces (hartrees/bohr) : total     
   
 atom  label           x              y              z
 ---- --------   -------------  -------------  -------------
    1 P1          1.653638E-02   1.222614E-03   3.239918E-02
    2 Pd2        -5.981649E-03   1.010967E-02   4.348319E-04
    3 N2         -4.472785E-02   1.233400E-02   2.931001E-02
    4 C16         1.702124E-03  -9.677162E-05  -3.820346E-02
    5 C17        -2.189756E-03  -4.768774E-03   1.115835E-02
    6 C18         2.260121E-03   4.272389E-03  -2.488746E-04
    7 C19         9.321809E-03  -5.842034E-03   3.522056E-03
    8 C20         1.709321E-03  -3.621901E-03  -1.611562E-03
    9 C21         3.848364E-04   4.802743E-03   9.354682E-03
   10 F10        -1.036902E-03  -3.443863E-04   8.485547E-03
   11 H23         4.969498E-04   1.935838E-03   7.806371E-04
   12 H24         9.026632E-04   1.141345E-04   1.446934E-03
   13 H25        -7.840665E-04  -6.196389E-04   1.437383E-03
   14 H26        -3.877059E-04  -2.105442E-03   3.721115E-04
   15 H18         2.696521E-02   6.742294E-02   3.711084E-02
   16 C22        -1.452555E-04   3.480591E-03   1.994446E-03
   17 C23         5.749305E-04  -1.889431E-03   6.503905E-04
   18 C24        -1.378499E-04   5.594396E-03   1.786152E-03
   19 C25         1.036003E-02  -1.948219E-02  -2.372008E-02
   20 C26        -1.602767E-02   3.631090E-03   1.091243E-02
   21 C27        -2.160854E-05  -3.922250E-03  -4.019971E-03
   22 H22         4.603630E-03  -5.212903E-03  -7.807856E-03
   23 H27         4.932715E-04  -1.028311E-02   1.002876E-04
   24 H28        -2.743336E-03  -7.695101E-03   7.601237E-03
   25 H29         1.283015E-03   1.211847E-02  -1.047967E-03
   26 H30         4.159413E-03   5.036905E-03  -8.327082E-03
   27 C3         -1.401558E-02  -5.533113E-03  -1.914854E-02
   28 C4         -5.078394E-03   1.827100E-02  -2.928969E-02
   29 C5         -1.467052E-02  -2.736929E-02  -1.374342E-02
   30 C6         -2.972614E-03  -1.924935E-03   6.591542E-02
   31 C7         -6.807861E-03  -1.163617E-02   1.046067E-02
   32 C8          2.803698E-03   6.593275E-03   8.333205E-03
   33 C9          6.871766E-04   9.409656E-04  -2.133816E-03
   34 C10         1.138176E-03  -4.120510E-03   2.338646E-03
   35 C11         3.171523E-04   2.252455E-02   1.395061E-03
   36 C12        -9.424218E-03  -1.025317E-02  -5.391558E-02
   37 C13         1.469762E-02   1.900715E-03  -5.146840E-03
   38 C14        -5.442130E-03   2.186980E-03  -4.971910E-03
   39 C15         5.913449E-03   1.922725E-04   2.100398E-03
   40 C40         1.358833E-02  -2.219691E-02  -1.435684E-02
   41 C41        -1.532547E-02  -8.685518E-03   1.018094E-02
   42 C42         1.143507E-02   4.350458E-03   1.603551E-02
   43 C43        -8.970699E-03   1.801290E-02  -1.838134E-02
   44 C44         1.688035E-02  -1.832218E-03   5.527954E-03
   45 C45        -2.018639E-03   3.775286E-03  -1.472467E-02
   46 C46        -1.167463E-02  -1.556659E-02  -8.420951E-03
   47 C47        -7.576640E-03  -1.216399E-02  -7.409228E-03
   48 H48        -2.568692E-03   4.184392E-03  -1.112542E-02
   49 H49        -2.572425E-03  -2.907548E-03  -1.073902E-02
   50 H50        -1.417708E-03  -9.556554E-03  -6.989732E-03
   51 H51        -3.414629E-03   5.077544E-04  -9.561518E-03
   52 H52        -5.209438E-03  -2.141149E-03   1.472638E-02
   53 H53        -7.570849E-03  -2.001416E-04   9.219465E-03
   54 H54        -1.810963E-03  -8.409569E-04   1.059491E-02
   55 H31         2.496436E-02  -3.011736E-02   1.583032E-02
   56 H32         8.123633E-03  -4.912690E-03  -4.814118E-03
   57 H33         1.109306E-02  -6.306047E-03   2.615629E-03
   58 H34         4.912228E-03   5.805414E-03   3.702901E-03
   59 H35         5.241118E-03  -5.023939E-03  -7.932743E-03
   60 H36        -8.981844E-03  -2.828860E-03   4.679058E-03
   61 H37         1.373500E-03  -1.265005E-02   1.805115E-03
   62 H38         3.804796E-04   8.507271E-03   2.676030E-03
   63 H39        -1.712738E-03  -5.269317E-03   1.033488E-02
   64 H40        -3.027885E-02   2.248022E-02  -8.436451E-04
   65 H41        -8.281404E-03   7.405633E-04   4.056146E-03
   66 H42         4.466306E-04   4.774155E-03  -7.726949E-03
   67 H43         2.807451E-04   1.249270E-02  -5.377863E-04
   68 H44        -1.126289E-03   5.049135E-03   7.543859E-03
   69 H45         6.175828E-03   7.682059E-03   6.054652E-03
   70 H46         6.953963E-03  -4.230200E-03   3.542577E-03
   71 H47         9.130928E-03  -2.307484E-02  -2.467594E-02
   72 H72         7.529838E-03  -1.167277E-02  -4.572831E-03
   73 H73         9.437039E-03   5.723648E-03  -6.338835E-03
   74 H74        -1.242928E-02   3.896046E-03  -4.677135E-03
   75 H75         1.631234E-02   3.686862E-03  -2.798762E-03
   76 H76         4.513122E-03   1.172205E-02  -4.142244E-03
 -------------   -------------  -------------  -------------
     total        5.473912E-04  -8.223195E-04  -5.579118E-03
   
  end of program der1b
   
 Time(der1b)  user:     147.511  user+sys:     147.511  wallclock:      78.031
  
  start of program geopt
  
 ----------------------------------------------------------------------------
  Geometry optimization step  1
  Total energy:     -1903.10147141584 hartrees
 ----------------------------------------------------------------------------
  
  
  Level shifts adjusted to satisfy step-size constraints
   Step size:    0.3004689
   Cos(theta):   0.8515572
   Final level shift:  -7.4382699E-01
  
  gradient maximum:        3.8542E-01 .  (  2.2500E-03 )
  gradient rms:            5.3410E-02 .  (  1.5000E-03 )
  displacement maximum:    6.8263E-02 .  (  9.0000E-03 )
  displacement rms:        1.1757E-02 .  (  6.0000E-03 )
  
  predicted energy change:  -1.0752E-01
  step size:     0.18847
  trust radius:  0.30000
  
  molecular structure not yet converged...
  
  center of mass moved by:
     x:     2.0414E-02     y:     1.1420E-02     z:    -1.7749E-02
  
  new geometry: 
                                   angstroms
  atom               x                 y                 z
  P1           -0.0303367530     -0.0179809198     -0.0457852222 
  Pd2           0.0143512113      0.0059113553      2.3477204611 
  N2           -1.9977945528      0.2980763667      2.2121878619 
  C16           0.0174045857      0.0717570246      7.2016079553 
  C17          -0.1773391886     -1.1250820258      6.5082466805 
  C18          -0.2195610913     -1.1418479398      5.1122233616 
  C19          -0.0527017322      0.0321759229      4.3603749961 
  C20           0.1288623634      1.2293852388      5.0713778247 
  C21           0.1678545646      1.2501050479      6.4652957824 
  F10           0.0753241545      0.0960538756      8.5354872970 
  H23          -0.3076996098     -2.0505937812      7.0694826426 
  H24          -0.3966408668     -2.0914017322      4.6076212377 
  H25           0.2207341876      2.1720507797      4.5329051449 
  H26           0.3110994958      2.1928323669      6.9934511240 
  H18          -2.5397471679     -0.6281469831      2.0735944853 
  C22          -3.5891913605      2.5091382403      5.4837926333 
  C23          -3.1287052356      3.1748563619      4.3397383629 
  C24          -2.6064125588      2.4433543358      3.2641963603 
  C25          -2.5427237858      1.0440415974      3.3289921887 
  C26          -3.0053800731      0.3789708224      4.4761080815 
  C27          -3.5274349874      1.1101806111      5.5506165358 
  H22          -3.9984917264      3.0840832492      6.3277736506 
  H27          -3.1767915013      4.2727493814      4.2854208746 
  H28          -2.2441487781      2.9641475618      2.3655021171 
  H29          -2.9538278259     -0.7180138757      4.5316012232 
  H30          -3.8878528480      0.5857402125      6.4480640761 
  C3            1.7807729568     -0.0543697589     -0.6107499923 
  C4           -0.9547152931      1.4179029150     -0.9239475704 
  C5           -0.8104650499     -1.7140063608     -0.4880194701 
  C6            3.0652186615     -0.0863028250      1.6311172148 
  C7            3.1657898919     -1.1955799199      2.5257948507 
  C8            3.2756034400     -0.9800985408      3.9156951836 
  C9            3.2876980173      0.2873901073      4.5008108164 
  C10           3.1711446439      1.3856189361      3.6511485604 
  C11           3.0707226483      1.1649866637      2.2747439466 
  C12           2.9708082168     -0.1119910258      0.1840932402 
  C13           4.1813195875     -0.1816549886     -0.5369984150 
  C14           4.2954385133     -0.1981616659     -1.9298684394 
  C15           3.1335440579     -0.1339830509     -2.6929035136 
  C40           1.9168277251     -0.0611726263     -2.0113998450 
  C41          -2.4960313490      1.3732455095     -0.8128803455 
  C42          -0.4980869792      2.7997350662     -0.4011490530 
  C43          -0.6442224894      1.4628386118     -2.4416151501 
  C44           0.1680131899     -2.8609081433     -0.1496581530 
  C45          -1.2971319508     -1.9484638308     -1.9406664137 
  C46          -2.0458283281     -1.9559331550      0.4100311268 
  C47           3.1002318709     -2.6538585012      2.1251068877 
  H48           3.3460594875     -1.8377380379      4.6002051360 
  H49           3.3729179539      0.4172844050      5.5893176693 
  H50           3.1755351256      2.4092533345      4.0533652500 
  H51           3.0291392514      2.0659143818      1.6734814200 
  H52           5.1464669086     -0.1887837902     -0.0326119775 
  H53           5.2801687714     -0.2465684508     -2.4184829038 
  H54           3.1710429588     -0.1367362260     -3.7922757334 
  H31           1.0307860401     -0.0202973392     -2.6403123392 
  H32          -2.8542497438      1.4571405423      0.2292245177 
  H33          -2.9616366230      2.2157535555     -1.3670117716 
  H34          -2.9354935749      0.4537388688     -1.2406498793 
  H35          -0.7462259593      2.9399295198      0.6705829419 
  H36           0.5919461640      2.9553276130     -0.5447849780 
  H37          -1.0015525463      3.6272233242     -0.9445962010 
  H38          -0.9174412229      0.5237829590     -2.9613287505 
  H39          -1.2069007741      2.2752897285     -2.9498947877 
  H40           0.4267318746      1.6660075519     -2.6333541696 
  H41           1.1474387000     -2.7401801391     -0.6556468973 
  H42           0.3519666927     -2.9356219278      0.9402237385 
  H43          -0.2370633254     -3.8485970576     -0.4553333659 
  H44          -0.4830153776     -1.9856659368     -2.6896237675 
  H45          -1.8141223032     -2.9273658060     -2.0322805349 
  H46          -2.0346572072     -1.1972059217     -2.2767253353 
  H47          -1.7739270518     -1.9534077123      1.4828946746 
  H72          -2.8280917416     -1.1886547165      0.2519557678 
  H73          -2.5131101726     -2.9427261459      0.2042418628 
  H74           4.0909047656     -3.0421742095      1.8068789961 
  H75           2.3103426162     -2.8423479557      1.3685638469 
  H76           2.7976224290     -3.3020818596      2.9738436466 
   
 
  bond lengths (angstroms):
 
 P1      -Pd2     :   2.394042      P1      -C3      :   1.897532
 P1      -C4      :   1.920262      P1      -C5      :   1.918508
 Pd2     -N2      :   2.037759      Pd2     -C19     :   2.013942
 N2      -H18     :   1.082040      N2      -C25     :   1.449367
 C16     -C17     :   1.396817      C16     -C21     :   1.397603
 C16     -F10     :   1.335357      C17     -C18     :   1.396762
 C17     -H23     :   1.090207      C18     -C19     :   1.404083
 C18     -H24     :   1.089786      C19     -C20     :   1.404208
 C20     -C21     :   1.394617      C20     -H25     :   1.089501
 C21     -H26     :   1.090047      C22     -C23     :   1.401459
 C22     -C27     :   1.401914      C22     -H22     :   1.100178
 C23     -C24     :   1.401669      C23     -H27     :   1.100287
 C24     -C25     :   1.402259      C24     -H28     :   1.100051
 C25     -C26     :   1.404366      C26     -C27     :   1.400635
 C26     -H29     :   1.099597      C27     -H30     :   1.100159
 C3      -C12     :   1.432229      C3      -C40     :   1.407259
 C4      -C41     :   1.545958      C4      -C42     :   1.546379
 C4      -C43     :   1.549755      C5      -C44     :   1.545086
 C5      -C45     :   1.549838      C5      -C46     :   1.546333
 C6      -C7      :   1.428656      C6      -C11     :   1.407129
 C6      -C12     :   1.450328      C7      -C8      :   1.410785
 C7      -C47     :   1.513745      C8      -C9      :   1.396078
 C8      -H48     :   1.099574      C9      -C10     :   1.393419
 C9      -H49     :   1.099537      C10     -C11     :   1.397588
 C10     -H50     :   1.099829      C11     -H51     :   1.083936
 C12     -C13     :   1.410732      C13     -C14     :   1.397635
 C13     -H52     :   1.089021      C14     -C15     :   1.391524
 C14     -H53     :   1.100355      C15     -C40     :   1.396477
 C15     -H54     :   1.100015      C40     -H31     :   1.087323
 C41     -H32     :   1.105143      C41     -H33     :   1.110707
 C41     -H34     :   1.105263      C42     -H35     :   1.108980
 C42     -H36     :   1.110411      C42     -H37     :   1.110653
 C43     -H38     :   1.107509      C43     -H39     :   1.111320
 C43     -H40     :   1.106790      C44     -H41     :   1.108997
 C44     -H42     :   1.107819      C44     -H43     :   1.110430
 C45     -H44     :   1.106845      C45     -H45     :   1.110820
 C45     -H46     :   1.105110      C46     -H47     :   1.106785
 C46     -H72     :   1.107086      C46     -H73     :   1.111063
 C47     -H74     :   1.110626      C47     -H75     :   1.109870
 C47     -H76     :   1.110009
 
  bond angles:
 
 C3      -P1      -Pd2     : 106.262898  C4      -P1      -Pd2     : 117.305472
 C4      -P1      -C3      : 109.733013  C5      -P1      -Pd2     : 104.292413
 C5      -P1      -C3      : 107.609546  C5      -P1      -C4      : 111.092765
 N2      -Pd2     -P1      :  85.210423  C19     -Pd2     -P1      : 177.017277
 C19     -Pd2     -N2      :  91.817864  H18     -N2      -Pd2     : 112.355759
 C25     -N2      -Pd2     : 113.190864  C25     -N2      -H18     : 110.545470
 C21     -C16     -C17     : 118.418348  F10     -C16     -C17     : 121.162989
 F10     -C16     -C21     : 120.414124  C18     -C17     -C16     : 120.705352
 H23     -C17     -C16     : 119.243699  H23     -C17     -C18     : 120.047684
 C19     -C18     -C17     : 121.436985  H24     -C18     -C17     : 118.564935
 H24     -C18     -C19     : 119.995112  C18     -C19     -Pd2     : 121.882731
 C20     -C19     -Pd2     : 120.852340  C20     -C19     -C18     : 117.201823
 C21     -C20     -C19     : 121.491046  H25     -C20     -C19     : 119.889793
 H25     -C20     -C21     : 118.605620  C20     -C21     -C16     : 120.733067
 H26     -C21     -C16     : 119.212652  H26     -C21     -C20     : 120.053319
 C27     -C22     -C23     : 119.897726  H22     -C22     -C23     : 120.015374
 H22     -C22     -C27     : 120.086900  C24     -C23     -C22     : 120.061379
 H27     -C23     -C22     : 119.994961  H27     -C23     -C24     : 119.943659
 C25     -C24     -C23     : 120.148963  H28     -C24     -C23     : 120.166463
 H28     -C24     -C25     : 119.684569  C24     -C25     -N2      : 119.674561
 C26     -C25     -N2      : 120.631893  C26     -C25     -C24     : 119.693458
 C27     -C26     -C25     : 120.145049  H29     -C26     -C25     : 119.882696
 H29     -C26     -C27     : 119.971853  C26     -C27     -C22     : 120.053401
 H30     -C27     -C22     : 120.009373  H30     -C27     -C26     : 119.937171
 C12     -C3      -P1      : 128.946266  C40     -C3      -P1      : 112.874162
 C40     -C3      -C12     : 118.153597  C41     -C4      -P1      : 115.181109
 C42     -C4      -P1      : 111.803983  C42     -C4      -C41     : 107.213080
 C43     -C4      -P1      : 111.905820  C43     -C4      -C41     : 105.720317
 C43     -C4      -C42     : 104.241431  C44     -C5      -P1      : 110.378197
 C45     -C5      -P1      : 118.520740  C45     -C5      -C44     : 106.967219
 C46     -C5      -P1      : 109.226057  C46     -C5      -C44     : 105.225277
 C46     -C5      -C45     : 105.652987  C11     -C6      -C7      : 113.812039
 C12     -C6      -C7      : 127.998479  C12     -C6      -C11     : 118.188072
 C8      -C7      -C6      : 120.255214  C47     -C7      -C6      : 125.393150
 C47     -C7      -C8      : 114.286164  C9      -C8      -C7      : 123.521787
 H48     -C8      -C7      : 119.944612  H48     -C8      -C9      : 116.530210
 C10     -C9      -C8      : 117.340150  H49     -C9      -C8      : 121.522613
 H49     -C9      -C10     : 121.132894  C11     -C10     -C9      : 118.823473
 H50     -C10     -C9      : 120.678509  H50     -C10     -C11     : 120.489572
 C10     -C11     -C6      : 126.237603  H51     -C11     -C6      : 119.028107
 H51     -C11     -C10     : 114.698236  C6      -C12     -C3      : 127.378702
 C13     -C12     -C3      : 115.549235  C13     -C12     -C6      : 117.064955
 C14     -C13     -C12     : 125.454124  H52     -C13     -C12     : 121.604453
 H52     -C13     -C14     : 112.900747  C15     -C14     -C13     : 118.538774
 H53     -C14     -C13     : 121.072952  H53     -C14     -C15     : 120.382875
 C40     -C15     -C14     : 117.535680  H54     -C15     -C14     : 121.295023
 H54     -C15     -C40     : 121.168932  C15     -C40     -C3      : 124.765026
 H31     -C40     -C3      : 119.783419  H31     -C40     -C15     : 115.447088
 H32     -C41     -C4      : 112.874696  H33     -C41     -C4      : 111.111524
 H33     -C41     -H32     : 106.080153  H34     -C41     -C4      : 113.118933
 H34     -C41     -H32     : 107.411248  H34     -C41     -H33     : 105.740723
 H35     -C42     -C4      : 111.938887  H36     -C42     -C4      : 111.798865
 H36     -C42     -H35     : 109.083350  H37     -C42     -C4      : 111.499203
 H37     -C42     -H35     : 106.096362  H37     -C42     -H36     : 106.098925
 H38     -C43     -C4      : 112.677074  H39     -C43     -C4      : 111.570983
 H39     -C43     -H38     : 106.280554  H40     -C43     -C4      : 111.643920
 H40     -C43     -H38     : 108.243718  H40     -C43     -H39     : 106.050767
 H41     -C44     -C5      : 112.245068  H42     -C44     -C5      : 111.756607
 H42     -C44     -H41     : 108.032897  H43     -C44     -C5      : 111.650299
 H43     -C44     -H41     : 107.061840  H43     -C44     -H42     : 105.747931
 H44     -C45     -C5      : 114.100969  H45     -C45     -C5      : 110.901386
 H45     -C45     -H44     : 104.886101  H46     -C45     -C5      : 113.063423
 H46     -C45     -H44     : 107.936030  H46     -C45     -H45     : 105.271060
 H47     -C46     -C5      : 111.490157  H72     -C46     -C5      : 111.909661
 H72     -C46     -H47     : 108.084267  H73     -C46     -C5      : 111.554099
 H73     -C46     -H47     : 106.552217  H73     -C46     -H72     : 106.973090
 H74     -C47     -C7      : 111.964914  H75     -C47     -C7      : 112.015810
 H75     -C47     -H74     : 112.342134  H76     -C47     -C7      : 111.838621
 H76     -C47     -H74     : 104.956214  H76     -C47     -H75     : 103.179666
 
  torsional angles:
 
 P1      -Pd2     -N2      -H18     :  82.882601
 P1      -Pd2     -N2      -C25     :-151.029847
 P1      -Pd2     -C19     -C18     :  86.526401
 P1      -Pd2     -C19     -C20     : -96.443836
 P1      -C3      -C12     -C6      :  -3.492688
 P1      -C3      -C12     -C13     : 177.513162
 P1      -C3      -C40     -C15     :-177.629457
 P1      -C3      -C40     -H31     :   1.565430
 P1      -C4      -C41     -H32     :  62.591647
 P1      -C4      -C41     -H33     :-178.386270
 P1      -C4      -C41     -H34     : -59.633438
 P1      -C4      -C42     -H35     : -63.929559
 P1      -C4      -C42     -H36     :  58.802192
 P1      -C4      -C42     -H37     : 177.391179
 P1      -C4      -C43     -H38     :  58.719205
 P1      -C4      -C43     -H39     : 178.184784
 P1      -C4      -C43     -H40     : -63.342387
 P1      -C5      -C44     -H41     : -56.252005
 P1      -C5      -C44     -H42     :  65.304575
 P1      -C5      -C44     -H43     :-176.477966
 P1      -C5      -C45     -H44     :  67.388242
 P1      -C5      -C45     -H45     :-174.441642
 P1      -C5      -C45     -H46     : -56.470090
 P1      -C5      -C46     -H47     : -59.494113
 P1      -C5      -C46     -H72     :  61.699199
 P1      -C5      -C46     -H73     :-178.487666
 Pd2     -P1      -C3      -C12     :   2.351831
 Pd2     -P1      -C3      -C40     :-179.561872
 Pd2     -P1      -C4      -C41     : -72.028325
 Pd2     -P1      -C4      -C42     :  50.674881
 Pd2     -P1      -C4      -C43     : 167.191063
 Pd2     -P1      -C5      -C44     : -70.092001
 Pd2     -P1      -C5      -C45     : 166.116857
 Pd2     -P1      -C5      -C46     :  45.137336
 Pd2     -N2      -C25     -C24     :  89.715770
 Pd2     -N2      -C25     -C26     : -90.175853
 Pd2     -C19     -C18     -C17     : 175.754656
 Pd2     -C19     -C18     -H24     :  -4.881209
 Pd2     -C19     -C20     -C21     :-175.963957
 Pd2     -C19     -C20     -H25     :   5.393454
 N2      -Pd2     -P1      -C3      : 172.656693
 N2      -Pd2     -P1      -C4      :  49.535140
 N2      -Pd2     -P1      -C5      : -73.795087
 N2      -Pd2     -C19     -C18     :  91.444727
 N2      -Pd2     -C19     -C20     : -91.525510
 N2      -C25     -C24     -C23     :-179.854721
 N2      -C25     -C24     -H28     :   0.119129
 N2      -C25     -C26     -C27     : 179.863923
 N2      -C25     -C26     -H29     :   0.094513
 C16     -C17     -C18     -C19     :   0.786383
 C16     -C17     -C18     -H24     :-178.586590
 C16     -C21     -C20     -C19     :  -0.425672
 C16     -C21     -C20     -H25     : 178.233852
 C17     -C16     -C21     -C20     :  -0.216826
 C17     -C16     -C21     -H26     : 179.426508
 C17     -C18     -C19     -C20     :  -1.378421
 C18     -C17     -C16     -C21     :   0.039697
 C18     -C17     -C16     -F10     :-179.188253
 C18     -C19     -C20     -C21     :   1.200407
 C18     -C19     -C20     -H25     :-177.442182
 C19     -Pd2     -P1      -C3      : 177.589806
 C19     -Pd2     -P1      -C4      :  54.468254
 C19     -Pd2     -P1      -C5      : -68.861974
 C19     -Pd2     -N2      -H18     : -96.860892
 C19     -Pd2     -N2      -C25     :  29.226660
 C19     -C18     -C17     -H23     :-179.875955
 C19     -C20     -C21     -H26     : 179.933983
 C20     -C19     -C18     -H24     : 177.985713
 C20     -C21     -C16     -F10     : 179.017113
 C21     -C16     -C17     -H23     :-179.303234
 F10     -C16     -C17     -H23     :   1.468817
 F10     -C16     -C21     -H26     :  -1.339553
 H23     -C17     -C18     -H24     :   0.751072
 H25     -C20     -C21     -H26     :  -1.406493
 H18     -N2      -C25     -C24     :-143.237716
 H18     -N2      -C25     -C26     :  36.870661
 C22     -C23     -C24     -C25     :  -0.004581
 C22     -C23     -C24     -H28     :-179.978303
 C22     -C27     -C26     -C25     :  -0.015946
 C22     -C27     -C26     -H29     : 179.753258
 C23     -C22     -C27     -C26     :   0.049372
 C23     -C22     -C27     -H30     : 179.963554
 C23     -C24     -C25     -C26     :   0.037929
 C24     -C23     -C22     -C27     :  -0.039136
 C24     -C23     -C22     -H22     : 179.966726
 C24     -C25     -C26     -C27     :  -0.027680
 C24     -C25     -C26     -H29     :-179.797090
 C25     -C24     -C23     -H27     : 179.980781
 C25     -C26     -C27     -H30     :-179.930190
 C26     -C25     -C24     -H28     :-179.988222
 C26     -C27     -C22     -H22     :-179.956493
 C27     -C22     -C23     -H27     : 179.975510
 H22     -C22     -C23     -H27     :  -0.018629
 H22     -C22     -C27     -H30     :  -0.042312
 H27     -C23     -C24     -H28     :   0.007059
 H29     -C26     -C27     -H30     :  -0.160987
 C3      -P1      -C4      -C41     : 166.638879
 C3      -P1      -C4      -C42     : -70.657916
 C3      -P1      -C4      -C43     :  45.858267
 C3      -P1      -C5      -C44     :  42.493245
 C3      -P1      -C5      -C45     : -81.297896
 C3      -P1      -C5      -C46     : 157.722582
 C3      -C12     -C6      -C7      :  95.822753
 C3      -C12     -C6      -C11     : -84.638413
 C3      -C12     -C13     -C14     :  -0.018446
 C3      -C12     -C13     -H52     : 177.493750
 C3      -C40     -C15     -C14     :  -0.314276
 C3      -C40     -C15     -H54     : 179.902821
 C4      -P1      -C3      -C12     : 130.108317
 C4      -P1      -C3      -C40     : -51.805386
 C4      -P1      -C5      -C44     : 162.632609
 C4      -P1      -C5      -C45     :  38.841467
 C4      -P1      -C5      -C46     : -82.138054
 C5      -P1      -C3      -C12     :-108.895536
 C5      -P1      -C3      -C40     :  69.190761
 C5      -P1      -C4      -C41     :  47.767631
 C5      -P1      -C4      -C42     : 170.470837
 C5      -P1      -C4      -C43     : -73.012981
 C6      -C7      -C8      -C9      :   0.292082
 C6      -C7      -C8      -H48     : 179.598327
 C6      -C7      -C47     -H74     :  85.310783
 C6      -C7      -C47     -H75     : -41.933013
 C6      -C7      -C47     -H76     :-157.210146
 C6      -C11     -C10     -C9      :   0.467179
 C6      -C11     -C10     -H50     : 179.417150
 C6      -C12     -C3      -C40     : 178.507163
 C6      -C12     -C13     -C14     :-179.120873
 C6      -C12     -C13     -H52     :  -1.608677
 C7      -C6      -C11     -C10     :   0.433878
 C7      -C6      -C11     -H51     : 178.126904
 C7      -C6      -C12     -C13     : -85.196342
 C7      -C8      -C9      -C10     :   0.633845
 C7      -C8      -C9      -H49     : 179.883801
 C8      -C7      -C6      -C11     :  -0.788160
 C8      -C7      -C6      -C12     : 178.767548
 C8      -C7      -C47     -H74     : -97.642281
 C8      -C7      -C47     -H75     : 135.113923
 C8      -C7      -C47     -H76     :  19.836789
 C8      -C9      -C10     -C11     :  -0.979258
 C8      -C9      -C10     -H50     :-179.927181
 C9      -C8      -C7      -C47     :-176.921114
 C9      -C10     -C11     -H51     :-177.312580
 C10     -C9      -C8      -H48     :-178.694260
 C10     -C11     -C6      -C12     :-179.168899
 C11     -C6      -C7      -C47     : 176.095501
 C11     -C6      -C12     -C13     :  94.342493
 C11     -C10     -C9      -H49     : 179.767688
 C12     -C3      -C40     -C15     :   0.682534
 C12     -C3      -C40     -H31     : 179.877421
 C12     -C6      -C7      -C47     :  -4.348791
 C12     -C6      -C11     -H51     :  -1.475873
 C12     -C13     -C14     -C15     :   0.385144
 C12     -C13     -C14     -H53     : 179.542961
 C13     -C12     -C3      -C40     :  -0.486986
 C13     -C14     -C15     -C40     :  -0.216523
 C13     -C14     -C15     -H54     : 179.566090
 C14     -C15     -C40     -H31     :-179.540437
 C15     -C14     -C13     -H52     :-177.314838
 C40     -C15     -C14     -H53     :-179.380348
 C41     -C4      -C42     -H35     :  63.205066
 C41     -C4      -C42     -H36     :-174.063184
 C41     -C4      -C42     -H37     : -55.474196
 C41     -C4      -C43     -H38     : -67.409089
 C41     -C4      -C43     -H39     :  52.056490
 C41     -C4      -C43     -H40     : 170.529319
 C42     -C4      -C41     -H32     : -62.531758
 C42     -C4      -C41     -H33     :  56.490326
 C42     -C4      -C41     -H34     : 175.243158
 C42     -C4      -C43     -H38     : 179.722747
 C42     -C4      -C43     -H39     : -60.811674
 C42     -C4      -C43     -H40     :  57.661156
 C43     -C4      -C41     -H32     :-173.309941
 C43     -C4      -C41     -H33     : -54.287857
 C43     -C4      -C41     -H34     :  64.464975
 C43     -C4      -C42     -H35     : 174.999022
 C43     -C4      -C42     -H36     : -62.269227
 C43     -C4      -C42     -H37     :  56.319760
 C44     -C5      -C45     -H44     : -58.072647
 C44     -C5      -C45     -H45     :  60.097470
 C44     -C5      -C45     -H46     : 178.069022
 C44     -C5      -C46     -H47     :  59.003110
[...]
    H22      Z    -0.00118   0.09226   0.00024  -0.00017   0.00017  -0.00013
    H27      X    -0.00037   0.07341  -0.00006  -0.00046   0.00009   0.00022
    H27      Y    -0.00118   0.24902  -0.00022  -0.00167   0.00029  -0.00086
    H27      Z     0.00024  -0.04696   0.00002   0.00030  -0.00006  -0.00024
    H28      X    -0.00015   0.62831  -0.00260  -0.00463  -0.00034  -0.00097
    H28      Y    -0.00001   0.17539  -0.00075  -0.00130  -0.00012   0.00037
    H28      Z     0.00015  -0.60870   0.00255   0.00472   0.00035   0.00191
    H29      X     0.00010  -0.00923  -0.00013  -0.00002  -0.00002   0.00285
    H29      Y     0.00040  -0.03290  -0.00045  -0.00009  -0.00011  -0.00073
    H29      Z    -0.00007   0.00742   0.00008   0.00003   0.00002  -0.00104
    H30      X     0.00094  -0.05101  -0.00044   0.00022  -0.00025  -0.00000
    H30      Y     0.00030  -0.01658  -0.00013   0.00007  -0.00007  -0.00000
    H30      Z    -0.00095   0.05156   0.00045  -0.00023   0.00025   0.00006
    C3       X    -0.00009  -0.00001   0.00002   0.00000   0.00097  -0.00001
    C3       Y    -0.00004   0.00001  -0.00000  -0.00000  -0.00037   0.00001
    C3       Z    -0.00037  -0.00001   0.00005   0.00009  -0.00259  -0.00001
    C4       X    -0.00001   0.00006   0.00003   0.00005  -0.00010   0.00002
    C4       Y     0.00002   0.00003  -0.00002  -0.00004  -0.00002  -0.00001
    C4       Z    -0.00000  -0.00013   0.00001  -0.00001   0.00008  -0.00002
    C5       X    -0.00002  -0.00001   0.00000   0.00001  -0.00016  -0.00001
    C5       Y    -0.00002  -0.00001   0.00001   0.00001   0.00001  -0.00001
    C5       Z    -0.00000   0.00000  -0.00001  -0.00002   0.00007  -0.00001
    C6       X     0.00012   0.00003   0.00025   0.00029   0.00004  -0.00003
    C6       Y     0.00000  -0.00002  -0.00101  -0.00198  -0.00001  -0.00002
    C6       Z     0.00003  -0.00001  -0.00048  -0.00120  -0.00004   0.00001
    C7       X     0.00000   0.00001   0.00034   0.00010  -0.00001   0.00001
    C7       Y    -0.00006   0.00000   0.00030  -0.00060   0.00003   0.00002
    C7       Z    -0.00005  -0.00002   0.00138  -0.00006   0.00003  -0.00001
    C8       X     0.00001   0.00006  -0.00778   0.00311  -0.00003   0.00001
    C8       Y    -0.00005  -0.00013   0.01717  -0.00695   0.00006   0.00001
    C8       Z     0.00004   0.00012  -0.01298   0.00495  -0.00006  -0.00000
    C9       X    -0.00004   0.00005  -0.01581   0.00719  -0.00003   0.00000
    C9       Y    -0.00002   0.00008  -0.01822   0.00607  -0.00003  -0.00002
    C9       Z    -0.00015   0.00024  -0.06348   0.02703  -0.00014  -0.00000
    C10      X    -0.00000   0.00009   0.00494  -0.00629   0.00002   0.00000
    C10      Y    -0.00007  -0.00044  -0.02071   0.03774  -0.00015   0.00000
    C10      Z    -0.00002  -0.00011  -0.00256   0.01274  -0.00004  -0.00002
    C11      X     0.00020  -0.00030  -0.01185  -0.02088   0.00002  -0.00004
    C11      Y    -0.00044   0.00065   0.02792   0.04591  -0.00005  -0.00001
    C11      Z     0.00033  -0.00063  -0.02560  -0.04661   0.00007  -0.00000
    C12      X    -0.00169  -0.00001  -0.00002   0.00002  -0.00050   0.00001
    C12      Y     0.00021   0.00000   0.00012   0.00022  -0.00004   0.00000
    C12      Z     0.00084   0.00000   0.00002  -0.00005  -0.00046   0.00001
    C13      X     0.02844   0.00005   0.00021   0.00023  -0.00167   0.00000
    C13      Y     0.00168   0.00000   0.00000   0.00001  -0.00012  -0.00000
    C13      Z     0.02917   0.00005   0.00029   0.00045  -0.00191  -0.00001
    C14      X     0.06240   0.00007   0.00007   0.00037  -0.00489  -0.00000
    C14      Y    -0.00640  -0.00001  -0.00001  -0.00006   0.00037   0.00000
    C14      Z    -0.01980  -0.00003  -0.00006  -0.00019   0.00037   0.00000
    C15      X     0.00395  -0.00000   0.00002   0.00002  -0.00599  -0.00000
    C15      Y    -0.00437  -0.00000  -0.00000  -0.00001   0.00253  -0.00000
    C15      Z    -0.03567  -0.00002  -0.00001  -0.00004   0.01838   0.00000
    C40      X     0.00695   0.00004  -0.00010   0.00017   0.06029   0.00001
    C40      Y     0.00066   0.00000  -0.00000   0.00001   0.00309  -0.00000
    C40      Z     0.00856   0.00004  -0.00007   0.00018   0.05395   0.00001
    C41      X    -0.00002  -0.00004  -0.00000  -0.00002   0.00003  -0.00000
    C41      Y     0.00000  -0.00009   0.00000   0.00001   0.00001  -0.00001
    C41      Z    -0.00002  -0.00087   0.00003   0.00002   0.00007  -0.00003
    C42      X    -0.00005   0.00091  -0.00012  -0.00038  -0.00005   0.00000
    C42      Y     0.00003   0.00051  -0.00006  -0.00000  -0.00004   0.00000
    C42      Z     0.00003  -0.00507   0.00062   0.00081   0.00017   0.00000
    C43      X    -0.00083   0.00002   0.00004  -0.00002  -0.00333  -0.00000
    C43      Y    -0.00033  -0.00013  -0.00001  -0.00002  -0.00163   0.00000
    C43      Z    -0.00003  -0.00002  -0.00000  -0.00002  -0.00007   0.00000
    C44      X    -0.00007  -0.00001   0.00003  -0.00003  -0.00013   0.00000
    C44      Y    -0.00006  -0.00001   0.00002  -0.00002  -0.00001   0.00001
    C44      Z     0.00006   0.00001  -0.00001  -0.00001   0.00026  -0.00000
    C45      X    -0.00091   0.00001   0.00003  -0.00002  -0.00326   0.00001
    C45      Y    -0.00007  -0.00002  -0.00001  -0.00002  -0.00025  -0.00001
    C45      Z     0.00050   0.00000  -0.00000   0.00001   0.00213   0.00000
    C46      X     0.00000   0.00007   0.00003   0.00001   0.00007   0.00010
    C46      Y    -0.00003  -0.00003  -0.00001   0.00000  -0.00005  -0.00002
    C46      Z     0.00003   0.00013   0.00002   0.00004   0.00010   0.00017
    C47      X     0.00023  -0.00001  -0.00012  -0.00001  -0.00001   0.00000
    C47      Y     0.00001  -0.00001   0.00010  -0.00011   0.00001   0.00001
    C47      Z    -0.00010  -0.00000  -0.00039  -0.00008  -0.00001   0.00000
    H48      X    -0.00038  -0.00073   0.08400  -0.03271   0.00038  -0.00000
    H48      Y     0.00060   0.00145  -0.16686   0.06513  -0.00069  -0.00004
    H48      Z    -0.00069  -0.00136   0.15620  -0.06045   0.00073   0.00005
    H49      X     0.00042  -0.00066   0.17460  -0.07188   0.00037   0.00002
    H49      Y     0.00045  -0.00079   0.20170  -0.08026   0.00042   0.00002
    H49      Z     0.00150  -0.00267   0.71236  -0.29110   0.00149   0.00007
    H50      X    -0.00011  -0.00079  -0.04081   0.07197  -0.00029  -0.00000
    H50      Y     0.00050   0.00527   0.21834  -0.40890   0.00165   0.00007
    H50      Z     0.00011   0.00165   0.06276  -0.12809   0.00055   0.00002
    H51      X    -0.00208   0.00354   0.14009   0.23679  -0.00018   0.00008
    H51      Y     0.00505  -0.00760  -0.31936  -0.53481   0.00048  -0.00015
    H51      Z    -0.00473   0.00724   0.30589   0.51890  -0.00056   0.00014
    H52      X    -0.33038  -0.00063  -0.00292  -0.00347   0.01904  -0.00003
    H52      Y    -0.01497  -0.00003  -0.00008  -0.00004   0.00090   0.00000
    H52      Z    -0.30205  -0.00057  -0.00261  -0.00339   0.01762   0.00001
    H53      X    -0.69063  -0.00084  -0.00091  -0.00439   0.04603   0.00005
    H53      Y     0.07025   0.00009   0.00012   0.00050  -0.00455  -0.00000
    H53      Z     0.21636   0.00027   0.00030   0.00147  -0.01278  -0.00002
    H54      X    -0.07122  -0.00004  -0.00002  -0.00006   0.04091   0.00002
    H54      Y     0.04929   0.00003   0.00000   0.00008  -0.02500  -0.00000
    H54      Z     0.38479   0.00021   0.00008   0.00055  -0.19272  -0.00006
    H31      X    -0.09949  -0.00044   0.00109  -0.00196  -0.68995  -0.00005
    H31      Y    -0.00539  -0.00002   0.00003  -0.00012  -0.03460  -0.00001
    H31      Z    -0.09275  -0.00039   0.00098  -0.00165  -0.62052  -0.00005
    H32      X    -0.00002  -0.00138   0.00005   0.00005   0.00026  -0.00015
    H32      Y     0.00001  -0.00229   0.00002   0.00003   0.00014  -0.00005
    H32      Z     0.00008   0.00850  -0.00022  -0.00020  -0.00110  -0.00056
    H33      X     0.00021  -0.00026  -0.00007   0.00002  -0.00035  -0.00005
    H33      Y    -0.00035   0.00023   0.00008  -0.00013   0.00041   0.00004
    H33      Z     0.00008  -0.00055  -0.00002   0.00003  -0.00007   0.00010
    H34      X     0.00011   0.00201   0.00010   0.00029  -0.00014   0.00016
    H34      Y     0.00019   0.00313   0.00003   0.00023  -0.00020   0.00022
    H34      Z     0.00011   0.00269   0.00001   0.00010  -0.00015   0.00032
    H35      X     0.00004  -0.00677  -0.00020  -0.00083   0.00026   0.00017
    H35      Y     0.00001   0.00033  -0.00011  -0.00006  -0.00007  -0.00003
    H35      Z    -0.00035   0.06584  -0.00842  -0.01115  -0.00175  -0.00016
    H36      X     0.00045  -0.01224  -0.00119  -0.00021   0.00099  -0.00014
    H36      Y     0.00010   0.00019   0.00001   0.00018  -0.00004  -0.00002
    H36      Z    -0.00006   0.00192  -0.00115  -0.00269  -0.00000   0.00011
    H37      X     0.00020   0.00400  -0.00078  -0.00042  -0.00043  -0.00004
    H37      Y    -0.00039  -0.00654   0.00161   0.00127   0.00069   0.00013
    H37      Z     0.00017   0.00104  -0.00075  -0.00057  -0.00021  -0.00008
    H38      X     0.00172   0.00048  -0.00000   0.00014   0.00790   0.00002
    H38      Y     0.00363   0.00095  -0.00004   0.00029   0.01477   0.00000
    H38      Z     0.00219   0.00047   0.00001   0.00023   0.00924   0.00003
    H39      X     0.00102  -0.00027  -0.00015  -0.00003   0.00299  -0.00005
    H39      Y    -0.00157   0.00056   0.00022   0.00004  -0.00393   0.00011
    H39      Z     0.00038  -0.00018  -0.00009  -0.00006   0.00065  -0.00009
    H40      X     0.00792  -0.00086  -0.00029   0.00018   0.03390  -0.00005
    H40      Y     0.00090  -0.00007  -0.00007   0.00001   0.00270  -0.00002
    H40      Z    -0.00249   0.00041   0.00011  -0.00005  -0.01050   0.00005
    H41      X     0.00056   0.00011  -0.00026   0.00015   0.00223   0.00007
    H41      Y    -0.00018  -0.00000  -0.00001  -0.00002  -0.00009  -0.00003
    H41      Z    -0.00037  -0.00010   0.00022  -0.00020  -0.00086  -0.00002
    H42      X    -0.00009  -0.00005  -0.00001   0.00000  -0.00040  -0.00001
    H42      Y    -0.00005  -0.00001   0.00003   0.00002  -0.00001   0.00001
    H42      Z    -0.00033  -0.00006  -0.00006   0.00028  -0.00205  -0.00000
    H43      X     0.00042   0.00006  -0.00014   0.00010  -0.00011  -0.00004
    H43      Y     0.00079   0.00017  -0.00028   0.00017  -0.00017  -0.00003
    H43      Z     0.00007   0.00002  -0.00003   0.00004   0.00002  -0.00000
    H44      X     0.00844  -0.00003  -0.00016   0.00019   0.03536   0.00005
    H44      Y     0.00237   0.00000  -0.00004   0.00005   0.01097   0.00003
    H44      Z    -0.00736  -0.00000   0.00017  -0.00017  -0.03027  -0.00009
    H45      X     0.00053   0.00003  -0.00005  -0.00000   0.00092  -0.00002
    H45      Y     0.00172   0.00014  -0.00013   0.00007   0.00398  -0.00000
    H45      Z     0.00036   0.00004  -0.00005  -0.00003   0.00092  -0.00003
    H46      X     0.00285  -0.00012  -0.00022   0.00000   0.00905  -0.00008
    H46      Y    -0.00259   0.00007   0.00019  -0.00002  -0.00825   0.00005
    H46      Z     0.00077  -0.00005  -0.00006   0.00001   0.00245  -0.00003
    H47      X    -0.00016  -0.00057  -0.00004  -0.00010  -0.00048  -0.00077
    H47      Y     0.00006   0.00033   0.00004   0.00007   0.00029   0.00113
    H47      Z    -0.00048  -0.00154  -0.00019  -0.00038  -0.00148  -0.00315
    H72      X    -0.00008  -0.00020  -0.00017  -0.00000  -0.00004   0.00026
    H72      Y     0.00007   0.00018   0.00020   0.00000   0.00020  -0.00011
    H72      Z    -0.00000   0.00013   0.00001   0.00001   0.00001   0.00078
    H73      X     0.00025  -0.00008  -0.00009  -0.00006  -0.00014  -0.00012
    H73      Y     0.00040  -0.00015  -0.00016  -0.00011  -0.00016  -0.00035
    H73      Z     0.00011  -0.00010  -0.00006  -0.00007   0.00001  -0.00034
    H74      X    -0.00300  -0.00003   0.00123  -0.00107   0.00028   0.00003
    H74      Y     0.00077   0.00002  -0.00053   0.00062  -0.00008  -0.00002
    H74      Z    -0.00009   0.00001  -0.00054   0.00015  -0.00002  -0.00001
    H75      X     0.00060   0.00004   0.00097   0.00066  -0.00001  -0.00004
    H75      Y     0.00012   0.00002  -0.00039   0.00065   0.00007  -0.00003
    H75      Z     0.00062   0.00008   0.00156   0.00155  -0.00004  -0.00009
    H76      X    -0.00060   0.00003  -0.00107   0.00020  -0.00005  -0.00002
    H76      Y    -0.00062   0.00007  -0.00208   0.00086  -0.00013  -0.00005
    H76      Z     0.00082  -0.00006   0.00157  -0.00037   0.00016   0.00005
  
  Number of imaginary frequencies:   0
   
  Writing vibrational animation data to red_elim_N_trans_L1_PL154_2.vib
  Writing IR vibrational spectrum data to red_elim_N_trans_L1_PL154_2_vib.spm
  rotational symmetry number:  1

  rotational temperatures (K):      0.006575      0.004281      0.003278
   
  The Quasi-Harmonic approximation will be applied to compute
  vibrational constributions to thermodynamic properties.
  Frequencies will be adjusted to a minimum value of  100.00 cm^-1.

  vibrational temperatures:
       mode:      1        2        3        4        5        6
  temp. (K):   143.88   143.88   143.88   143.88   143.88   143.88
   
       mode:      7        8        9       10       11       12
  temp. (K):   143.88   143.88   143.88   143.88   143.88   152.11
   
       mode:     13       14       15       16       17       18
  temp. (K):   155.01   164.33   169.54   171.53   182.73   199.56
   
       mode:     19       20       21       22       23       24
  temp. (K):   210.73   231.64   256.46   288.18   294.01   300.57
   
       mode:     25       26       27       28       29       30
  temp. (K):   304.82   326.92   347.48   348.34   365.42   366.41
   
       mode:     31       32       33       34       35       36
  temp. (K):   390.91   399.41   404.91   424.86   447.70   460.24
   
       mode:     37       38       39       40       41       42
  temp. (K):   473.47   480.64   489.89   491.00   508.31   512.19
   
       mode:     43       44       45       46       47       48
  temp. (K):   529.19   555.27   577.45   589.10   592.81   597.09
   
       mode:     49       50       51       52       53       54
  temp. (K):   600.31   606.54   609.52   618.42   670.61   692.05
   
       mode:     55       56       57       58       59       60
  temp. (K):   706.00   730.17   745.37   757.55   767.34   797.67
   
       mode:     61       62       63       64       65       66
  temp. (K):   811.57   830.48   835.24   854.57   859.06   896.19
   
       mode:     67       68       69       70       71       72
  temp. (K):   909.09   911.78   914.28   993.46  1018.15  1022.16
   
       mode:     73       74       75       76       77       78
  temp. (K):  1059.54  1087.20  1103.96  1107.42  1113.15  1119.44
   
       mode:     79       80       81       82       83       84
  temp. (K):  1145.69  1183.95  1188.43  1194.66  1196.26  1201.24
   
       mode:     85       86       87       88       89       90
  temp. (K):  1203.30  1204.14  1229.30  1271.99  1291.84  1308.72
   
       mode:     91       92       93       94       95       96
  temp. (K):  1354.41  1378.92  1380.32  1384.03  1387.11  1390.06
   
       mode:     97       98       99      100      101      102
  temp. (K):  1398.71  1402.25  1417.58  1421.04  1422.27  1425.85
   
       mode:    103      104      105      106      107      108
  temp. (K):  1446.27  1448.17  1460.68  1468.38  1471.27  1481.06
   
       mode:    109      110      111      112      113      114
  temp. (K):  1503.55  1518.37  1523.08  1525.26  1526.42  1530.25
   
       mode:    115      116      117      118      119      120
  temp. (K):  1544.69  1557.22  1562.60  1596.79  1601.05  1616.65
   
       mode:    121      122      123      124      125      126
  temp. (K):  1656.40  1684.80  1719.53  1722.09  1738.65  1742.23
   
       mode:    127      128      129      130      131      132
  temp. (K):  1747.69  1752.49  1759.41  1772.92  1774.64  1783.51
   
       mode:    133      134      135      136      137      138
  temp. (K):  1796.96  1800.09  1810.28  1833.01  1841.95  1871.73
   
       mode:    139      140      141      142      143      144
  temp. (K):  1899.36  1902.31  1910.06  1935.77  1944.98  1971.28
   
       mode:    145      146      147      148      149      150
  temp. (K):  1979.86  2013.01  2041.86  2050.52  2051.05  2055.35
   
       mode:    151      152      153      154      155      156
  temp. (K):  2060.01  2064.96  2093.87  2106.00  2117.29  2134.81
   
       mode:    157      158      159      160      161      162
  temp. (K):  2158.23  2162.62  2163.21  2166.45  2174.27  2177.23
   
       mode:    163      164      165      166      167      168
  temp. (K):  2180.17  2180.91  2186.72  2191.74  2195.48  2201.24
   
       mode:    169      170      171      172      173      174
  temp. (K):  2203.50  2208.00  2211.68  2215.99  2218.74  2226.32
   
       mode:    175      176      177      178      179      180
  temp. (K):  2240.32  2335.14  2343.92  2348.21  2361.32  2371.74
   
       mode:    181      182      183      184      185      186
  temp. (K):  2378.79  2382.34  2393.65  4372.31  4372.93  4376.99
   
       mode:    187      188      189      190      191      192
  temp. (K):  4378.41  4384.94  4385.36  4387.69  4473.21  4473.94
   
       mode:    193      194      195      196      197      198
  temp. (K):  4474.96  4480.47  4485.76  4491.45  4510.40  4520.41
   
       mode:    199      200      201      202      203      204
  temp. (K):  4521.80  4535.92  4539.18  4550.20  4551.89  4557.52
   
       mode:    205      206      207      208      209      210
  temp. (K):  4563.19  4564.37  4571.35  4578.39  4588.09  4592.41
   
       mode:    211      212      213      214      215      216
  temp. (K):  4595.87  4602.85  4608.32  4608.58  4610.07  4618.72
   
       mode:    217      218      219      220      221      222
  temp. (K):  4622.46  4627.34  4633.73  4646.33  4662.82  5044.91
   
   
  Thermodynamic properties calculated assuming an ideal gas

  In the table below, the units for temperature
  are kelvins, the units for U, H, and G are
  kcal/mol and the units for Cv and S are cal/(mol K)

  The zero point energy (ZPE):    403.144 kcal/mol
  is not included in U, H, or G in the table below
  
 
  =============================================================================
  Thermodynamic properties for P = 1.00E+00 atm, calculated at   1 temperatures


  T =   298.15 K, P = 1.00E+00 atm
   
                  U         Cv          S          H          G        ln(Q)
              =========  =========  =========  =========  =========  =========
  trans.          0.889      2.981     45.085      1.481    -11.961   20.18742
  rot.            0.889      2.981     37.196      0.889    -10.201   17.21797
  vib.           21.162    141.402    127.425     21.162    -16.830   28.40506
  elec.           0.000      0.000      0.000      0.000      0.000    0.00000
  ----------------------------------------------------------------------------
  total          22.940    147.364    209.706     23.532    -38.992   65.81046
   
   Total internal energy, Utot(SCFE + ZPE + U):   -1902.597865 hartrees
   Total enthalpy, Htot (Utot + nRT), with n=1:   -1902.596921 hartrees
    Total Gibbs free energy, Gtot (Htot - T*S):   -1902.696559 hartrees
   
  end of program freq
   
 Time(freq)  user:       0.388  user+sys:       0.388  wallclock:       0.663
  
  start of program post
  
  Writing input files for PBF
  end of program post
   
 Time(post)  user:       0.156  user+sys:       0.156  wallclock:       0.090

 Total cpu seconds     user:   97314.169   user+sys:   97314.169
  
 Total elapsed time:    55868 seconds

Job red_elim_N_trans_L1_PL154_2 completed on bp1-compute064.data.bp.acrc.priv at Thu Apr 24 00:46:02 2025
