Job red_elim_L_trans_L1_PL154 started on bp1-compute145.data.bp.acrc.priv at Fri Mar 21 13:06:30 2025
jobid: bp1-compute145-5-67dd644d

  +--------------------------------------------------------------------+
  |  Jaguar version 12.5, release 138                                  |
  |                                                                    |
  |  Copyright Schrodinger, Inc.                                       |
  |  All Rights Reserved.                                              |
  |                                                                    |
  |  The following have contributed to Jaguar (listed alphabetically): |
  |  Ty Balduf, Mike Beachy, Chandler Bennett, Art Bochevarov,         |
  |  Dale Braden, Yixiang Cao, Alan Chien, Chris Cortis,               |
  |  Rich Friesner, Jim Furness, Bill Goddard, Hod Greeley,            |
  |  Tom Hughes, Leif Jacobson, Jean-Marc Langlois, Daniel Levine,     |
  |  Rob Murphy, Dean Philipp, Tom Pollard, Murco Ringnalda,           |
  |  Daniel Mainz, Pablo Videla, Mark Watson, Haoyu Yu.                |
  |                                                                    |
  |  Use of this program should be acknowledged in publications as:    |
  |                                                                    |
  |  Jaguar, version 12.5, Schrodinger, Inc., New York, NY, 2024.      |
  |                                                                    |
  |  A. D. Bochevarov, E. Harder, T. F. Hughes, J. R. Greenwood,       |
  |  D. A. Braden, D. M. Philipp, D. Rinaldo, M. D. Halls,             |
  |  J. Zhang, R. A. Friesner, "Jaguar: A High-Performance Quantum     |
  |  Chemistry Software Program with Strengths in Life and Materials   |
  |  Sciences", Int. J. Quantum Chem., 2013, 113(18), 2110-2142.       |
  +--------------------------------------------------------------------+
  
  start of program pre
  
  Job name: red_elim_L_trans_L1_PL154
  Executables used: /software/local/apps/schrodinger2024-3/jaguar-v12.5/bin/Linux-x86_64
  Temporary files : /tmp/ar21627/red_elim_L_trans_L1_PL154#bp1-compute145-5-67dd644d
  Basis file : using default basis file from /software/local/apps/schrodinger2024-3
  Maestro file (input):  red_elim_L_trans_L1_PL154.mae
  Maestro file (output): red_elim_L_trans_L1_PL154.01.mae
  
 Contents of input file: &gen and (if present) &atomic sections only
 ----------------Contents start----------------
&gen
dftname=b3pw91-d3
basis=6-31G*
numd=5
ip11=2
iaccg=3
isolv=2
igeopt=1
solvent=benzene
ifreq=1
&
&atomic
atom basis
Pd2 lacv3p*
&
 -----------------Contents end-----------------
 
  PS calculation requested. Using PS version of 6-31g*
  basis set:               non_standard                    
  net molecular charge:    0
  multiplicity:            1
  
  Using up to   4 threads per process
  
  This run will use ECP on 1 atom
  number of basis functions....          617
  
  input atom labels were not unique
  original atom labels:
 P1       Pd2      N2       C16      C17      C18      C19      C20     
 C21      F10      H23      H24      H25      H26      H30      C31     
 C32      C33      C34      C35      C36      H37      H38      H39     
 H40      H41      C3       C4       C5       C6       C7       C8      
 C9       C10      C11      C12      C13      C14      C15      C16     
 C17      C18      C19      C20      C21      C22      C23      H24     
 H25      H26      H27      H28      H29      H30      H31      H32     
 H33      H34      H35      H36      H37      H38      H39      H40     
 H41      H42      H43      H44      H45      H46      H47      H48     
 H49      H50      H51      H52     
  new atom labels:
 P1       Pd2      N3       C4       C5       C6       C7       C8      
 C9       F10      H11      H12      H13      H14      H15      C16     
 C17      C18      C19      C20      C21      H22      H23      H24     
 H25      H26      C27      C28      C29      C30      C31      C32     
 C33      C34      C35      C36      C37      C38      C39      C40     
 C41      C42      C43      C44      C45      C46      C47      H48     
 H49      H50      H51      H52      H53      H54      H55      H56     
 H57      H58      H59      H60      H61      H62      H63      H64     
 H65      H66      H67      H68      H69      H70      H71      H72     
 H73      H74      H75      H76     
 
  
 Input geometry:
                                   angstroms
  atom               x                 y                 z
  P1            0.0000000000      0.0000000000      0.0000000000 
  Pd2           0.0000000000      0.0000000000      2.2085805062 
  N3            2.0720995253      0.0000000000      2.3750259043 
  C4           -4.8615563082      0.2889752469      2.5826645130 
  C5           -4.0686023383      1.4376713084      2.4962832560 
  C6           -2.6885494814      1.3466037587      2.2960640351 
  C7           -2.0349816841      0.1052051957      2.1975760572 
  C8           -2.8490577591     -1.0413621145      2.2602660615 
  C9           -4.2270282597     -0.9537561658      2.4590421015 
  F10          -6.1815778894      0.3679395725      2.7505831253 
  H11          -4.5364497673      2.4184548763      2.5862268619 
  H12          -2.1103424843      2.2688692261      2.2279934944 
  H13          -2.3968904101     -2.0280823086      2.1594680927 
  H14          -4.8228179332     -1.8651698133      2.5197010906 
  H15           2.3324632228      0.9401157417      2.8833497551 
  C16           3.5512315236     -3.3080862868      4.6139341404 
  C17           2.5365621059     -2.4964491726      5.1473621277 
  C18           2.0488512313     -1.4056813048      4.4091319392 
  C19           2.5758097921     -1.1265505359      3.1374737741 
  C20           3.5904444850     -1.9381099877      2.6039932249 
  C21           4.0781900667     -3.0289555331      3.3422759645 
  H22           3.9343857985     -4.1650127841      5.1939008118 
  H23           2.1226385645     -2.7158529433      6.1464536587 
  H24           1.2517387180     -0.7680808920      4.8282042538 
  H25           4.0043393744     -1.7187620023      1.6050284499 
  H26           4.8753026079     -3.6665559220      2.9232036667 
  C27           1.8168740000      0.0000000000     -0.5778410000 
  C28          -0.8434890000      1.4252840000     -0.9715180000 
  C29          -0.8972560000     -1.6587410000     -0.3454820000 
  C30           3.1495210000      1.3984640000      1.1560820000 
  C31           3.8588263281      1.1355513573      2.3736813746 
  C32           3.8867198551      2.0949863329      3.4109786919 
  C33           3.2436713859      3.3334635638      3.3380250593 
  C34           2.5408797757      3.6173351334      2.1694795371 
  C35           2.5256422589      2.6599211623      1.1483858364 
  C36           3.0135280000      0.5741960000     -0.0169290000 
  C37           4.1905000000      0.2861180000     -0.7490990000 
  C38           4.2768280000     -0.4722710000     -1.9225270000 
  C39           3.1083040000     -1.0053740000     -2.4560800000 
  C40           1.9211360000     -0.7480340000     -1.7680690000 
  C41          -2.3917700000      1.4641300000     -0.9448800000 
  C42          -0.3788420000      2.8361950000     -0.5323130000 
  C43          -0.4455240000      1.3408580000     -2.4674050000 
  C44          -0.0177960000     -2.8755410000      0.0296550000 
  C45          -1.4453590000     -1.9535040000     -1.7679970000 
  C46          -2.1262300000     -1.7392700000      0.5941800000 
  C47           4.5637188704     -0.1496340805      2.7549693092 
  H48           4.4281014864      1.8864358777      4.3488201825 
  H49           3.2854925696      4.0574705499      4.1691033164 
  H50           2.0157266420      4.5805592357      2.0515936415 
  H51           1.9883373856      2.9823097538      0.2660395240 
  H52           5.1648570000      0.6855070000     -0.4721570000 
  H53           5.2430580000     -0.6375380000     -2.4300450000 
  H54           3.1237660000     -1.6027090000     -3.3835720000 
  H55           1.0324530000     -1.1846760000     -2.2280190000 
  H56          -2.8081380000      1.6140360000      0.0705490000 
  H57          -2.7931410000      2.3029860000     -1.5580800000 
  H58          -2.8583580000      0.5482850000     -1.3582140000 
  H59          -0.6553110000      3.0576040000      0.5218020000 
  H60           0.7195950000      2.9676930000     -0.6585650000 
  H61          -0.8498760000      3.6399150000     -1.1432090000 
  H62          -0.7462210000      0.3798070000     -2.9348810000 
  H63          -0.9210170000      2.1442960000     -3.0752880000 
  H64           0.6524840000      1.4549820000     -2.6096750000 
  H65           0.9648250000     -2.8622550000     -0.4905250000 
  H66           0.1711760000     -2.9295420000      1.1223420000 
  H67          -0.5069560000     -3.8419160000     -0.2300880000 
  H68          -0.6634350000     -2.0908620000     -2.5422720000 
  H69          -2.0275400000     -2.9029450000     -1.7892070000 
  H70          -2.1492470000     -1.1796830000     -2.1325550000 
  H71          -1.8356470000     -1.6862910000      1.6668530000 
  H72          -2.8513880000     -0.9189660000      0.4051340000 
  H73          -2.6842430000     -2.6960970000      0.4765580000 
  H74           5.6022699500     -0.1875264494      2.3540258547 
  H75           3.9615378474     -1.0487278623      2.4922235730 
  H76           4.6795764486     -0.2577548218      3.8570505592 
   
  principal moments of inertia:
        amu*angstrom^2:              3813.97051              6071.57758              6857.94585
                g*cm^2:          6.33324623E-37          1.00820905E-36          1.13878856E-36
   
  rotational constants:
               cm^(-1):      0.00441997      0.00277648      0.00245812
                   GHz:      0.13250732      0.08323685      0.07369248
   
  Molecular weight:     605.18 amu
   
  Stoichiometry: PdC33PNH39F
  Molecular Point Group: C1      
  Point Group used: C1
  
 
Number of optimization coordinates:   261
Number of independent coordinates:    261
Number of non-redundant coordinates:  222
Number of frozen coordinates:           0
Number of harmonic constraints:         0
 
Number of geometric degrees of freedom:   222
Maximum geometric degrees of freedom:     222
 " " " " " excluding dummy atoms:         222
 
 
  bond lengths (angstroms):
 
 P1      -Pd2     :   2.208581      P1      -C27     :   1.906550
 P1      -C28     :   1.920093      P1      -C29     :   1.917250
 Pd2     -N3      :   2.078774      Pd2     -C7      :   2.037729
 N3      -H15     :   1.100000      N3      -C19     :   1.450575
 C4      -C5      :   1.398478      C4      -C9      :   1.400818
 C4      -F10     :   1.333000      C5      -C6      :   1.397472
 C5      -H11     :   1.090370      C6      -C7      :   1.406386
 C6      -H12     :   1.090656      C7      -C8      :   1.407575
 C8      -C9      :   1.394987      C8      -H13     :   1.090061
 C9      -H14     :   1.090559      C16     -C17     :   1.404583
 C16     -C21     :   1.404533      C16     -H22     :   1.103400
 C17     -C18     :   1.404500      C17     -H23     :   1.103474
 C18     -C19     :   1.404533      C18     -H24     :   1.103424
 C19     -C20     :   1.404533      C20     -C21     :   1.404600
 C20     -H25     :   1.103337      C20     -H75     :   0.970156
 C21     -H26     :   1.103424      C27     -C36     :   1.440939
 C27     -C40     :   1.409634      C28     -C41     :   1.548997
 C28     -C42     :   1.549022      C28     -C43     :   1.550220
 C29     -C44     :   1.547508      C29     -C45     :   1.552692
 C29     -C46     :   1.549137      C30     -C31     :   1.433452
 C30     -C35     :   1.407323      C30     -C36     :   1.440093
 C31     -C32     :   1.413251      C31     -C47     :   1.514581
 C32     -C33     :   1.397376      C32     -H48     :   1.102785
 C33     -C34     :   1.392838      C33     -H49     :   1.103008
 C34     -C35     :   1.399824      C34     -H50     :   1.103396
 C35     -H51     :   1.082204      C36     -C37     :   1.415742
 C37     -C38     :   1.399836      C37     -H52     :   1.088843
 C38     -C39     :   1.390800      C38     -H53     :   1.103851
 C39     -C40     :   1.396048      C39     -H54     :   1.103308
 C40     -H55     :   1.091773      C41     -H56     :   1.107669
 C41     -H57     :   1.113909      C41     -H58     :   1.107845
 C42     -H59     :   1.112032      C42     -H60     :   1.113461
 C42     -H61     :   1.114017      C43     -H62     :   1.110212
 C43     -H63     :   1.114059      C43     -H64     :   1.113053
 C44     -H65     :   1.111894      C44     -H66     :   1.110221
 C44     -H67     :   1.113833      C45     -H68     :   1.108952
 C45     -H69     :   1.113922      C45     -H70     :   1.107772
 C46     -H71     :   1.112597      C46     -H72     :   1.111077
 C46     -H73     :   1.113881      C47     -H74     :   1.113903
 C47     -H75     :   1.113565      C47     -H76     :   1.113416
 
  bond angles:
 
 C27     -P1      -Pd2     : 107.642814  C28     -P1      -Pd2     : 120.396068
 C28     -P1      -C27     : 105.383690  C29     -P1      -Pd2     : 100.381213
 C29     -P1      -C27     : 113.039431  C29     -P1      -C28     : 110.209354
 N3      -Pd2     -P1      :  94.592533  C7      -Pd2     -P1      :  89.690581
 C7      -Pd2     -N3      : 174.795831  H15     -N3      -Pd2     : 105.839005
 C19     -N3      -Pd2     : 112.843761  C19     -N3      -H15     : 109.794980
 C9      -C4      -C5      : 117.801102  F10     -C4      -C5      : 121.373513
 F10     -C4      -C9      : 120.812442  C6      -C5      -C4      : 121.015347
 H11     -C5      -C4      : 119.370349  H11     -C5      -C6      : 119.614295
 C7      -C6      -C5      : 121.767686  H12     -C6      -C5      : 118.514121
 H12     -C6      -C7      : 119.713835  C6      -C7      -Pd2     : 120.615992
 C8      -C7      -Pd2     : 122.362789  C8      -C7      -C6      : 116.559160
 C9      -C8      -C7      : 121.768576  H13     -C8      -C7      : 119.559115
 H13     -C8      -C9      : 118.670546  C8      -C9      -C4      : 121.046438
 H14     -C9      -C4      : 119.277688  H14     -C9      -C8      : 119.675874
 C21     -C16     -C17     : 120.002746  H22     -C16     -C17     : 120.000393
 H22     -C16     -C21     : 119.996860  C18     -C17     -C16     : 120.000393
 H23     -C17     -C16     : 119.995826  H23     -C17     -C18     : 120.003781
 C19     -C18     -C17     : 119.996860  H24     -C18     -C17     : 119.999284
 H24     -C18     -C19     : 120.003855  C18     -C19     -N3      : 119.996860
 C20     -C19     -N3      : 119.996860  C20     -C19     -C18     : 120.006279
 C21     -C20     -C19     : 119.996860  H25     -C20     -C19     : 120.001259
 H25     -C20     -C21     : 120.001881  H75     -C20     -C19     :  77.899762
 H75     -C20     -C21     : 129.768883  H75     -C20     -H25     :  64.529142
 C20     -C21     -C16     : 119.996860  H26     -C21     -C16     : 120.003855
 H26     -C21     -C20     : 119.999284  C36     -C27     -P1      : 132.332083
 C40     -C27     -P1      : 109.049994  C40     -C27     -C36     : 118.601565
 C41     -C28     -P1      : 116.680003  C42     -C28     -P1      : 113.633317
 C42     -C28     -C41     : 105.789550  C43     -C28     -P1      : 109.575020
 C43     -C28     -C41     : 105.935583  C43     -C28     -C42     : 104.252746
 C44     -C29     -P1      : 111.754645  C45     -C29     -P1      : 119.639032
 C45     -C29     -C44     : 105.868645  C46     -C29     -P1      : 107.875063
 C46     -C29     -C44     : 105.244514  C46     -C29     -C45     : 105.414608
 C35     -C30     -C31     : 112.855389  C36     -C30     -C31     : 129.318543
 C36     -C30     -C35     : 117.822169  C32     -C31     -C30     : 120.577643
 C47     -C31     -C30     : 126.852870  C47     -C31     -C32     : 112.463886
 C33     -C32     -C31     : 123.661511  H48     -C32     -C31     : 120.364684
 H48     -C32     -C33     : 115.971317  C34     -C33     -C32     : 117.169856
 H49     -C33     -C32     : 121.666137  H49     -C33     -C34     : 121.163760
 C35     -C34     -C33     : 118.559909  H50     -C34     -C33     : 120.510758
 H50     -C34     -C35     : 120.927422  C34     -C35     -C30     : 127.174781
 H51     -C35     -C30     : 119.444547  H51     -C35     -C34     : 113.352565
 C30     -C36     -C27     : 128.578123  C37     -C36     -C27     : 114.079668
 C37     -C36     -C30     : 117.336141  C38     -C37     -C36     : 126.514616
 H52     -C37     -C36     : 122.531223  H52     -C37     -C38     : 110.900352
 C39     -C38     -C37     : 118.517836  H53     -C38     -C37     : 121.365931
 H53     -C38     -C39     : 120.110049  C40     -C39     -C38     : 117.048897
 H54     -C39     -C38     : 121.214686  H54     -C39     -C40     : 121.736280
 C39     -C40     -C27     : 125.228312  H55     -C40     -C27     : 120.513439
 H55     -C40     -C39     : 114.258064  H56     -C41     -C28     : 113.258537
 H57     -C41     -C28     : 111.689655  H57     -C41     -H56     : 105.503065
 H58     -C41     -C28     : 113.192670  H58     -C41     -H56     : 107.193094
 H58     -C41     -H57     : 105.391539  H59     -C42     -C28     : 112.058038
 H60     -C42     -C28     : 111.797889  H60     -C42     -H59     : 109.222001
 H61     -C42     -C28     : 112.013244  H61     -C42     -H59     : 105.726505
 H61     -C42     -H60     : 105.648678  H62     -C43     -C28     : 112.576983
 H63     -C43     -C28     : 112.189921  H63     -C43     -H62     : 106.196471
 H64     -C43     -C28     : 111.777365  H64     -C43     -H62     : 107.585060
 H64     -C43     -H63     : 106.102308  H65     -C44     -C29     : 112.298348
 H66     -C44     -C29     : 111.935505  H66     -C44     -H65     : 108.095584
 H67     -C44     -C29     : 112.091550  H67     -C44     -H65     : 106.820756
 H67     -C44     -H66     : 105.192635  H68     -C45     -C29     : 114.473937
 H69     -C45     -C29     : 111.330423  H69     -C45     -H68     : 104.456631
 H70     -C45     -C29     : 113.153150  H70     -C45     -H68     : 107.744798
 H70     -C45     -H69     : 104.894240  H71     -C46     -C29     : 112.032471
 H72     -C46     -C29     : 112.097904  H72     -C46     -H71     : 107.418253
 H73     -C46     -C29     : 112.211684  H73     -C46     -H71     : 105.875619
 H73     -C46     -H72     : 106.814392  H74     -C47     -C31     : 111.849660
 H75     -C47     -C31     : 111.964901  H75     -C47     -H74     : 113.066083
 H76     -C47     -C31     : 112.334273  H76     -C47     -H74     : 104.830478
 H76     -C47     -H75     : 102.205211  C47     -H75     -C20     : 156.903194
 
  torsional angles:
 
 P1      -Pd2     -N3      -H15     : 117.329579
 P1      -Pd2     -N3      -C19     :-122.571445
 P1      -Pd2     -C7      -C6      : -94.851269
 P1      -Pd2     -C7      -C8      :  93.218881
 P1      -C27     -C36     -C30     :  -3.538704
 P1      -C27     -C36     -C37     : 177.391602
 P1      -C27     -C40     -C39     :-177.644279
 P1      -C27     -C40     -H55     :   2.190069
 P1      -C28     -C41     -H56     :  62.775020
 P1      -C28     -C41     -H57     :-178.274494
 P1      -C28     -C41     -H58     : -59.513232
 P1      -C28     -C42     -H59     : -63.928460
 P1      -C28     -C42     -H60     :  59.071534
 P1      -C28     -C42     -H61     : 177.433697
 P1      -C28     -C43     -H62     :  59.682494
 P1      -C28     -C43     -H63     : 179.407630
 P1      -C28     -C43     -H64     : -61.546178
 P1      -C29     -C44     -H65     : -56.022773
 P1      -C29     -C44     -H66     :  65.784275
 P1      -C29     -C44     -H67     :-176.287823
 P1      -C29     -C45     -H68     :  67.566361
 P1      -C29     -C45     -H69     :-174.255908
 P1      -C29     -C45     -H70     : -56.409800
 P1      -C29     -C46     -H71     : -59.157476
 P1      -C29     -C46     -H72     :  61.695607
 P1      -C29     -C46     -H73     :-178.104440
 Pd2     -P1      -C27     -C36     : -32.618306
 Pd2     -P1      -C27     -C40     : 145.847045
 Pd2     -P1      -C28     -C41     : -71.513102
 Pd2     -P1      -C28     -C42     :  52.011638
 Pd2     -P1      -C28     -C43     : 168.168159
 Pd2     -P1      -C29     -C44     : -70.217488
 Pd2     -P1      -C29     -C45     : 165.326564
 Pd2     -P1      -C29     -C46     :  45.006587
 Pd2     -N3      -C19     -C18     : -51.616232
 Pd2     -N3      -C19     -C20     : 128.383766
 Pd2     -C7      -C6      -C5      :-170.050886
 Pd2     -C7      -C6      -H12     :   9.178290
 Pd2     -C7      -C8      -C9      : 169.957016
 Pd2     -C7      -C8      -H13     :  -9.553378
 N3      -Pd2     -P1      -C27     :   0.000000
 N3      -Pd2     -P1      -C28     :-120.617223
 N3      -Pd2     -P1      -C29     : 118.410104
 N3      -Pd2     -C7      -C6      :  50.581459
 N3      -Pd2     -C7      -C8      :-121.348391
 N3      -C19     -C18     -C17     : 179.999999
 N3      -C19     -C18     -H24     :  -0.000004
 N3      -C19     -C20     -C21     :-179.999998
 N3      -C19     -C20     -H25     :   0.000001
 N3      -C19     -C20     -H75     :  50.827803
 C4      -C5      -C6      -C7      :  -1.182136
 C4      -C5      -C6      -H12     : 179.579750
 C4      -C9      -C8      -C7      :   1.078553
 C4      -C9      -C8      -H13     :-179.406842
 C5      -C4      -C9      -C8      :   0.183250
 C5      -C4      -C9      -H14     :-179.819722
 C5      -C6      -C7      -C8      :   2.330995
 C6      -C5      -C4      -C9      :  -0.133028
 C6      -C5      -C4      -F10     :-178.834314
 C6      -C7      -C8      -C9      :  -2.280368
 C6      -C7      -C8      -H13     : 178.209238
 C7      -Pd2     -P1      -C27     : 177.040537
 C7      -Pd2     -P1      -C28     :  56.423314
 C7      -Pd2     -P1      -C29     : -64.549358
 C7      -Pd2     -N3      -H15     : -27.976472
 C7      -Pd2     -N3      -C19     :  92.122504
 C7      -C6      -C5      -H11     : 178.853796
 C7      -C8      -C9      -H14     :-178.918464
 C8      -C7      -C6      -H12     :-178.439829
 C8      -C9      -C4      -F10     : 178.892184
 C9      -C4      -C5      -H11     : 179.831126
 F10     -C4      -C5      -H11     :   1.129840
 F10     -C4      -C9      -H14     :  -1.110788
 H11     -C5      -C6      -H12     :  -0.384317
 H13     -C8      -C9      -H14     :   0.596141
 H15     -N3      -C19     -C18     :  66.183656
 H15     -N3      -C19     -C20     :-113.816347
 C16     -C17     -C18     -C19     :  -0.000001
 C16     -C17     -C18     -H24     :-179.999999
 C16     -C21     -C20     -C19     :  -0.000001
 C16     -C21     -C20     -H25     : 180.000000
 C16     -C21     -C20     -H75     :  99.528372
 C17     -C16     -C21     -C20     :   0.000001
 C17     -C16     -C21     -H26     : 179.999999
 C17     -C18     -C19     -C20     :   0.000001
 C18     -C17     -C16     -C21     :   0.000001
 C18     -C17     -C16     -H22     : 180.000000
 C18     -C19     -C20     -C21     :   0.000000
 C18     -C19     -C20     -H25     : 180.000000
 C18     -C19     -C20     -H75     :-129.172199
 C19     -C18     -C17     -H23     : 180.000000
 C19     -C20     -C21     -H26     :-179.999999
 C19     -C20     -H75     -C47     :  94.084805
 C20     -C19     -C18     -H24     : 179.999999
 C20     -C21     -C16     -H22     :-179.999999
 C20     -H75     -C47     -C31     :-141.524432
 C20     -H75     -C47     -H74     :  91.036466
 C20     -H75     -C47     -H76     : -21.095714
 C21     -C16     -C17     -H23     : 179.999999
 C21     -C20     -H75     -C47     : -25.045851
 H22     -C16     -C17     -H23     :  -0.000001
 H22     -C16     -C21     -H26     :  -0.000001
 H23     -C17     -C18     -H24     :   0.000002
 H25     -C20     -C21     -H26     :   0.000002
 H25     -C20     -H75     -C47     :-133.959260
 H26     -C21     -C20     -H75     : -80.471626
 C27     -P1      -C28     -C41     : 166.762405
 C27     -P1      -C28     -C42     : -69.712856
 C27     -P1      -C28     -C43     :  46.443665
 C27     -P1      -C29     -C44     :  44.159859
 C27     -P1      -C29     -C45     : -80.296088
 C27     -P1      -C29     -C46     : 159.383935
 C27     -C36     -C30     -C31     : 116.873206
 C27     -C36     -C30     -C35     : -63.902545
 C27     -C36     -C37     -C38     :   0.274863
 C27     -C36     -C37     -H52     : 177.359151
 C27     -C40     -C39     -C38     :  -0.346891
 C27     -C40     -C39     -H54     : 179.785728
 C28     -P1      -C27     -C36     :  97.038236
 C28     -P1      -C27     -C40     : -84.496413
 C28     -P1      -C29     -C44     : 161.788653
 C28     -P1      -C29     -C45     :  37.332705
 C28     -P1      -C29     -C46     : -82.987272
 C29     -P1      -C27     -C36     :-142.540243
 C29     -P1      -C27     -C40     :  35.925108
 C29     -P1      -C28     -C41     :  44.498558
 C29     -P1      -C28     -C42     : 168.023298
 C29     -P1      -C28     -C43     : -75.820182
 C30     -C31     -C32     -C33     :   0.204575
 C30     -C31     -C32     -H48     : 179.607156
 C30     -C31     -C47     -H74     :  85.260242
 C30     -C31     -C47     -H75     : -42.827948
 C30     -C31     -C47     -H76     :-157.167381
 C30     -C35     -C34     -C33     :   0.273642
 C30     -C35     -C34     -H50     : 179.773359
 C30     -C36     -C27     -C40     : 178.113550
 C30     -C36     -C37     -C38     :-178.906444
 C30     -C36     -C37     -H52     :  -1.822156
 C31     -C30     -C35     -C34     :  -0.019764
 C31     -C30     -C35     -H51     : 177.915884
 C31     -C30     -C36     -C37     : -64.082919
 C31     -C32     -C33     -C34     :   0.054983
 C31     -C32     -C33     -H49     : 179.876051
 C32     -C31     -C30     -C35     :  -0.212327
 C32     -C31     -C30     -C36     : 179.043146
 C32     -C31     -C47     -H74     : -98.492928
 C32     -C31     -C47     -H75     : 133.418882
 C32     -C31     -C47     -H76     :  19.079450
 C32     -C33     -C34     -C35     :  -0.276610
 C32     -C33     -C34     -H50     :-179.778484
 C33     -C32     -C31     -C47     :-176.307482
 C33     -C34     -C35     -H51     :-177.768294
 C34     -C33     -C32     -H48     :-179.371646
 C34     -C35     -C30     -C36     :-179.368488
 C35     -C30     -C31     -C47     : 175.758639
 C35     -C30     -C36     -C37     : 115.141330
 C35     -C34     -C33     -H49     : 179.901367
 C36     -C27     -C40     -C39     :   1.063585
 C36     -C27     -C40     -H55     :-179.102067
 C36     -C30     -C31     -C47     :  -4.985888
 C36     -C30     -C35     -H51     :  -1.432840
 C36     -C37     -C38     -C39     :   0.419544
 C36     -C37     -C38     -H53     : 179.515586
 C37     -C36     -C27     -C40     :  -0.956143
 C37     -C38     -C39     -C40     :  -0.387844
 C37     -C38     -C39     -H54     : 179.480274
 C38     -C39     -C40     -H55     : 179.809641
 C39     -C38     -C37     -H52     :-176.949296
 C40     -C39     -C38     -H53     :-179.495593
 C41     -C28     -C42     -H59     :  65.348403
 C41     -C28     -C42     -H60     :-171.651602
 C41     -C28     -C42     -H61     : -53.289439
 C41     -C28     -C43     -H62     : -66.981941
 C41     -C28     -C43     -H63     :  52.743195
 C41     -C28     -C43     -H64     : 171.789387
 C42     -C28     -C41     -H56     : -64.694553
 C42     -C28     -C41     -H57     :  54.255933
 C42     -C28     -C41     -H58     : 173.017195
 C42     -C28     -C43     -H62     :-178.358513
 C42     -C28     -C43     -H63     : -58.633377
 C42     -C28     -C43     -H64     :  60.412815
 C43     -C28     -C41     -H56     :-174.987439
 C43     -C28     -C41     -H57     : -56.036953
 C43     -C28     -C41     -H58     :  62.724309
 C43     -C28     -C42     -H59     : 176.830700
 C43     -C28     -C42     -H60     : -60.169305
 C43     -C28     -C42     -H61     :  58.192858
 C44     -C29     -C45     -H68     : -59.667052
 C44     -C29     -C45     -H69     :  58.510680
 C44     -C29     -C45     -H70     : 176.356787
 C44     -C29     -C46     -H71     :  60.283556
 C44     -C29     -C46     -H72     :-178.863361
 C44     -C29     -C46     -H73     : -58.663408
 C45     -C29     -C44     -H65     :  75.812279
 C45     -C29     -C44     -H66     :-162.380674
 C45     -C29     -C44     -H67     : -44.452771
 C45     -C29     -C46     -H71     : 171.945031
 C45     -C29     -C46     -H72     : -67.201886
 C45     -C29     -C46     -H73     :  52.998068
 C46     -C29     -C44     -H65     :-172.848971
 C46     -C29     -C44     -H66     : -51.041923
 C46     -C29     -C44     -H67     :  66.885980
 C46     -C29     -C45     -H68     :-170.886081
 C46     -C29     -C45     -H69     : -52.708349
 C46     -C29     -C45     -H70     :  65.137758
 C47     -C31     -C32     -H48     :   3.095099
 H48     -C32     -C33     -H49     :   0.449421
 H49     -C33     -C34     -H50     :   0.399493
 H50     -C34     -C35     -H51     :   1.731423
 H52     -C37     -C38     -H53     :   2.146746
 H53     -C38     -C39     -H54     :   0.372525
 H54     -C39     -C40     -H55     :  -0.057740
 
  nuclear repulsion energy.......          4976.882000289 hartrees
  
  Detected an organometallic with only one TM atom. 
  
  Formal charge on ligand        1 is    -1
  Formal multiplet on ligand     1 is     1
  Oxidation state on metal       2 is     2
  Formal multiplet on metal      2 is     1
  Formal charge on ligand        3 is    -1
  Formal multiplet on ligand     3 is     1
  
 
  Will use High-Quality Initial guess for organometallics
       including d-d repulsion (iguess=30)
 
 Non-default options chosen:
   SCF calculation type: DFT(b3pw91-d3)              
   DFT=Becke_3_Parameter/HF+Slater+Becke88+PW91+PW-GGAIIC (B3PW91-D3)
   Geometry will be optimized in redundant internal coordinates
   Solvation energy will be computed using PBF
     -solute cavity energy will not be included
     -surface area terms will not be included
   Vibrational frequencies and related properties will be computed
      from analytic second derivatives
   IR intensities will be computed
   Thermochemical properties will be computed
   Maximum number of geometry steps: 100
   Scaling standard convergence criteria by a factor of   5.00
   Solvent: benzene                                                         
   Internal dielectric constant:    1.000
   Continuum dielectric constant:   2.283
   Solvent probe molecule radius:   2.600
  
 Non-default print settings:
     11=  2
  
 Temporary integer options set:
     21= -1  73=  2
  
  atom       vdw   vdw2    cov     mass  grid  daf  charge   basis
  P1        2.147  2.074  1.060   30.974    Y    Y      Y    ps_6-31g*
  Pd2       1.450  1.450  1.280  105.903    Y    Y      Y    lacv3p*
  N3        1.831  1.600  0.750   14.003    Y    Y      Y    ps_6-31g*
  C4        1.949  1.900  0.770   12.000    Y    Y      Y    ps_6-31g*
  C5        1.949  1.900  0.770   12.000    Y    Y      Y    ps_6-31g*
  C6        1.949  1.900  0.770   12.000    Y    Y      Y    ps_6-31g*
  C7        1.949  1.900  0.770   12.000    Y    Y      Y    ps_6-31g*
  C8        1.949  1.900  0.770   12.000    Y    Y      Y    ps_6-31g*
  C9        1.949  1.900  0.770   12.000    Y    Y      Y    ps_6-31g*
  F10       1.736  1.682  0.720   18.998    Y    Y      Y    ps_6-31g*
  H11       1.597  1.150  0.320    1.008    Y    Y      Y    ps_6-31g*
  H12       1.597  1.150  0.320    1.008    Y    Y      Y    ps_6-31g*
  H13       1.597  1.150  0.320    1.008    Y    Y      Y    ps_6-31g*
  H14       1.597  1.150  0.320    1.008    Y    Y      Y    ps_6-31g*
  H15       1.597  1.150  0.320    1.008    Y    Y      Y    ps_6-31g*
  C16       1.949  1.900  0.770   12.000    Y    Y      Y    ps_6-31g*
  C17       1.949  1.900  0.770   12.000    Y    Y      Y    ps_6-31g*
  C18       1.949  1.900  0.770   12.000    Y    Y      Y    ps_6-31g*
  C19       1.949  1.900  0.770   12.000    Y    Y      Y    ps_6-31g*
  C20       1.949  1.900  0.770   12.000    Y    Y      Y    ps_6-31g*
  C21       1.949  1.900  0.770   12.000    Y    Y      Y    ps_6-31g*
  H22       1.597  1.150  0.320    1.008    Y    Y      Y    ps_6-31g*
  H23       1.597  1.150  0.320    1.008    Y    Y      Y    ps_6-31g*
  H24       1.597  1.150  0.320    1.008    Y    Y      Y    ps_6-31g*
  H25       1.597  1.150  0.320    1.008    Y    Y      Y    ps_6-31g*
  H26       1.597  1.150  0.320    1.008    Y    Y      Y    ps_6-31g*
  C27       1.949  1.900  0.770   12.000    Y    Y      Y    ps_6-31g*
  C28       1.949  1.900  0.770   12.000    Y    Y      Y    ps_6-31g*
  C29       1.949  1.900  0.770   12.000    Y    Y      Y    ps_6-31g*
  C30       1.949  1.900  0.770   12.000    Y    Y      Y    ps_6-31g*
  C31       1.949  1.900  0.770   12.000    Y    Y      Y    ps_6-31g*
  C32       1.949  1.900  0.770   12.000    Y    Y      Y    ps_6-31g*
  C33       1.949  1.900  0.770   12.000    Y    Y      Y    ps_6-31g*
  C34       1.949  1.900  0.770   12.000    Y    Y      Y    ps_6-31g*
  C35       1.949  1.900  0.770   12.000    Y    Y      Y    ps_6-31g*
  C36       1.949  1.900  0.770   12.000    Y    Y      Y    ps_6-31g*
  C37       1.949  1.900  0.770   12.000    Y    Y      Y    ps_6-31g*
  C38       1.949  1.900  0.770   12.000    Y    Y      Y    ps_6-31g*
  C39       1.949  1.900  0.770   12.000    Y    Y      Y    ps_6-31g*
  C40       1.949  1.900  0.770   12.000    Y    Y      Y    ps_6-31g*
  C41       1.949  1.900  0.770   12.000    Y    Y      Y    ps_6-31g*
  C42       1.949  1.900  0.770   12.000    Y    Y      Y    ps_6-31g*
  C43       1.949  1.900  0.770   12.000    Y    Y      Y    ps_6-31g*
  C44       1.949  1.900  0.770   12.000    Y    Y      Y    ps_6-31g*
  C45       1.949  1.900  0.770   12.000    Y    Y      Y    ps_6-31g*
  C46       1.949  1.900  0.770   12.000    Y    Y      Y    ps_6-31g*
  C47       1.949  1.900  0.770   12.000    Y    Y      Y    ps_6-31g*
  H48       1.597  1.150  0.320    1.008    Y    Y      Y    ps_6-31g*
  H49       1.597  1.150  0.320    1.008    Y    Y      Y    ps_6-31g*
  H50       1.597  1.150  0.320    1.008    Y    Y      Y    ps_6-31g*
  H51       1.597  1.150  0.320    1.008    Y    Y      Y    ps_6-31g*
  H52       1.597  1.150  0.320    1.008    Y    Y      Y    ps_6-31g*
  H53       1.597  1.150  0.320    1.008    Y    Y      Y    ps_6-31g*
  H54       1.597  1.150  0.320    1.008    Y    Y      Y    ps_6-31g*
  H55       1.597  1.150  0.320    1.008    Y    Y      Y    ps_6-31g*
  H56       1.597  1.150  0.320    1.008    Y    Y      Y    ps_6-31g*
  H57       1.597  1.150  0.320    1.008    Y    Y      Y    ps_6-31g*
  H58       1.597  1.150  0.320    1.008    Y    Y      Y    ps_6-31g*
  H59       1.597  1.150  0.320    1.008    Y    Y      Y    ps_6-31g*
  H60       1.597  1.150  0.320    1.008    Y    Y      Y    ps_6-31g*
  H61       1.597  1.150  0.320    1.008    Y    Y      Y    ps_6-31g*
  H62       1.597  1.150  0.320    1.008    Y    Y      Y    ps_6-31g*
  H63       1.597  1.150  0.320    1.008    Y    Y      Y    ps_6-31g*
  H64       1.597  1.150  0.320    1.008    Y    Y      Y    ps_6-31g*
  H65       1.597  1.150  0.320    1.008    Y    Y      Y    ps_6-31g*
  H66       1.597  1.150  0.320    1.008    Y    Y      Y    ps_6-31g*
  H67       1.597  1.150  0.320    1.008    Y    Y      Y    ps_6-31g*
  H68       1.597  1.150  0.320    1.008    Y    Y      Y    ps_6-31g*
  H69       1.597  1.150  0.320    1.008    Y    Y      Y    ps_6-31g*
  H70       1.597  1.150  0.320    1.008    Y    Y      Y    ps_6-31g*
  H71       1.597  1.150  0.320    1.008    Y    Y      Y    ps_6-31g*
  H72       1.597  1.150  0.320    1.008    Y    Y      Y    ps_6-31g*
  H73       1.597  1.150  0.320    1.008    Y    Y      Y    ps_6-31g*
  H74       1.597  1.150  0.320    1.008    Y    Y      Y    ps_6-31g*
  H75       1.597  1.150  0.320    1.008    Y    Y      Y    ps_6-31g*
  H76       1.597  1.150  0.320    1.008    Y    Y      Y    ps_6-31g*
 
  atom      formal  2spin      esp    mulk    frag
  P1          -1       0        Y    0.000       0
  Pd2          2       0        Y    0.000       0
  C4          -1       0        Y    0.000       0
  
  end of program pre
   
 Time(pre)  user:       0.895  user+sys:       0.895  wallclock:       1.410
  
  start of program onee
  
  smallest eigenvalue of S:    3.455E-04
  number of canonical orbitals.....          614
  end of program onee
   
 Time(onee)  user:       4.667  user+sys:       4.667  wallclock:       3.633
  
  start of program hfig
  
  initial wavefunction generated automatically from atomic wavefunctions
  Only one state below 0.010000
  Skip d-d repulsion considerations 
 
  Irreducible     Total no   No of occupied orbitals 
  representation  orbitals   Shell_1  Shell_2    ...
  No Symm          614        143
  ------------------------
  Orbital occupation/shell    1.000
 
  end of program hfig
   
 Time(hfig)  user:       1.154  user+sys:       1.154  wallclock:       1.299
  
  start of program probe
  
  end of program probe
   
 Time(probe)  user:       0.569  user+sys:       0.569  wallclock:       0.558
  
  start of program grid
  
   grid     grid set  grid #  grid sym
  ------    --------  ------  --------
  coarse        0        0        1
  medium        2        1        1
  fine          0        0        1
  ultrafine     4        2        1
  charge       -1        3        1
  gradient      4        2        1
  density       0        0        1
  DFT-fine    -11        4        1
  DFT-med.    -10        5        1
  DFT-grad    -12        6        1
  DFT-der2     -8        7        1
  DFT-cphf     -9        8        1
  LMP2-enrg     4        2        1
  LMP2-grad     2        1        1
  DFT-cphf2   -15        9        1
  PBF-dens      0        0        1
  plotting      0        0        1
  Rel-grad    -17        0        1
  
  number of gridpoints: 
     atom           P1         Pd2          N3          C4          C5          C6          C7
  grid # 1         612         360         105          79          95          95          99
  grid # 2         429         316         380         330         325         320         379
  grid # 3           8         257           9          46          32          30          24
  grid # 4        8714        8714        8714        8714        8714        8714        8714
  grid # 5        1192        1192        1192        1192        1192        1192        1192
  grid # 6        9132        9132        5922        5922        5922        5922        5922
  grid # 7       23034       32968       13958       13950       13950       13950       13950
  grid # 8         722        1150         756         748         748         748         748
  grid # 9         366        2198         406         394         394         394         394
   
  number of gridpoints: 
     atom           C8          C9         F10         H11         H12         H13         H14
  grid # 1          93          93         585         116         112          90         114
  grid # 2         299         324         565         466         443         368         464
  grid # 3          27          32         372         402         202         163         387
  grid # 4        8714        8714        8714        8714        8714        8714        8714
  grid # 5        1192        1192        1192        1192        1192        1192        1192
  grid # 6        5922        5922        5922        5922        5922        5922        5922
  grid # 7       13950       13950       23190       15206       15206       15206       15206
  grid # 8         748         748         770         786         786         786         786
  grid # 9         394         394         420         420         420         420         420
   
  number of gridpoints: 
     atom          H15         C16         C17         C18         C19         C20         C21
  grid # 1          97          96          96          94          97          85          94
  grid # 2         408         322         322         321         338         277         321
  grid # 3          68          35          33          20          12          18          25
  grid # 4        8714        8714        8714        8714        8714        8714        8714
  grid # 5        1192        1192        1192        1192        1192        1192        1192
  grid # 6        5922        5922        5922        5922        5922        5922        5922
  grid # 7       15206       13950       13950       13950       13950       13950       13950
  grid # 8         786         748         748         748         748         748         748
  grid # 9         420         394         394         394         394         394         394
   
  number of gridpoints: 
     atom          H22         H23         H24         H25         H26         C27         C28
  grid # 1         118         118         113          95         118          92          91
  grid # 2         467         467         459         413         466         387         369
  grid # 3         422         422         281         161         402          12           6
  grid # 4        8714        8714        8714        8714        8714        8714        8714
  grid # 5        1192        1192        1192        1192        1192        1192        1192
  grid # 6        5922        5922        5922        5922        5922        5922        5922
  grid # 7       15206       15206       15206       15206       15206       13950       13950
  grid # 8         786         786         786         786         786         748         748
  grid # 9         420         420         420         420         420         394         394
   
  number of gridpoints: 
     atom          C29         C30         C31         C32         C33         C34         C35
  grid # 1          88          96          96          92          95          95          93
  grid # 2         377         341         332         320         321         323         323
  grid # 3           6          13          19          29          35          33          24
  grid # 4        8714        8714        8714        8714        8714        8714        8714
  grid # 5        1192        1192        1192        1192        1192        1192        1192
  grid # 6        5922        5922        5922        5922        5922        5922        5922
  grid # 7       13950       13950       13950       13950       13950       13950       13950
  grid # 8         748         748         748         748         748         748         748
  grid # 9         394         394         394         394         394         394         394
   
  number of gridpoints: 
     atom          C36         C37         C38         C39         C40         C41         C42
  grid # 1          98          94          96          95          91          83          84
  grid # 2         357         321         323         322         322         239         240
  grid # 3          12          23          34          31           9           6           6
  grid # 4        8714        8714        8714        8714        8714        8714        8714
  grid # 5        1192        1192        1192        1192        1192        1192        1192
  grid # 6        5922        5922        5922        5922        5922        5922        5922
  grid # 7       13950       13950       13950       13950       13950       13950       13950
  grid # 8         748         748         748         748         748         748         748
  grid # 9         394         394         394         394         394         394         394
   
  number of gridpoints: 
     atom          C43         C44         C45         C46         C47         H48         H49
  grid # 1          82          80          82          79          81         114         118
  grid # 2         242         246         241         248         243         453         468
  grid # 3           6           6           6           6           6         313         424
  grid # 4        8714        8714        8714        8714        8714        8714        8714
  grid # 5        1192        1192        1192        1192        1192        1192        1192
  grid # 6        5922        5922        5922        5922        5922        5922        5922
  grid # 7       13950       13950       13950       13950       13950       15206       15206
  grid # 8         748         748         748         748         748         786         786
  grid # 9         394         394         394         394         394         420         420
   
  number of gridpoints: 
     atom          H50         H51         H52         H53         H54         H55         H56
  grid # 1         117         104         115         118         118         100         102
  grid # 2         464         421         455         466         467         418         420
  grid # 3         384         132         316         419         411          66          87
  grid # 4        8714        8714        8714        8714        8714        8714        8714
  grid # 5        1192        1192        1192        1192        1192        1192        1192
  grid # 6        5922        5922        5922        5922        5922        5922        5922
  grid # 7       15206       15206       15206       15206       15206       15206       15206
  grid # 8         786         786         786         786         786         786         786
  grid # 9         420         420         420         420         420         420         420
   
  number of gridpoints: 
     atom          H57         H58         H59         H60         H61         H62         H63
  grid # 1         108         101         106          97         108         102         109
  grid # 2         444         424         437         412         446         425         445
  grid # 3         265         145         137         102         263         145         269
  grid # 4        8714        8714        8714        8714        8714        8714        8714
  grid # 5        1192        1192        1192        1192        1192        1192        1192
  grid # 6        5922        5922        5922        5922        5922        5922        5922
  grid # 7       15206       15206       15206       15206       15206       15206       15206
  grid # 8         786         786         786         786         786         786         786
  grid # 9         420         420         420         420         420         420         420
   
  number of gridpoints: 
     atom          H64         H65         H66         H67         H68         H69         H70
  grid # 1         104         104         105         107         102         107         101
  grid # 2         434         436         444         446         431         443         427
  grid # 3         197         194         190         273         192         259         148
  grid # 4        8714        8714        8714        8714        8714        8714        8714
  grid # 5        1192        1192        1192        1192        1192        1192        1192
  grid # 6        5922        5922        5922        5922        5922        5922        5922
  grid # 7       15206       15206       15206       15206       15206       15206       15206
  grid # 8         786         786         786         786         786         786         786
  grid # 9         420         420         420         420         420         420         420
   
  number of gridpoints: 
     atom          H71         H72         H73         H74         H75         H76       total
  grid # 1          78          99         108         111          74         104        8793
  grid # 2         341         413         432         455         325         435       28953
  grid # 3          13          77         194         306           9         183       10331
  grid # 4        8714        8714        8714        8714        8714        8714      662264
  grid # 5        1192        1192        1192        1192        1192        1192       90592
  grid # 6        5922        5922        5922        5922        5922        5922      456492
  grid # 7       15206       15206       15206       15206       15206       15206     1146534
  grid # 8         786         786         786         786         786         786       58736
  grid # 9         420         420         420         420         420         420       32772
   
  end of program grid
   
 Time(grid)  user:     311.855  user+sys:     311.855  wallclock:     159.144
  
  start of program rwr
  
  end of program rwr
   
 Time(rwr)  user:      19.003  user+sys:      19.003  wallclock:      23.511
  
  start of program scf
  
 number of electrons..........        286
 number of alpha electrons....        143
 number of beta electrons.....        143
 number of orbitals, total....        614
 number of doubly-occ'd orbs..        143
 number of open shell orbs....          0
 number of occupied orbitals..        143
 number of virtual orbitals...        471
 number of hamiltonians.......          1
 number of shells.............          1
 SCF type: DFT=Becke_3_Parameter/HF+Slater+Becke88+PW91+PW-GGAIIC (B3PW91-D3)
 Energy computed using pseudospectral method.
 Convergence Criterion:
    Energy (econv):       1.00E-05
    RMS density (dconv):  5.00E-06
  
       i  u  d  i  g                   
       t  p  i  c  r                                 RMS    maximum
       e  d  i  u  i                       energy  density   DIIS  
       r  t  s  t  d       total energy    change  change    error 
  
etot    1  N  N  5  M   -1897.69409919429           2.1E-03  2.0E-01
etot    2  Y  Y  6  M   -1900.89982984606  3.2E+00  3.8E-03  1.2E-01
etot    3  Y  Y  6  M   -1900.55339774430 -3.5E-01  3.2E-03  7.2E-02
etot    4  N  Y  2  U   -1901.85045440166  1.3E+00  1.3E-03  7.8E-02
etot    5  Y  Y  6  M   -1902.38440703161  5.3E-01  9.6E-04  2.6E-02
etot    6  N  Y  2  U   -1902.42040604085  3.6E-02  5.5E-04  1.4E-02
etot    7  Y  Y  6  M   -1902.43915700771  1.9E-02  2.6E-04  5.8E-03
etot    8  N  Y  2  U   -1902.44920833009  1.0E-02  8.9E-05  1.7E-03
etot    9  Y  Y  6  M   -1902.45052832349  1.3E-03  2.6E-05  7.6E-04
etot   10  N  Y  2  U   -1902.45062078779  9.2E-05  1.1E-05  2.3E-04
etot   11  N  Y  2  U   -1902.45063496308  1.4E-05  6.2E-06  1.5E-04
etot   12  N  Y  2  U   -1902.45064035018  5.4E-06  3.6E-06  1.0E-04
etot   13  N  N  2  U   -1902.45064228200  1.9E-06  0.0E+00  0.0E+00
 
  Computing the dispersion energy correction and its gradients...
  
  
 Energy components, in hartrees:
   (A)  Nuclear repulsion............    4976.88200028945
   (E)  Total one-electron terms.....  -12555.09622489057
   (F)    Electron-nuclear...........  -14368.40376228770
   (H)    Kinetic....................    1813.30753739713
   (I)  Total two-electron terms.....    5675.76358231912
   (J)    Coulomb....................    5922.55498348482
   (K)    Exchange+Correlation.......    -246.79140116570
   (L)  Electronic energy............   -6879.33264257145  (E+I)
   (N0) D3 correction................      -0.14026506846
   (N)  Total energy.................   -1902.59090735046  (A+L+N0)
   (O)  Gas phase energy.............   -1902.59090735046
  
 SCFE: SCF energy: DFT(b3pw91-d3)     -1902.59090735046 hartrees   iterations:  13
  
 
 HOMO energy:    -0.14109
 LUMO energy:    -0.07275
 
  Orbital energies (hartrees): 
   -77.11715   -24.68543   -14.27073   -10.24613   -10.22167   -10.21781
   -10.21292   -10.21015   -10.19482   -10.19209   -10.18949   -10.18921
   -10.18683   -10.18457   -10.18448   -10.18419   -10.17933   -10.17841
   -10.17456   -10.17315   -10.17100   -10.16934   -10.16701   -10.16030
   -10.15904   -10.15830   -10.15759   -10.15730   -10.15515   -10.15512
   -10.15332   -10.15184   -10.15048   -10.15042   -10.15032   -10.13622
    -6.61399    -4.77168    -4.77121    -4.77034    -3.34237    -2.07469
    -2.07195    -2.04379    -1.22148    -0.93822    -0.89531    -0.88032
    -0.85705    -0.83646    -0.82599    -0.80711    -0.80026    -0.79906
    -0.78520    -0.76563    -0.74943    -0.73637    -0.72629    -0.71212
    -0.70079    -0.69543    -0.69463    -0.69155    -0.67623    -0.66462
    -0.63764    -0.62801    -0.61472    -0.61060    -0.60007    -0.59038
    -0.57648    -0.57368    -0.57078    -0.55782    -0.53590    -0.52413
    -0.51360    -0.50928    -0.49444    -0.48791    -0.48232    -0.47324
    -0.47176    -0.46735    -0.46452    -0.46073    -0.45886    -0.45673
    -0.45258    -0.45092    -0.44843    -0.44406    -0.43812    -0.43254
    -0.42205    -0.41897    -0.41690    -0.41661    -0.41293    -0.40613
    -0.40596    -0.39866    -0.39736    -0.39175    -0.38955    -0.38376
    -0.38116    -0.37403    -0.37050    -0.36791    -0.36421    -0.36143
    -0.35882    -0.34866    -0.34649    -0.34569    -0.34106    -0.33951
    -0.33645    -0.33314    -0.33252    -0.33205    -0.32168    -0.31763
    -0.31268    -0.30344    -0.30144    -0.28436    -0.27381    -0.26904
    -0.26755    -0.26327    -0.25929    -0.24210    -0.23657    -0.23330
    -0.23059    -0.21470    -0.18715    -0.17194    -0.14109    -0.07275
    -0.04239    -0.02145    -0.00922    -0.00720     0.00251     0.00732
     0.01553     0.02300     0.02616
 
  end of program scf
   
 Time(scf)  user:     550.189  user+sys:     550.189  wallclock:     296.194
  
  start of program der1a
  
  end of program der1a
   
 Time(der1a)  user:      14.741  user+sys:      14.741  wallclock:       8.440
  
  start of program rwr
  
  end of program rwr
   
 Time(rwr)  user:      21.189  user+sys:      21.189  wallclock:      27.272
  
  start of program der1b
  
   
  forces (hartrees/bohr) : total     
   
 atom  label           x              y              z
 ---- --------   -------------  -------------  -------------
    1 P1          1.046504E-02   1.150653E-02   1.188274E-02
    2 Pd2        -9.332293E-05   6.664901E-03   2.647500E-03
    3 N3         -2.222131E-02  -3.330317E-02   5.282874E-02
    4 C4          3.415747E-02   1.811914E-03  -1.282519E-02
    5 C5         -1.956207E-02   8.549757E-03   2.962973E-03
    6 C6          7.463727E-03  -1.566102E-02   5.908930E-03
    7 C7          6.111110E-03   3.139747E-02   3.023447E-02
    8 C8         -8.902597E-02   4.733155E-02   1.394923E-01
    9 C9         -1.632500E-02  -4.648333E-03   8.692754E-03
   10 F10        -4.700422E-03   6.143899E-04   9.601111E-04
   11 H11        -7.954094E-04  -2.348518E-03  -6.816666E-04
   12 H12        -9.924067E-04  -1.714119E-03   9.359560E-04
   13 H13        -1.000813E-01  -2.505765E-02   1.325213E-01
   14 H14         9.298582E-04   1.974801E-03   2.633658E-03
   15 H15        -4.173004E-02  -5.591630E-02  -9.619017E-05
   16 C16        -6.756234E-03   6.365079E-03   9.652053E-03
   17 C17         7.214428E-03  -1.465056E-02   1.098330E-02
   18 C18         7.140845E-03  -2.704647E-03  -9.788228E-03
   19 C19        -1.348987E-01   5.217730E-04   2.219266E-02
   20 C20        -9.661288E-02  -2.505915E-01  -1.677090E-03
   21 C21         3.973273E-03  -9.079120E-03  -4.841182E-03
   22 H22        -3.309047E-03   8.398526E-03  -5.888634E-03
   23 H23         4.200826E-03   1.917414E-03  -9.437883E-03
   24 H24         9.228518E-03  -2.930671E-03  -5.140907E-03
   25 H25        -3.277412E-02  -5.392006E-02  -2.246713E-02
   26 H26        -8.835577E-03   7.484746E-03   2.580946E-03
   27 C27        -9.142896E-03  -8.350638E-03  -1.360955E-02
   28 C28        -1.021292E-02   2.258434E-02  -2.632362E-02
   29 C29        -1.422659E-02  -3.211624E-02  -2.689044E-02
   30 C30         1.150649E-02   6.980973E-02   1.386698E-02
   31 C31         6.210142E-02   1.705791E-02   1.065935E-02
   32 C32         1.315511E-02   4.520369E-03   5.259362E-03
   33 C33        -1.080265E-02   1.262583E-02  -8.457097E-03
   34 C34         5.119643E-03   6.971856E-03   1.929152E-02
   35 C35         1.614045E-03  -1.219425E-03  -2.013909E-02
   36 C36         4.526785E-03  -3.454214E-02  -3.557907E-02
   37 C37         1.344306E-02   1.142735E-04  -6.339403E-03
   38 C38        -6.266206E-03  -3.833463E-03  -3.668624E-03
   39 C39         4.957714E-03   5.910066E-04   1.705530E-04
   40 C40        -1.737222E-03  -5.422935E-03  -1.008604E-02
   41 C41        -1.405629E-02  -9.017325E-03   8.224306E-03
   42 C42         7.946378E-03   5.140195E-03   1.301575E-02
   43 C43         1.068874E-02  -9.118089E-03  -1.357613E-02
   44 C44         1.675209E-02  -2.438485E-03   6.225718E-03
   45 C45        -3.366331E-04   5.600538E-03  -1.758030E-02
   46 C46         5.168056E-02  -1.455369E-02  -1.294712E-01
   47 C47         9.527938E-02   1.129707E-01   1.888514E-02
   48 H48        -4.322798E-03  -5.298006E-03  -1.118992E-02
   49 H49         3.430257E-04  -8.334532E-03  -6.999752E-03
   50 H50         4.183365E-03  -1.048366E-02  -1.400350E-03
   51 H51         4.564312E-03  -7.885232E-03  -8.275032E-04
   52 H52        -5.888456E-03   6.015262E-03   1.378202E-02
   53 H53        -8.184018E-03   3.519817E-03   7.815097E-03
   54 H54        -2.690907E-03   5.574635E-03   9.637274E-03
   55 H55         6.802813E-04   4.532160E-03   6.074741E-03
   56 H56         6.234862E-03  -3.609758E-03  -9.395302E-03
   57 H57         1.074260E-02  -6.454357E-03   3.284876E-03
   58 H58         4.826541E-03   5.655426E-03   3.739048E-03
   59 H59         6.787913E-03  -4.041023E-03  -8.094093E-03
   60 H60        -1.812496E-02  -3.058189E-03   6.839835E-04
   61 H61         5.470642E-04  -1.307030E-02   1.727079E-03
   62 H62         3.191571E-03   8.207302E-03   3.954149E-03
   63 H63         1.508202E-03  -5.936529E-03   1.090411E-02
   64 H64        -1.079971E-02  -2.290006E-03   1.791150E-03
   65 H65        -8.599804E-03  -5.961977E-04   6.258546E-03
   66 H66         1.958694E-03   4.874863E-03  -7.845782E-03
   67 H67        -1.840435E-04   1.279418E-02  -9.452090E-04
   68 H68        -3.882455E-03   3.193488E-03   4.810050E-03
   69 H69         6.970419E-03   8.003506E-03   6.871732E-03
   70 H70         7.254794E-03  -4.278062E-03   3.333943E-03
   71 H71         1.168837E-01   5.061514E-03  -1.367623E-01
   72 H72         1.451982E-02  -2.032920E-02  -1.455651E-02
   73 H73         8.265135E-03   3.060931E-03  -4.570823E-03
   74 H74        -8.098055E-03  -3.211117E-03  -4.771854E-03
   75 H75         1.291945E-01   2.230444E-01  -1.826486E-02
   76 H76        -1.858278E-03   6.789540E-03  -1.134217E-02
 -------------   -------------  -------------  -------------
     total        1.845326E-04   8.384203E-04  -4.154254E-03
   
  end of program der1b
   
 Time(der1b)  user:     164.340  user+sys:     164.340  wallclock:      88.607
  
  start of program geopt
  
 ----------------------------------------------------------------------------
  Geometry optimization step  1
  Total energy:     -1902.59090735046 hartrees
 ----------------------------------------------------------------------------
  
  
  Level shifts adjusted to satisfy step-size constraints
   Step size:    0.3003488
   Cos(theta):   0.5380747
   Final level shift:  -1.4389165E+00
  
  gradient maximum:        1.2422E+00 .  (  2.2500E-03 )
  gradient rms:            1.8941E-01 .  (  1.5000E-03 )
  displacement maximum:    1.9745E-01 .  (  9.0000E-03 )
  displacement rms:        1.8587E-02 .  (  6.0000E-03 )
  
  predicted energy change:  -3.1212E-01
  step size:     0.30028
  trust radius:  0.30000
  
  molecular structure not yet converged...
  
  center of mass moved by:
     x:    -6.6103E-02     y:     1.0755E-02     z:     6.9172E-02
  
  new geometry: 
                                   angstroms
  atom               x                 y                 z
  P1            0.0106864737      0.0026269256      0.0181531257 
  Pd2          -0.0986781925     -0.0204018531      2.2373768615 
  N3            1.9642472270     -0.0473429601      2.4012136515 
  C4           -4.9255328452      0.3531774425      2.8205473694 
  C5           -4.1260880512      1.4869471557      2.6754572537 
  C6           -2.7568910447      1.3629102209      2.4190909942 
  C7           -2.1285459628      0.1113090671      2.3212274424 
  C8           -2.9583103978     -1.0211248232      2.4453765786 
  C9           -4.3251939517     -0.9047151376      2.7021959195 
  F10          -6.2372876870      0.4544432784      3.0430690177 
  H11          -4.5798308034      2.4740601860      2.7616369143 
  H12          -2.1647346966      2.2710561269      2.3059329212 
  H13          -2.5353911819     -2.0100138264      2.3517741550 
  H14          -4.9372077094     -1.7997826598      2.8132696150 
  H15           2.2368594989      0.8638622716      2.9242916496 
  C16           3.5006962817     -3.3550912248      4.5632561772 
  C17           2.5135289758     -2.5512881355      5.1480736431 
  C18           1.9979234533     -1.4499963732      4.4426888897 
  C19           2.4767797383     -1.1526418687      3.1615868718 
  C20           3.4733722847     -1.9653039249      2.5661103850 
  C21           3.9793809727     -3.0662630236      3.2740373494 
  H22           3.9054784348     -4.2172659874      5.1138965524 
  H23           2.1429903358     -2.7827195362      6.1579681351 
  H24           1.2239158326     -0.8143841450      4.8983759656 
  H25           3.8052391266     -1.7948654016      1.5288368546 
  H26           4.7528110804     -3.7010767184      2.8172761316 
  C27           1.8301839178      0.0092220469     -0.5631185071 
  C28          -0.8289090688      1.3870749435     -1.0095869244 
  C29          -0.7569310012     -1.6777558674     -0.4888723760 
  C30           3.2409702763      1.4504309280      1.1078813221 
  C31           3.9889854842      1.1988643345      2.3048369741 
  C32           4.0847244926      2.1887497904      3.3055516440 
  C33           3.4738407164      3.4444112652      3.2098921201 
  C34           2.7428671712      3.7112623483      2.0580504121 
  C35           2.6589583890      2.7248271960      1.0677993504 
  C36           3.0481728475      0.5874232774     -0.0421940965 
  C37           4.2083781200      0.2780071737     -0.7854892125 
  C38           4.2593734079     -0.5061060355     -1.9419036218 
  C39           3.0760119029     -1.0382789040     -2.4403031834 
  C40           1.9028306141     -0.7609228135     -1.7393235093 
  C41          -2.3734870200      1.3347334356     -1.0654268958 
  C42          -0.4557359608      2.8092635492     -0.5348138491 
  C43          -0.3270448933      1.3061135193     -2.4735876223 
  C44           0.1585503752     -2.8460052736     -0.0566128864 
  C45          -1.1126407167     -1.9100814688     -1.9810789956 
  C46          -2.0931509678     -1.8386707825      0.2758755345 
  C47           4.6415961829     -0.1152666029      2.6752548264 
  H48           4.6535042730      1.9854195201      4.2244012722 
  H49           3.5671525410      4.1919914806      4.0111353235 
  H50           2.2426960861      4.6817202687      1.9228865443 
  H51           2.1042270787      3.0194581610      0.1879285918 
  H52           5.1815406606      0.6868017824     -0.5176782191 
  H53           5.2112556546     -0.6895625449     -2.4627456249 
  H54           3.0644374169     -1.6541238324     -3.3516132002 
  H55           0.9988525190     -1.1968540489     -2.1653195023 
  H56          -2.8473177285      1.4603125608     -0.0756501008 
  H57          -2.7796211597      2.1483901132     -1.7031604065 
  H58          -2.7601973848      0.3937601060     -1.4978185138 
  H59          -0.8043019324      3.0082406558      0.4989948044 
  H60           0.6360413496      2.9881625210     -0.5944441109 
  H61          -0.9273521541      3.5871587531     -1.1722673852 
  H62          -0.5554415499      0.3322758726     -2.9485592164 
  H63          -0.7954048736      2.0844072080     -3.1128847239 
  H64           0.7694647658      1.4623590429     -2.5419576440 
  H65           1.1845327771     -2.7524162670     -0.4662948413 
  H66           0.2383190131     -2.9202732764      1.0459544807 
  H67          -0.2390261833     -3.8252590441     -0.3977381855 
  H68          -0.2373063486     -1.9694758168     -2.6561300402 
  H69          -1.6397760809     -2.8784562306     -2.1156086936 
  H70          -1.7995853778     -1.1451768086     -2.3865110633 
  H71          -1.9732446735     -1.7929102087      1.3702237903 
  H72          -2.8285318851     -1.0619962817      0.0062409225 
  H73          -2.5692243626     -2.8217131906      0.0679484920 
  H74           5.6499122967     -0.2196911419      2.2177608406 
  H75           3.9519516603     -1.0111681242      2.4418437766 
  H76           4.8120152429     -0.2014257587      3.7684131151 
   
 
  bond lengths (angstroms):
 
 P1      -Pd2     :   2.222036      P1      -C27     :   1.910102
 P1      -C28     :   1.917776      P1      -C29     :   1.915724
 Pd2     -N3      :   2.069596      Pd2     -C7      :   2.035864
 N3      -H15     :   1.085460      N3      -C19     :   1.436156
 C4      -C5      :   1.394847      C4      -C9      :   1.398824
 C4      -F10     :   1.334343      C5      -C6      :   1.398503
 C5      -H11     :   1.089817      C6      -C7      :   1.403888
 C6      -H12     :   1.090038      C7      -C8      :   1.409372
 C8      -C9      :   1.395664      C8      -H13     :   1.079594
 C9      -H14     :   1.089974      C16     -C17     :   1.400932
 C16     -C21     :   1.405221      C16     -H22     :   1.100181
 C17     -C18     :   1.405795      C17     -H23     :   1.100339
 C18     -C19     :   1.399623      C18     -H24     :   1.100337
 C19     -C20     :   1.417113      C20     -C21     :   1.403323
 C20     -H25     :   1.102325      C20     -H75     :   1.074642
 C21     -H26     :   1.099915      C27     -C36     :   1.445398
 C27     -C40     :   1.407785      C28     -C41     :   1.546473
 C28     -C42     :   1.545085      C28     -C43     :   1.549749
 C29     -C44     :   1.545885      C29     -C45     :   1.551511
 C29     -C46     :   1.547972      C30     -C31     :   1.433707
 C30     -C35     :   1.401581      C30     -C36     :   1.450733
 C31     -C32     :   1.410840      C31     -C47     :   1.513291
 C32     -C33     :   1.399648      C32     -H48     :   1.099608
 C33     -C34     :   1.390062      C33     -H49     :   1.099806
 C34     -C35     :   1.400247      C34     -H50     :   1.100104
 C35     -H51     :   1.081067      C36     -C37     :   1.412198
 C37     -C38     :   1.398116      C37     -H52     :   1.088982
 C38     -C39     :   1.389948      C38     -H53     :   1.100460
 C39     -C40     :   1.394508      C39     -H54     :   1.099948
 C40     -H55     :   1.090268      C41     -H56     :   1.104511
 C41     -H57     :   1.110714      C41     -H58     :   1.105413
 C42     -H59     :   1.108986      C42     -H60     :   1.107943
 C42     -H61     :   1.110806      C43     -H62     :   1.107304
 C43     -H63     :   1.110767      C43     -H64     :   1.109694
 C44     -H65     :   1.108710      C44     -H66     :   1.107941
 C44     -H67     :   1.110573      C45     -H68     :   1.106992
 C45     -H69     :   1.110729      C45     -H70     :   1.105146
 C46     -H71     :   1.101848      C46     -H72     :   1.103046
 C46     -H73     :   1.111869      C47     -H74     :   1.112163
 C47     -H75     :   1.154439      C47     -H76     :   1.109712
 
  bond angles:
 
 C27     -P1      -Pd2     : 110.539226  C28     -P1      -Pd2     : 121.409940
 C28     -P1      -C27     : 104.563595  C29     -P1      -Pd2     : 103.622170
 C29     -P1      -C27     : 107.708454  C29     -P1      -C28     : 108.418927
 N3      -Pd2     -P1      :  91.727086  C7      -Pd2     -P1      :  95.136993
 C7      -Pd2     -N3      : 172.490216  H15     -N3      -Pd2     : 106.114654
 C19     -N3      -Pd2     : 114.057902  C19     -N3      -H15     : 107.535844
 C9      -C4      -C5      : 118.434711  F10     -C4      -C5      : 121.271837
 F10     -C4      -C9      : 120.282530  C6      -C5      -C4      : 120.537882
 H11     -C5      -C4      : 119.299520  H11     -C5      -C6      : 120.162446
 C7      -C6      -C5      : 122.008605  H12     -C6      -C5      : 118.489488
 H12     -C6      -C7      : 119.497102  C6      -C7      -Pd2     : 120.451277
 C8      -C7      -Pd2     : 122.592394  C8      -C7      -C6      : 116.531740
 C9      -C8      -C7      : 121.721960  H13     -C8      -C7      : 119.849351
 H13     -C8      -C9      : 118.425481  C8      -C9      -C4      : 120.723638
 H14     -C9      -C4      : 119.264879  H14     -C9      -C8      : 120.011478
 C21     -C16     -C17     : 120.337626  H22     -C16     -C17     : 119.997547
 H22     -C16     -C21     : 119.664821  C18     -C17     -C16     : 119.898520
 H23     -C17     -C16     : 119.983357  H23     -C17     -C18     : 120.118122
 C19     -C18     -C17     : 120.015168  H24     -C18     -C17     : 120.180578
 H24     -C18     -C19     : 119.802124  C18     -C19     -N3      : 121.737313
 C20     -C19     -N3      : 118.024565  C20     -C19     -C18     : 120.224742
 C21     -C20     -C19     : 119.439495  H25     -C20     -C19     : 121.229123
 H25     -C20     -C21     : 119.172547  H75     -C20     -C19     :  81.524872
 H75     -C20     -C21     : 126.463914  H75     -C20     -H25     :  67.656141
 C20     -C21     -C16     : 120.082316  H26     -C21     -C16     : 120.125509
 H26     -C21     -C20     : 119.792095  C36     -C27     -P1      : 133.979490
 C40     -C27     -P1      : 107.549021  C40     -C27     -C36     : 118.455226
 C41     -C28     -P1      : 115.605789  C42     -C28     -P1      : 113.208166
 C42     -C28     -C41     : 106.467748  C43     -C28     -P1      : 109.072408
 C43     -C28     -C41     : 106.711981  C43     -C28     -C42     : 105.078984
 C44     -C29     -P1      : 110.583981  C45     -C29     -P1      : 118.539250
 C45     -C29     -C44     : 106.950316  C46     -C29     -P1      : 107.836986
 C46     -C29     -C44     : 107.127347  C46     -C29     -C45     : 105.169656
 C35     -C30     -C31     : 113.582624  C36     -C30     -C31     : 128.814537
 C36     -C30     -C35     : 117.583363  C32     -C31     -C30     : 120.296052
 C47     -C31     -C30     : 125.572224  C47     -C31     -C32     : 113.979110
 C33     -C32     -C31     : 123.459961  H48     -C32     -C31     : 119.872208
 H48     -C32     -C33     : 116.664084  C34     -C33     -C32     : 117.281833
 H49     -C33     -C32     : 121.532939  H49     -C33     -C34     : 121.185205
 C35     -C34     -C33     : 118.834154  H50     -C34     -C33     : 120.679889
 H50     -C34     -C35     : 120.485232  C34     -C35     -C30     : 126.543832
 H51     -C35     -C30     : 118.957567  H51     -C35     -C34     : 114.477488
 C30     -C36     -C27     : 129.469391  C37     -C36     -C27     : 114.516813
 C37     -C36     -C30     : 116.002762  C38     -C37     -C36     : 126.028943
 H52     -C37     -C36     : 121.499554  H52     -C37     -C38     : 112.417371
 C39     -C38     -C37     : 118.702425  H53     -C38     -C37     : 121.099053
 H53     -C38     -C39     : 120.191009  C40     -C39     -C38     : 117.377561
 H54     -C39     -C38     : 121.359327  H54     -C39     -C40     : 121.263112
 C39     -C40     -C27     : 124.903896  H55     -C40     -C27     : 120.159013
 H55     -C40     -C39     : 114.936135  H56     -C41     -C28     : 113.095512
 H57     -C41     -C28     : 111.170310  H57     -C41     -H56     : 105.924511
 H58     -C41     -C28     : 113.100146  H58     -C41     -H56     : 107.291423
 H58     -C41     -H57     : 105.728098  H59     -C42     -C28     : 112.066801
 H60     -C42     -C28     : 111.720967  H60     -C42     -H59     : 109.324948
 H61     -C42     -C28     : 111.451611  H61     -C42     -H59     : 106.013709
 H61     -C42     -H60     : 105.927078  H62     -C43     -C28     : 112.603998
 H63     -C43     -C28     : 111.749482  H63     -C43     -H62     : 106.402140
 H64     -C43     -C28     : 111.767146  H64     -C43     -H62     : 107.530569
 H64     -C43     -H63     : 106.411162  H65     -C44     -C29     : 112.389600
 H66     -C44     -C29     : 111.811719  H66     -C44     -H65     : 107.863682
 H67     -C44     -C29     : 111.620866  H67     -C44     -H65     : 106.990409
 H67     -C44     -H66     : 105.803560  H68     -C45     -C29     : 114.408735
 H69     -C45     -C29     : 110.845273  H69     -C45     -H68     : 104.751865
 H70     -C45     -C29     : 113.060601  H70     -C45     -H68     : 107.754065
 H70     -C45     -H69     : 105.307259  H71     -C46     -C29     : 113.104886
 H72     -C46     -C29     : 112.428234  H72     -C46     -H71     : 106.623968
 H73     -C46     -C29     : 111.661552  H73     -C46     -H71     : 105.607617
 H73     -C46     -H72     : 106.939787  H74     -C47     -C31     : 111.828585
 H75     -C47     -C31     : 111.518482  H75     -C47     -H74     : 112.679065
 H76     -C47     -C31     : 112.010436  H76     -C47     -H74     : 104.992811
 H76     -C47     -H75     : 103.335760  C47     -H75     -C20     : 158.698950
 
  torsional angles:
 
 P1      -Pd2     -N3      -H15     : 118.070206
 P1      -Pd2     -N3      -C19     :-123.736843
 P1      -Pd2     -C7      -C6      : -92.471975
 P1      -Pd2     -C7      -C8      :  95.268411
 P1      -C27     -C36     -C30     :  -4.196901
 P1      -C27     -C36     -C37     : 177.075137
 P1      -C27     -C40     -C39     :-177.389542
 P1      -C27     -C40     -H55     :   2.236143
 P1      -C28     -C41     -H56     :  62.745441
 P1      -C28     -C41     -H57     :-178.241004
 P1      -C28     -C41     -H58     : -59.475926
 P1      -C28     -C42     -H59     : -63.466808
 P1      -C28     -C42     -H60     :  59.617188
 P1      -C28     -C42     -H61     : 177.905393
 P1      -C28     -C43     -H62     :  59.691857
 P1      -C28     -C43     -H63     : 179.389021
 P1      -C28     -C43     -H64     : -61.477957
 P1      -C29     -C44     -H65     : -56.244855
 P1      -C29     -C44     -H66     :  65.236084
 P1      -C29     -C44     -H67     :-176.459017
 P1      -C29     -C45     -H68     :  67.524846
 P1      -C29     -C45     -H69     :-174.310594
 P1      -C29     -C45     -H70     : -56.333325
 P1      -C29     -C46     -H71     : -58.068377
 P1      -C29     -C46     -H72     :  62.767730
 P1      -C29     -C46     -H73     :-177.027483
 Pd2     -P1      -C27     -C36     : -34.104544
 Pd2     -P1      -C27     -C40     : 144.350159
 Pd2     -P1      -C28     -C41     : -71.933722
 Pd2     -P1      -C28     -C42     :  51.262639
 Pd2     -P1      -C28     -C43     : 167.861372
 Pd2     -P1      -C29     -C44     : -68.004904
 Pd2     -P1      -C29     -C45     : 168.026170
 Pd2     -P1      -C29     -C46     :  48.822869
 Pd2     -N3      -C19     -C18     : -51.800723
 Pd2     -N3      -C19     -C20     : 126.870854
 Pd2     -C7      -C6      -C5      :-170.426335
 Pd2     -C7      -C6      -H12     :   8.763953
 Pd2     -C7      -C8      -C9      : 170.219785
 Pd2     -C7      -C8      -H13     :  -9.118228
 N3      -Pd2     -P1      -C27     :  -0.717124
 N3      -Pd2     -P1      -C28     :-123.633572
 N3      -Pd2     -P1      -C29     : 114.434683
 N3      -Pd2     -C7      -C6      :  63.518765
 N3      -Pd2     -C7      -C8      :-108.740850
 N3      -C19     -C18     -C17     : 179.181174
 N3      -C19     -C18     -H24     :  -1.348812
 N3      -C19     -C20     -C21     :-178.965553
 N3      -C19     -C20     -H25     :  -3.584663
 N3      -C19     -C20     -H75     :  53.742713
 C4      -C5      -C6      -C7      :  -1.151580
 C4      -C5      -C6      -H12     : 179.650279
 C4      -C9      -C8      -C7      :   1.231468
 C4      -C9      -C8      -H13     :-179.421411
 C5      -C4      -C9      -C8      :   0.019196
 C5      -C4      -C9      -H14     : 179.992837
 C5      -C6      -C7      -C8      :   2.287095
 C6      -C5      -C4      -C9      :  -0.062202
 C6      -C5      -C4      -F10     :-178.863020
 C6      -C7      -C8      -C9      :  -2.323734
 C6      -C7      -C8      -H13     : 178.338253
 C7      -Pd2     -P1      -C27     : 176.233180
 C7      -Pd2     -P1      -C28     :  53.316732
 C7      -Pd2     -P1      -C29     : -68.615013
 C7      -Pd2     -N3      -H15     : -38.011455
 C7      -Pd2     -N3      -C19     :  80.181496
 C7      -C6      -C5      -H11     : 178.990887
 C7      -C8      -C9      -H14     :-178.741977
 C8      -C7      -C6      -H12     :-178.522617
 C8      -C9      -C4      -F10     : 178.832285
 C9      -C4      -C5      -H11     : 179.796551
 F10     -C4      -C5      -H11     :   0.995733
 F10     -C4      -C9      -H14     :  -1.194075
 H11     -C5      -C6      -H12     :  -0.207255
 H13     -C8      -C9      -H14     :   0.605144
 H15     -N3      -C19     -C18     :  65.576564
 H15     -N3      -C19     -C20     :-115.751860
 C16     -C17     -C18     -C19     :  -0.410433
 C16     -C17     -C18     -H24     :-179.878423
 C16     -C21     -C20     -C19     :  -0.119206
 C16     -C21     -C20     -H25     :-175.595809
 C16     -C21     -C20     -H75     : 101.806425
 C17     -C16     -C21     -C20     :   0.246803
 C17     -C16     -C21     -H26     :-179.856468
 C17     -C18     -C19     -C20     :   0.538335
 C18     -C17     -C16     -C21     :   0.017867
 C18     -C17     -C16     -H22     : 179.989561
 C18     -C19     -C20     -C21     :  -0.273081
 C18     -C19     -C20     -H25     : 175.107809
 C18     -C19     -C20     -H75     :-127.564815
 C19     -C18     -C17     -H23     : 179.600388
 C19     -C20     -C21     -H26     : 179.983719
 C19     -C20     -H75     -C47     :  94.378555
 C20     -C19     -C18     -H24     :-179.991651
 C20     -C21     -C16     -H22     :-179.724986
 C20     -H75     -C47     -C31     :-141.784591
 C20     -H75     -C47     -H74     :  91.492418
 C20     -H75     -C47     -H76     : -21.288262
 C21     -C16     -C17     -H23     :-179.992939
 C21     -C20     -H75     -C47     : -26.137569
 H22     -C16     -C17     -H23     :  -0.021245
 H22     -C16     -C21     -H26     :   0.171744
 H23     -C17     -C18     -H24     :   0.132398
 H25     -C20     -C21     -H26     :   4.507115
 H25     -C20     -H75     -C47     :-136.720001
 H26     -C21     -C20     -H75     : -78.090650
 C27     -P1      -C28     -C41     : 162.377485
 C27     -P1      -C28     -C42     : -74.426154
 C27     -P1      -C28     -C43     :  42.172579
 C27     -P1      -C29     -C44     :  49.146179
 C27     -P1      -C29     -C45     : -74.822747
 C27     -P1      -C29     -C46     : 165.973953
 C27     -C36     -C30     -C31     : 116.875470
 C27     -C36     -C30     -C35     : -64.845432
 C27     -C36     -C37     -C38     :   0.384631
 C27     -C36     -C37     -H52     : 177.500873
 C27     -C40     -C39     -C38     :  -0.408704
 C27     -C40     -C39     -H54     : 179.585652
 C28     -P1      -C27     -C36     :  98.144143
 C28     -P1      -C27     -C40     : -83.401154
 C28     -P1      -C29     -C44     : 161.761956
 C28     -P1      -C29     -C45     :  37.793031
 C28     -P1      -C29     -C46     : -81.410270
 C29     -P1      -C27     -C36     :-146.664355
 C29     -P1      -C27     -C40     :  31.790348
 C29     -P1      -C28     -C41     :  47.684218
 C29     -P1      -C28     -C42     : 170.880580
 C29     -P1      -C28     -C43     : -72.520687
 C30     -C31     -C32     -C33     :   0.236721
 C30     -C31     -C32     -H48     : 179.508418
 C30     -C31     -C47     -H74     :  84.662466
 C30     -C31     -C47     -H75     : -42.523118
[...]
    H22      Z    -0.01339  -0.00398  -0.41155   0.00022  -0.00017  -0.00020
    H23      X    -0.00134   0.00158   0.17967  -0.00016   0.00010  -0.00021
    H23      Y     0.00271  -0.00422  -0.47592   0.00046  -0.00027   0.00038
    H23      Z     0.00237  -0.00318  -0.35934   0.00037  -0.00020   0.00049
    H24      X     0.00535  -0.00047  -0.06975   0.00106  -0.00008  -0.00059
    H24      Y     0.00829  -0.00076  -0.11457   0.00188  -0.00012  -0.00547
    H24      Z    -0.00025  -0.00001   0.00114  -0.00012  -0.00001   0.00006
    H25      X    -0.01223  -0.00079  -0.08491  -0.00003  -0.00005  -0.00013
    H25      Y     0.03087   0.00197   0.21193   0.00007   0.00014  -0.00080
    H25      Z     0.02428   0.00154   0.16768   0.00007   0.00009   0.00035
    H26      X     0.00814   0.00079   0.10140   0.00001   0.00011   0.00024
    H26      Y     0.01796   0.00178   0.22811   0.00001   0.00023  -0.00043
    H26      Z    -0.00244  -0.00022  -0.02867   0.00000  -0.00003  -0.00018
    C27      X    -0.00000   0.00007   0.00001  -0.00001  -0.00066  -0.00004
    C27      Y     0.00001   0.00012   0.00001  -0.00003   0.00024  -0.00002
    C27      Z    -0.00001   0.00009   0.00003  -0.00011   0.00249  -0.00005
    C28      X     0.00001   0.00001  -0.00002  -0.00011   0.00005   0.00002
    C28      Y    -0.00007  -0.00002   0.00001   0.00004   0.00003  -0.00001
    C28      Z     0.00005   0.00001   0.00001   0.00001  -0.00009  -0.00003
    C29      X    -0.00001   0.00002  -0.00000   0.00001   0.00021  -0.00002
    C29      Y     0.00000   0.00003  -0.00002  -0.00001   0.00009   0.00004
    C29      Z    -0.00001   0.00001   0.00002   0.00002  -0.00003  -0.00006
    C30      X     0.00001  -0.00011  -0.00000  -0.00181  -0.00002  -0.00019
    C30      Y     0.00001  -0.00008  -0.00001   0.00176  -0.00001   0.00049
    C30      Z     0.00000  -0.00000  -0.00001   0.00175   0.00005  -0.00027
    C31      X    -0.00001  -0.00004   0.00002  -0.00045   0.00001   0.00010
    C31      Y     0.00019   0.00007  -0.00001   0.00022  -0.00002   0.00011
    C31      Z     0.00056   0.00009  -0.00002  -0.00030  -0.00002  -0.00031
    C32      X    -0.00807  -0.00034   0.00057  -0.00099   0.00002   0.00027
    C32      Y     0.00392   0.00016  -0.00026   0.00044  -0.00000   0.00049
    C32      Z    -0.00422  -0.00021   0.00024  -0.00059   0.00002   0.00046
    C33      X    -0.00398  -0.00012   0.00018  -0.00100   0.00000   0.00000
    C33      Y    -0.00762  -0.00025   0.00040  -0.00002   0.00000   0.00007
    C33      Z    -0.02908  -0.00091   0.00140  -0.00194   0.00002   0.00011
    C34      X     0.02545   0.00085  -0.00123   0.00771  -0.00002   0.00001
    C34      Y    -0.02164  -0.00070   0.00106  -0.00769   0.00002  -0.00003
    C34      Z    -0.01398  -0.00048   0.00061  -0.00770   0.00001   0.00018
    C35      X    -0.00404  -0.00027   0.00025   0.06344   0.00008   0.00011
    C35      Y     0.00222   0.00017  -0.00012  -0.02729  -0.00004  -0.00021
    C35      Z    -0.00123  -0.00007   0.00013   0.04435   0.00005  -0.00023
    C36      X    -0.00002   0.00104  -0.00001   0.00016   0.00043   0.00002
    C36      Y    -0.00001   0.00058  -0.00000  -0.00016   0.00044  -0.00004
    C36      Z     0.00006  -0.00094  -0.00001  -0.00003   0.00030  -0.00000
    C37      X     0.00036  -0.01809   0.00012  -0.00011   0.00071   0.00000
    C37      Y     0.00040  -0.02015   0.00014  -0.00013   0.00083   0.00000
    C37      Z     0.00035  -0.01806   0.00014  -0.00028   0.00080   0.00003
    C38      X     0.00087  -0.04874   0.00041  -0.00008   0.00171   0.00001
    C38      Y     0.00057  -0.03158   0.00027  -0.00003   0.00139   0.00000
    C38      Z    -0.00058   0.03234  -0.00027   0.00012  -0.00022  -0.00003
    C39      X     0.00007  -0.00332   0.00003  -0.00002   0.00346   0.00001
    C39      Y    -0.00021   0.01084  -0.00009  -0.00001  -0.00119   0.00001
    C39      Z    -0.00082   0.04251  -0.00037   0.00002  -0.01264   0.00000
    C40      X     0.00001  -0.00279   0.00004   0.00005  -0.04941   0.00003
    C40      Y     0.00003  -0.00368   0.00005   0.00005  -0.05149   0.00003
    C40      Z     0.00005  -0.00475   0.00006   0.00004  -0.03929   0.00002
    C41      X     0.00000   0.00002  -0.00002   0.00004  -0.00001   0.00001
    C41      Y    -0.00008   0.00001  -0.00001  -0.00000   0.00001  -0.00000
    C41      Z    -0.00043   0.00004  -0.00004   0.00002  -0.00004  -0.00000
    C42      X     0.00000   0.00004  -0.00003   0.00005  -0.00002  -0.00003
    C42      Y    -0.00008  -0.00001   0.00003  -0.00013   0.00004  -0.00001
    C42      Z     0.00116   0.00002  -0.00013   0.00062  -0.00011  -0.00001
    C43      X    -0.00001   0.00018  -0.00002  -0.00001   0.00108  -0.00002
    C43      Y    -0.00014  -0.00018  -0.00001   0.00001   0.00012   0.00000
    C43      Z    -0.00005  -0.00010  -0.00002   0.00002  -0.00043   0.00001
    C44      X    -0.00002   0.00006   0.00003   0.00001   0.00031   0.00001
    C44      Y    -0.00000   0.00010   0.00001   0.00001   0.00025   0.00002
    C44      Z    -0.00006  -0.00002   0.00016   0.00001  -0.00025   0.00001
    C45      X     0.00001   0.00064  -0.00005  -0.00001   0.00162   0.00000
    C45      Y    -0.00004   0.00031  -0.00001   0.00002   0.00077  -0.00003
    C45      Z     0.00003  -0.00053   0.00001  -0.00001  -0.00197   0.00002
    C46      X     0.00007   0.00001   0.00008  -0.00001  -0.00010  -0.00000
    C46      Y     0.00000   0.00002  -0.00001  -0.00001   0.00001   0.00002
    C46      Z     0.00006  -0.00001   0.00011  -0.00003  -0.00017   0.00002
    C47      X    -0.00013  -0.00017   0.00006   0.00000   0.00004   0.00042
    C47      Y     0.00003  -0.00018   0.00003   0.00004   0.00003   0.00010
    C47      Z    -0.00011   0.00002   0.00003   0.00009  -0.00000  -0.00047
    H48      X     0.08167   0.00373  -0.00543   0.00927  -0.00030  -0.00076
    H48      Y    -0.03580  -0.00158   0.00235  -0.00407   0.00012   0.00004
    H48      Z     0.05460   0.00260  -0.00360   0.00623  -0.00025  -0.00061
    H49      X     0.03621   0.00114  -0.00166   0.00274  -0.00004  -0.00005
    H49      Y     0.08815   0.00276  -0.00410   0.00399  -0.00008  -0.00056
    H49      Z     0.31854   0.01004  -0.01496   0.01661  -0.00027  -0.00135
    H50      X    -0.28209  -0.00938   0.01334  -0.08772   0.00032   0.00053
    H50      Y     0.23991   0.00804  -0.01148   0.07691  -0.00027  -0.00049
    H50      Z     0.16744   0.00568  -0.00790   0.05718  -0.00022  -0.00023
    H51      X     0.04787   0.00344  -0.00310  -0.73321  -0.00108   0.00032
    H51      Y    -0.02094  -0.00161   0.00135   0.30954   0.00043  -0.00028
    H51      Z     0.03165   0.00230  -0.00204  -0.50876  -0.00070   0.00021
    H52      X    -0.00428   0.21106  -0.00145   0.00165  -0.00763   0.00014
    H52      Y    -0.00454   0.22372  -0.00154   0.00155  -0.00820   0.00014
    H52      Z    -0.00346   0.17355  -0.00123   0.00139  -0.00638  -0.00005
    H53      X    -0.00959   0.53731  -0.00455   0.00114  -0.01354  -0.00009
    H53      Y    -0.00620   0.34686  -0.00293   0.00067  -0.00906  -0.00004
    H53      Z     0.00640  -0.35993   0.00305  -0.00082   0.00781   0.00009
    H54      X    -0.00110   0.05752  -0.00052   0.00002  -0.01827   0.00006
    H54      Y     0.00193  -0.10134   0.00090  -0.00006   0.02401   0.00002
    H54      Z     0.00896  -0.46743   0.00416  -0.00025   0.12324  -0.00006
    H55      X    -0.00044   0.05057  -0.00077  -0.00067   0.57280  -0.00007
    H55      Y    -0.00051   0.05376  -0.00082  -0.00072   0.59680   0.00001
    H55      Z    -0.00045   0.04377  -0.00065  -0.00065   0.45562   0.00008
    H56      X    -0.00024   0.00004  -0.00005  -0.00002  -0.00024   0.00007
    H56      Y    -0.00054   0.00004  -0.00004   0.00007  -0.00021  -0.00002
    H56      Z     0.00460  -0.00034   0.00032  -0.00031   0.00106   0.00023
    H57      X    -0.00015  -0.00036   0.00026  -0.00003   0.00054  -0.00007
    H57      Y     0.00002   0.00023  -0.00018   0.00014  -0.00028   0.00007
    H57      Z    -0.00014  -0.00011   0.00008  -0.00000   0.00008  -0.00006
    H58      X     0.00033  -0.00002   0.00003  -0.00029  -0.00002   0.00002
    H58      Y     0.00180  -0.00033   0.00026  -0.00066   0.00001  -0.00001
    H58      Z     0.00081  -0.00017   0.00013  -0.00024  -0.00007  -0.00004
    H59      X     0.00113   0.00001  -0.00020   0.00286  -0.00017  -0.00011
    H59      Y    -0.00017  -0.00001  -0.00001   0.00177   0.00003  -0.00015
    H59      Z    -0.01482  -0.00013   0.00149  -0.00168   0.00128   0.00046
    H60      X     0.00010  -0.00014   0.00009   0.00743  -0.00034   0.00042
    H60      Y    -0.00009  -0.00021   0.00009   0.00407  -0.00010   0.00024
    H60      Z     0.00006   0.00005  -0.00007   0.00268  -0.00001  -0.00026
    H61      X    -0.00213  -0.00050   0.00052   0.00010   0.00057   0.00005
    H61      Y     0.00142   0.00033  -0.00037  -0.00048  -0.00035   0.00004
    H61      Z    -0.00074  -0.00021   0.00025   0.00023   0.00021  -0.00001
    H62      X     0.00005   0.00008  -0.00002  -0.00000  -0.00060  -0.00000
    H62      Y     0.00167   0.00235   0.00019  -0.00048   0.00651  -0.00006
    H62      Z     0.00110   0.00128   0.00009  -0.00043   0.00288  -0.00002
    H63      X    -0.00056  -0.00172   0.00030   0.00015  -0.00521  -0.00003
    H63      Y     0.00029   0.00097  -0.00021  -0.00009   0.00258   0.00004
    H63      Z    -0.00032  -0.00042   0.00016   0.00013  -0.00071  -0.00010
    H64      X     0.00053  -0.00084   0.00014   0.00015  -0.01085   0.00015
    H64      Y     0.00022  -0.00098   0.00012   0.00011  -0.00839   0.00012
    H64      Z    -0.00021   0.00047  -0.00007  -0.00010   0.00373  -0.00008
    H65      X    -0.00004  -0.00067   0.00043  -0.00007  -0.00350   0.00002
    H65      Y    -0.00002  -0.00008   0.00025  -0.00003  -0.00100  -0.00005
    H65      Z     0.00002   0.00057  -0.00051   0.00012   0.00271   0.00011
    H66      X     0.00030  -0.00016  -0.00071  -0.00004  -0.00055  -0.00022
    H66      Y     0.00018  -0.00004  -0.00044  -0.00002  -0.00030  -0.00025
    H66      Z     0.00081  -0.00025  -0.00155  -0.00018  -0.00008  -0.00051
    H67      X    -0.00004  -0.00010   0.00001  -0.00000  -0.00025   0.00012
    H67      Y     0.00002  -0.00106   0.00014  -0.00008  -0.00148   0.00004
    H67      Z    -0.00001  -0.00009   0.00007  -0.00002   0.00002   0.00012
    H68      X     0.00031  -0.00580   0.00025  -0.00004  -0.02575   0.00012
    H68      Y     0.00023  -0.00486   0.00019  -0.00001  -0.02387   0.00011
    H68      Z    -0.00039   0.00739  -0.00037   0.00006   0.02890  -0.00020
    H69      X    -0.00002   0.00017  -0.00001   0.00003   0.00108  -0.00007
    H69      Y     0.00011  -0.00143   0.00033  -0.00006  -0.00147  -0.00017
    H69      Z     0.00000  -0.00031   0.00010   0.00003  -0.00129  -0.00017
    H70      X    -0.00032  -0.00304   0.00043   0.00011  -0.00513   0.00008
    H70      Y     0.00007   0.00111  -0.00016  -0.00001   0.00276  -0.00000
    H70      Z    -0.00002  -0.00042   0.00005   0.00001  -0.00152   0.00005
    H71      X    -0.00031   0.00007  -0.00042   0.00015   0.00083  -0.00033
    H71      Y     0.00001   0.00004  -0.00034  -0.00001   0.00017   0.00005
    H71      Z    -0.00066   0.00009  -0.00137   0.00033   0.00127  -0.00025
    H72      X    -0.00054  -0.00014  -0.00054  -0.00001  -0.00021   0.00031
    H72      Y     0.00023   0.00007   0.00020   0.00001  -0.00004  -0.00006
    H72      Z     0.00008   0.00002  -0.00011  -0.00003   0.00008   0.00009
    H73      X     0.00000  -0.00006   0.00007   0.00001   0.00001  -0.00002
    H73      Y    -0.00021  -0.00048   0.00026   0.00011  -0.00002  -0.00029
    H73      Z    -0.00008  -0.00007   0.00017   0.00006   0.00008  -0.00013
    H74      X     0.00056   0.00190  -0.00032   0.00055  -0.00038  -0.00080
    H74      Y     0.00027   0.00101  -0.00023   0.00011  -0.00026   0.00021
    H74      Z    -0.00061  -0.00118   0.00028  -0.00032   0.00034   0.00095
    H75      X     0.00029   0.00050  -0.00018  -0.00022  -0.00005   0.00031
    H75      Y    -0.00001   0.00097  -0.00029  -0.00057  -0.00021   0.00072
    H75      Z     0.00006   0.00074  -0.00030  -0.00043  -0.00012   0.00055
    H76      X     0.00105   0.00018  -0.00020   0.00025  -0.00011   0.00081
    H76      Y    -0.00094   0.00014   0.00021  -0.00020   0.00004  -0.00033
    H76      Z     0.00116  -0.00008  -0.00028  -0.00016  -0.00011   0.00024
  
  Number of imaginary frequencies:   0
   
  Writing vibrational animation data to red_elim_L_trans_L1_PL154.vib
  Writing IR vibrational spectrum data to red_elim_L_trans_L1_PL154_vib.spm
  rotational symmetry number:  1

  rotational temperatures (K):      0.006393      0.004430      0.003896
   
  The Quasi-Harmonic approximation will be applied to compute
  vibrational constributions to thermodynamic properties.
  Frequencies will be adjusted to a minimum value of  100.00 cm^-1.

  vibrational temperatures:
       mode:      1        2        3        4        5        6
  temp. (K):   143.88   143.88   143.88   143.88   143.88   143.88
   
       mode:      7        8        9       10       11       12
  temp. (K):   143.88   143.88   143.88   143.92   152.15   163.24
   
       mode:     13       14       15       16       17       18
  temp. (K):   165.45   185.89   191.16   203.93   215.29   222.43
   
       mode:     19       20       21       22       23       24
  temp. (K):   229.78   243.86   257.61   270.19   295.58   308.86
   
       mode:     25       26       27       28       29       30
  temp. (K):   316.40   340.16   346.52   367.46   373.89   377.67
   
       mode:     31       32       33       34       35       36
  temp. (K):   386.71   393.59   396.68   414.26   426.20   444.95
   
       mode:     37       38       39       40       41       42
  temp. (K):   457.56   471.64   484.31   497.08   502.22   511.63
   
       mode:     43       44       45       46       47       48
  temp. (K):   525.59   565.25   585.39   589.33   595.36   600.25
   
       mode:     49       50       51       52       53       54
  temp. (K):   605.41   613.28   621.18   635.81   640.32   677.62
   
       mode:     55       56       57       58       59       60
  temp. (K):   703.65   738.20   749.08   755.41   763.36   779.05
   
       mode:     61       62       63       64       65       66
  temp. (K):   782.78   820.91   831.34   834.58   849.35   878.82
   
       mode:     67       68       69       70       71       72
  temp. (K):   890.27   913.83   916.43   987.63  1029.84  1036.27
   
       mode:     73       74       75       76       77       78
  temp. (K):  1074.98  1086.39  1106.30  1114.17  1124.60  1144.91
   
       mode:     79       80       81       82       83       84
  temp. (K):  1175.12  1183.23  1190.67  1195.14  1196.70  1198.86
   
       mode:     85       86       87       88       89       90
  temp. (K):  1200.35  1207.03  1246.14  1286.69  1298.41  1310.42
   
       mode:     91       92       93       94       95       96
  temp. (K):  1362.35  1374.88  1379.11  1382.22  1388.96  1392.47
   
       mode:     97       98       99      100      101      102
  temp. (K):  1398.32  1408.81  1422.21  1427.04  1428.17  1428.35
   
       mode:    103      104      105      106      107      108
  temp. (K):  1450.40  1452.25  1466.21  1473.15  1474.51  1482.95
   
       mode:    109      110      111      112      113      114
  temp. (K):  1495.53  1507.73  1518.85  1521.98  1528.55  1535.94
   
       mode:    115      116      117      118      119      120
  temp. (K):  1545.30  1552.10  1563.46  1581.96  1598.14  1616.47
   
       mode:    121      122      123      124      125      126
  temp. (K):  1663.87  1673.92  1719.85  1723.72  1736.45  1737.20
   
       mode:    127      128      129      130      131      132
  temp. (K):  1739.47  1741.47  1744.34  1752.20  1773.94  1775.83
   
       mode:    133      134      135      136      137      138
  temp. (K):  1781.25  1797.26  1802.04  1838.08  1846.77  1871.64
   
       mode:    139      140      141      142      143      144
  temp. (K):  1901.49  1909.84  1921.45  1923.59  1932.97  1952.72
   
       mode:    145      146      147      148      149      150
  temp. (K):  1975.85  2018.42  2045.23  2052.07  2052.85  2054.58
   
       mode:    151      152      153      154      155      156
  temp. (K):  2067.35  2080.36  2098.13  2111.71  2112.85  2142.34
   
       mode:    157      158      159      160      161      162
  temp. (K):  2143.36  2162.54  2165.28  2170.92  2173.15  2176.56
   
       mode:    163      164      165      166      167      168
  temp. (K):  2184.12  2187.26  2189.76  2190.58  2199.04  2200.39
   
       mode:    169      170      171      172      173      174
  temp. (K):  2202.90  2209.35  2216.02  2218.25  2220.17  2241.20
   
       mode:    175      176      177      178      179      180
  temp. (K):  2243.61  2291.13  2332.19  2352.64  2356.47  2372.33
   
       mode:    181      182      183      184      185      186
  temp. (K):  2381.44  2398.64  2402.04  4359.25  4379.65  4380.31
   
       mode:    187      188      189      190      191      192
  temp. (K):  4384.03  4388.80  4392.23  4400.14  4470.95  4476.17
   
       mode:    193      194      195      196      197      198
  temp. (K):  4490.87  4493.16  4499.91  4500.38  4502.82  4513.16
   
       mode:    199      200      201      202      203      204
  temp. (K):  4528.36  4541.58  4546.92  4565.80  4572.73  4573.52
   
       mode:    205      206      207      208      209      210
  temp. (K):  4575.04  4577.86  4581.88  4584.21  4585.80  4594.22
   
       mode:    211      212      213      214      215      216
  temp. (K):  4596.21  4601.12  4601.32  4609.36  4616.84  4617.80
   
       mode:    217      218      219      220      221      222
  temp. (K):  4619.18  4622.26  4627.57  4690.61  4693.92  5027.65
   
   
  Thermodynamic properties calculated assuming an ideal gas

  In the table below, the units for temperature
  are kelvins, the units for U, H, and G are
  kcal/mol and the units for Cv and S are cal/(mol K)

  The zero point energy (ZPE):    403.507 kcal/mol
  is not included in U, H, or G in the table below
  
 
  =============================================================================
  Thermodynamic properties for P = 1.00E+00 atm, calculated at   1 temperatures


  T =   298.15 K, P = 1.00E+00 atm
   
                  U         Cv          S          H          G        ln(Q)
              =========  =========  =========  =========  =========  =========
  trans.          0.889      2.981     45.085      1.481    -11.961   20.18742
  rot.            0.889      2.981     37.019      0.889    -10.148   17.12862
  vib.           21.033    141.334    125.578     21.033    -16.408   27.69399
  elec.           0.000      0.000      0.000      0.000      0.000    0.00000
  ----------------------------------------------------------------------------
  total          22.810    147.296    207.681     23.403    -38.518   65.01004
   
   Total internal energy, Utot(SCFE + ZPE + U):   -1902.601101 hartrees
   Total enthalpy, Htot (Utot + nRT), with n=1:   -1902.600157 hartrees
    Total Gibbs free energy, Gtot (Htot - T*S):   -1902.698833 hartrees
   
  end of program freq
   
 Time(freq)  user:       0.344  user+sys:       0.344  wallclock:       0.584
  
  start of program post
  
  Writing input files for PBF
  end of program post
   
 Time(post)  user:       0.177  user+sys:       0.177  wallclock:       0.331

 Total cpu seconds     user:   91989.128   user+sys:   91989.128
  
 Total elapsed time:    53916 seconds

Job red_elim_L_trans_L1_PL154 completed on bp1-compute145.data.bp.acrc.priv at Sat Mar 22 04:05:06 2025
