Job red_elim_TS_L1_PL154_4 started on bp1-compute054.data.bp.acrc.priv at Mon Apr 14 15:38:07 2025
jobid: bp1-compute054-0-67fd1dc6

  +--------------------------------------------------------------------+
  |  Jaguar version 12.5, release 138                                  |
  |                                                                    |
  |  Copyright Schrodinger, Inc.                                       |
  |  All Rights Reserved.                                              |
  |                                                                    |
  |  The following have contributed to Jaguar (listed alphabetically): |
  |  Ty Balduf, Mike Beachy, Chandler Bennett, Art Bochevarov,         |
  |  Dale Braden, Yixiang Cao, Alan Chien, Chris Cortis,               |
  |  Rich Friesner, Jim Furness, Bill Goddard, Hod Greeley,            |
  |  Tom Hughes, Leif Jacobson, Jean-Marc Langlois, Daniel Levine,     |
  |  Rob Murphy, Dean Philipp, Tom Pollard, Murco Ringnalda,           |
  |  Daniel Mainz, Pablo Videla, Mark Watson, Haoyu Yu.                |
  |                                                                    |
  |  Use of this program should be acknowledged in publications as:    |
  |                                                                    |
  |  Jaguar, version 12.5, Schrodinger, Inc., New York, NY, 2024.      |
  |                                                                    |
  |  A. D. Bochevarov, E. Harder, T. F. Hughes, J. R. Greenwood,       |
  |  D. A. Braden, D. M. Philipp, D. Rinaldo, M. D. Halls,             |
  |  J. Zhang, R. A. Friesner, "Jaguar: A High-Performance Quantum     |
  |  Chemistry Software Program with Strengths in Life and Materials   |
  |  Sciences", Int. J. Quantum Chem., 2013, 113(18), 2110-2142.       |
  +--------------------------------------------------------------------+
  
  start of program pre
  
  Job name: red_elim_TS_L1_PL154_4
  Executables used: /software/local/apps/schrodinger2024-3/jaguar-v12.5/bin/Linux-x86_64
  Temporary files : /tmp/ar21627/red_elim_TS_L1_PL154_4#bp1-compute054-0-67fd1dc6
  Basis file : using default basis file from /software/local/apps/schrodinger2024-3
  Maestro file (input):  red_elim_TS_L1_PL154_4.mae
  Maestro file (output): red_elim_TS_L1_PL154_4.01.mae
  
 Contents of input file: &gen and (if present) &atomic sections only
 ----------------Contents start----------------
&gen
dftname=b3pw91-d3
basis=6-31G*
numd=5
ip11=2
iaccg=3
isolv=2
igeopt=2
solvent=benzene
ifreq=1
&
&atomic
atom basis
Pd2 lacv3p*
&
 -----------------Contents end-----------------
 
  PS calculation requested. Using PS version of 6-31g*
  basis set:               non_standard                    
  net molecular charge:    0
  multiplicity:            1
  
  Using up to   4 threads per process
  
  This run will use ECP on 1 atom
  number of basis functions....          617
  
 Input geometry:
                                   angstroms
  atom               x                 y                 z
  P1            0.0000000000      0.0000000000      0.0000000000 
  Pd2           0.0000000000      0.0000000000      2.2771142511 
  N2           -0.5416660600     -0.0886304895      4.2404988086 
  C16          -4.7424177887     -0.5930401267      2.6796281959 
  C17          -4.1708876589      0.6801762721      2.7590409048 
  C18          -2.7926073314      0.8601617320      2.8848209682 
  C19          -1.9290235531     -0.2459465217      2.9253069761 
  C20          -2.4964754708     -1.5309201501      2.8565117412 
  C21          -3.8744852052     -1.6916022391      2.7302379925 
  F10          -6.0583668141     -0.7658398852      2.5559050935 
  H23          -4.8145273576      1.5593109015      2.7211614126 
  H24          -2.3941663659      1.8695973334      2.9385598605 
  H25          -1.8612884886     -2.4119716363      2.8883713523 
  H26          -4.2839715331     -2.7004817593      2.6702710945 
  H18          -0.8437463443      0.7841300090      4.8380242173 
  C22          -0.8404121951     -3.7056092589      6.4730850531 
  C23          -0.5020531295     -3.7472624070      5.1105020619 
  C24          -0.4035814719     -2.5550464974      4.3746047813 
  C25          -0.6434688797     -1.3211774397      5.0012904920 
  C26          -0.9818209341     -1.2794394062      6.3638210876 
  C27          -1.0802996029     -2.4717402012      7.0997707638 
  H22          -0.9177732681     -4.6422351291      7.0512189509 
  H27          -0.3136091291     -4.7167166796      4.6182603812 
  H28          -0.1377693678     -2.5877900130      3.3041768120 
  H29          -1.1702481967     -0.3101224542      6.8560333926 
  H30          -1.3461116875     -2.4389966843      8.1701987379 
  C3            1.8168740000      0.0000000000     -0.5778410000 
  C4           -0.8434890000      1.4252840000     -0.9715180000 
  C5           -0.8972560000     -1.6587410000     -0.3454820000 
  C6            3.2784897937      0.1569909581      1.5615915572 
  C7            3.5832833521     -0.8615492727      2.5230810414 
  C8            3.7780795850     -0.5310502913      3.8832663584 
  C9            3.6882620854      0.7701536374      4.3847248021 
  C10           3.3879744922      1.7824858920      3.4764250056 
  C11           3.2022623649      1.4414804684      2.1315338031 
  C12           3.0642473908      0.0375157615      0.1425452196 
  C13           4.2111673271     -0.0368554033     -0.6841158485 
  C14           4.2265826521     -0.1337234686     -2.0805107123 
  C15           3.0122188862     -0.1534804982     -2.7581951927 
  C40           1.8522672145     -0.0825723103     -1.9846093732 
  C41          -2.3917700000      1.4641300000     -0.9448800000 
  C42          -0.3788420000      2.8361950000     -0.5323130000 
  C43          -0.4455240000      1.3408580000     -2.4674050000 
  C44          -0.0177960000     -2.8755410000      0.0296550000 
  C45          -1.4453590000     -1.9535040000     -1.7679970000 
  C46          -2.1262300000     -1.7392700000      0.5941800000 
  C47           3.6516163382     -2.3540521758      2.2746433593 
  H48           4.0060462746     -1.3182919580      4.6211117156 
  H49           3.8447121871      0.9906871838      5.4540771843 
  H50           3.3072977977      2.8304843386      3.8120946295 
  H51           3.0111063038      2.2954830512      1.4948981972 
  H52           5.2235395658      0.0222462889     -0.2876446030 
  H53           5.1753680426     -0.1788508095     -2.6428788483 
  H54           2.9726304717     -0.2200924711     -3.8587792141 
  H31           0.9260864216     -0.0981802398     -2.5624616420 
  H32          -2.8081380000      1.6140360000      0.0705490000 
  H33          -2.7931410000      2.3029860000     -1.5580800000 
  H34          -2.8583580000      0.5482850000     -1.3582140000 
  H35          -0.6553110000      3.0576040000      0.5218020000 
  H36           0.7195950000      2.9676930000     -0.6585650000 
  H37          -0.8498760000      3.6399150000     -1.1432090000 
  H38          -0.7462210000      0.3798070000     -2.9348810000 
  H39          -0.9210170000      2.1442960000     -3.0752880000 
  H40           0.6524840000      1.4549820000     -2.6096750000 
  H41           0.9648250000     -2.8622550000     -0.4905250000 
  H42           0.1711760000     -2.9295420000      1.1223420000 
  H43          -0.5069560000     -3.8419160000     -0.2300880000 
  H44          -0.6634350000     -2.0908620000     -2.5422720000 
  H45          -2.0275400000     -2.9029450000     -1.7892070000 
  H46          -2.1492470000     -1.1796830000     -2.1325550000 
  H47          -1.8356470000     -1.6862910000      1.6668530000 
  H72          -2.8513880000     -0.9189660000      0.4051340000 
  H73          -2.6842430000     -2.6960970000      0.4765580000 
  H74           4.6516877738     -2.6659343142      1.8960056883 
  H75           2.8125805075     -2.7085067996      1.6340126318 
  H76           3.5025074369     -2.9453172635      3.2062378454 
   
  principal moments of inertia:
        amu*angstrom^2:              4084.07556              5544.00533              7633.27292
                g*cm^2:          6.78176618E-37          9.20603629E-37          1.26753463E-36
   
  rotational constants:
               cm^(-1):      0.00412765      0.00304069      0.00220844
                   GHz:      0.12374379      0.09115774      0.06620738
   
  Molecular weight:     605.18 amu
   
  Stoichiometry: PdC33PNH39F
  Molecular Point Group: C1      
  Point Group used: C1
  
 
Number of optimization coordinates:   256
Number of independent coordinates:    256
Number of non-redundant coordinates:  222
Number of frozen coordinates:           0
Number of harmonic constraints:         0
 
Number of geometric degrees of freedom:   222
Maximum geometric degrees of freedom:     222
 " " " " " excluding dummy atoms:         222
 
 
  bond lengths (angstroms):
 
 P1      -Pd2     :   2.277114      P1      -C3      :   1.906550
 P1      -C4      :   1.920093      P1      -C5      :   1.917250
 Pd2     -N2      :   2.038660      Pd2     -C19     :   2.049823
 N2      -H18     :   1.100000      N2      -C25     :   1.452012
 C16     -C17     :   1.397867      C16     -C21     :   1.400966
 C16     -F10     :   1.333000      C17     -C18     :   1.395662
 C17     -H23     :   1.090222      C18     -C19     :   1.403884
 C18     -H24     :   1.086556      C19     -C20     :   1.406375
 C20     -C21     :   1.393081      C20     -H25     :   1.086614
 C21     -H26     :   1.090465      C22     -C23     :   1.404583
 C22     -C27     :   1.404533      C22     -H22     :   1.103400
 C23     -C24     :   1.404500      C23     -H27     :   1.103474
 C24     -C25     :   1.404533      C24     -H28     :   1.103424
 C25     -C26     :   1.404533      C26     -C27     :   1.404600
 C26     -H29     :   1.103337      C27     -H30     :   1.103424
 C3      -C12     :   1.440939      C3      -C40     :   1.409634
 C4      -C41     :   1.548997      C4      -C42     :   1.549022
 C4      -C43     :   1.550220      C5      -C44     :   1.547508
 C5      -C45     :   1.552692      C5      -C46     :   1.549137
 C6      -C7      :   1.433452      C6      -C11     :   1.407323
 C6      -C12     :   1.440093      C7      -C8      :   1.413251
 C7      -C47     :   1.514581      C8      -C9      :   1.397376
 C8      -H48     :   1.102785      C9      -C10     :   1.392838
 C9      -H49     :   1.103008      C10     -C11     :   1.399824
 C10     -H50     :   1.103396      C11     -H51     :   1.082204
 C12     -C13     :   1.415742      C13     -C14     :   1.399836
 C13     -H52     :   1.088843      C14     -C15     :   1.390800
 C14     -H53     :   1.103851      C15     -C40     :   1.396048
 C15     -H54     :   1.103308      C40     -H31     :   1.091773
 C41     -H32     :   1.107669      C41     -H33     :   1.113909
 C41     -H34     :   1.107845      C42     -H35     :   1.112032
 C42     -H36     :   1.113461      C42     -H37     :   1.114017
 C43     -H38     :   1.110212      C43     -H39     :   1.114059
 C43     -H40     :   1.113053      C44     -H41     :   1.111894
 C44     -H42     :   1.110221      C44     -H43     :   1.113833
 C45     -H44     :   1.108952      C45     -H45     :   1.113922
 C45     -H46     :   1.107772      C46     -H47     :   1.112597
 C46     -H72     :   1.111077      C46     -H73     :   1.113881
 C47     -H74     :   1.113903      C47     -H75     :   1.113565
 C47     -H76     :   1.113416
 
  bond angles:
 
 C3      -P1      -Pd2     : 107.642814  C4      -P1      -Pd2     : 120.396068
 C4      -P1      -C3      : 105.383690  C5      -P1      -Pd2     : 100.381213
 C5      -P1      -C3      : 113.039431  C5      -P1      -C4      : 110.209354
 N2      -Pd2     -P1      : 164.381526  C19     -Pd2     -P1      : 108.434410
 C19     -Pd2     -N2      :  55.958166  H18     -N2      -Pd2     : 124.167840
 C25     -N2      -Pd2     : 124.065642  C25     -N2      -H18     : 111.692617
 C21     -C16     -C17     : 117.314332  F10     -C16     -C17     : 121.801242
 F10     -C16     -C21     : 120.884022  C18     -C17     -C16     : 121.759000
 H23     -C17     -C16     : 119.414265  H23     -C17     -C18     : 118.826706
 C19     -C18     -C17     : 120.561964  H24     -C18     -C17     : 119.104155
 H24     -C18     -C19     : 120.329433  C18     -C19     -Pd2     : 118.374570
 C20     -C19     -Pd2     : 118.285530  C20     -C19     -C18     : 118.051717
 C21     -C20     -C19     : 120.593282  H25     -C20     -C19     : 120.234262
 H25     -C20     -C21     : 119.167684  C20     -C21     -C16     : 121.712047
 H26     -C21     -C16     : 119.396539  H26     -C21     -C20     : 118.891399
 C27     -C22     -C23     : 120.002746  H22     -C22     -C23     : 120.000393
 H22     -C22     -C27     : 119.996860  C24     -C23     -C22     : 120.000393
 H27     -C23     -C22     : 119.995826  H27     -C23     -C24     : 120.003781
 C25     -C24     -C23     : 119.996860  H28     -C24     -C23     : 119.999284
 H28     -C24     -C25     : 120.003855  C24     -C25     -N2      : 119.996860
 C26     -C25     -N2      : 119.996860  C26     -C25     -C24     : 120.006279
 C27     -C26     -C25     : 119.996860  H29     -C26     -C25     : 120.001259
 H29     -C26     -C27     : 120.001881  C26     -C27     -C22     : 119.996860
 H30     -C27     -C22     : 120.003855  H30     -C27     -C26     : 119.999284
 C12     -C3      -P1      : 132.332083  C40     -C3      -P1      : 109.049994
 C40     -C3      -C12     : 118.601565  C41     -C4      -P1      : 116.680003
 C42     -C4      -P1      : 113.633317  C42     -C4      -C41     : 105.789550
 C43     -C4      -P1      : 109.575020  C43     -C4      -C41     : 105.935583
 C43     -C4      -C42     : 104.252746  C44     -C5      -P1      : 111.754645
 C45     -C5      -P1      : 119.639032  C45     -C5      -C44     : 105.868645
 C46     -C5      -P1      : 107.875063  C46     -C5      -C44     : 105.244514
 C46     -C5      -C45     : 105.414608  C11     -C6      -C7      : 112.855389
 C12     -C6      -C7      : 129.318543  C12     -C6      -C11     : 117.822169
 C8      -C7      -C6      : 120.577643  C47     -C7      -C6      : 126.852870
 C47     -C7      -C8      : 112.463886  C9      -C8      -C7      : 123.661511
 H48     -C8      -C7      : 120.364684  H48     -C8      -C9      : 115.971317
 C10     -C9      -C8      : 117.169856  H49     -C9      -C8      : 121.666137
 H49     -C9      -C10     : 121.163760  C11     -C10     -C9      : 118.559909
 H50     -C10     -C9      : 120.510758  H50     -C10     -C11     : 120.927422
 C10     -C11     -C6      : 127.174781  H51     -C11     -C6      : 119.444547
 H51     -C11     -C10     : 113.352565  C6      -C12     -C3      : 128.578123
 C13     -C12     -C3      : 114.079668  C13     -C12     -C6      : 117.336141
 C14     -C13     -C12     : 126.514616  H52     -C13     -C12     : 122.531223
 H52     -C13     -C14     : 110.900352  C15     -C14     -C13     : 118.517836
 H53     -C14     -C13     : 121.365931  H53     -C14     -C15     : 120.110049
 C40     -C15     -C14     : 117.048897  H54     -C15     -C14     : 121.214686
 H54     -C15     -C40     : 121.736280  C15     -C40     -C3      : 125.228312
 H31     -C40     -C3      : 120.513439  H31     -C40     -C15     : 114.258064
 H32     -C41     -C4      : 113.258537  H33     -C41     -C4      : 111.689655
 H33     -C41     -H32     : 105.503065  H34     -C41     -C4      : 113.192670
 H34     -C41     -H32     : 107.193094  H34     -C41     -H33     : 105.391539
 H35     -C42     -C4      : 112.058038  H36     -C42     -C4      : 111.797889
 H36     -C42     -H35     : 109.222001  H37     -C42     -C4      : 112.013244
 H37     -C42     -H35     : 105.726505  H37     -C42     -H36     : 105.648678
 H38     -C43     -C4      : 112.576983  H39     -C43     -C4      : 112.189921
 H39     -C43     -H38     : 106.196471  H40     -C43     -C4      : 111.777365
 H40     -C43     -H38     : 107.585060  H40     -C43     -H39     : 106.102308
 H41     -C44     -C5      : 112.298348  H42     -C44     -C5      : 111.935505
 H42     -C44     -H41     : 108.095584  H43     -C44     -C5      : 112.091550
 H43     -C44     -H41     : 106.820756  H43     -C44     -H42     : 105.192635
 H44     -C45     -C5      : 114.473937  H45     -C45     -C5      : 111.330423
 H45     -C45     -H44     : 104.456631  H46     -C45     -C5      : 113.153150
 H46     -C45     -H44     : 107.744798  H46     -C45     -H45     : 104.894240
 H47     -C46     -C5      : 112.032471  H72     -C46     -C5      : 112.097904
 H72     -C46     -H47     : 107.418253  H73     -C46     -C5      : 112.211684
 H73     -C46     -H47     : 105.875619  H73     -C46     -H72     : 106.814392
 H74     -C47     -C7      : 111.849660  H75     -C47     -C7      : 111.964901
 H75     -C47     -H74     : 113.066083  H76     -C47     -C7      : 112.334273
 H76     -C47     -H74     : 104.830478  H76     -C47     -H75     : 102.205211
 
  torsional angles:
 
 P1      -Pd2     -N2      -H18     : -90.597555
 P1      -Pd2     -N2      -C25     :  86.014157
 P1      -Pd2     -C19     -C18     : -77.608817
 P1      -Pd2     -C19     -C20     :  76.236108
 P1      -C3      -C12     -C6      :  -3.538704
 P1      -C3      -C12     -C13     : 177.391602
 P1      -C3      -C40     -C15     :-177.644279
 P1      -C3      -C40     -H31     :   2.190069
 P1      -C4      -C41     -H32     :  62.775020
 P1      -C4      -C41     -H33     :-178.274494
 P1      -C4      -C41     -H34     : -59.513232
 P1      -C4      -C42     -H35     : -63.928460
 P1      -C4      -C42     -H36     :  59.071534
 P1      -C4      -C42     -H37     : 177.433697
 P1      -C4      -C43     -H38     :  59.682494
 P1      -C4      -C43     -H39     : 179.407630
 P1      -C4      -C43     -H40     : -61.546178
 P1      -C5      -C44     -H41     : -56.022773
 P1      -C5      -C44     -H42     :  65.784275
 P1      -C5      -C44     -H43     :-176.287823
 P1      -C5      -C45     -H44     :  67.566361
 P1      -C5      -C45     -H45     :-174.255908
 P1      -C5      -C45     -H46     : -56.409800
 P1      -C5      -C46     -H47     : -59.157476
 P1      -C5      -C46     -H72     :  61.695607
 P1      -C5      -C46     -H73     :-178.104440
 Pd2     -P1      -C3      -C12     :  -2.018306
 Pd2     -P1      -C3      -C40     : 176.447045
 Pd2     -P1      -C4      -C41     : -71.513102
 Pd2     -P1      -C4      -C42     :  52.011638
 Pd2     -P1      -C4      -C43     : 168.168159
 Pd2     -P1      -C5      -C44     : -70.217488
 Pd2     -P1      -C5      -C45     : 165.326564
 Pd2     -P1      -C5      -C46     :  45.006587
 Pd2     -N2      -C25     -C24     :  -2.118093
 Pd2     -N2      -C25     -C26     : 177.881907
 Pd2     -C19     -C18     -C17     : 152.938170
 Pd2     -C19     -C18     -H24     : -26.287739
 Pd2     -C19     -C20     -C21     :-152.915797
 Pd2     -C19     -C20     -H25     :  26.282939
 N2      -Pd2     -P1      -C3      :-170.707286
 N2      -Pd2     -P1      -C4      :  68.675491
 N2      -Pd2     -P1      -C5      : -52.297182
 N2      -Pd2     -C19     -C18     : 103.049596
 N2      -Pd2     -C19     -C20     :-103.105479
 N2      -C25     -C24     -C23     : 180.000000
 N2      -C25     -C24     -H28     :   0.000001
 N2      -C25     -C26     -C27     : 180.000000
 N2      -C25     -C26     -H29     :   0.000001
 C16     -C17     -C18     -C19     :   0.500634
 C16     -C17     -C18     -H24     : 179.735934
 C16     -C21     -C20     -C19     :  -0.593138
 C16     -C21     -C20     -H25     :-179.800338
 C17     -C16     -C21     -C20     :   0.094014
 C17     -C16     -C21     -H26     :-179.949620
 C17     -C18     -C19     -C20     :  -0.968159
 C18     -C17     -C16     -C21     :  -0.047584
 C18     -C17     -C16     -F10     :-179.818198
 C18     -C19     -C20     -C21     :   1.014029
 C18     -C19     -C20     -H25     :-179.787235
 C19     -Pd2     -P1      -C3      :-172.734108
 C19     -Pd2     -P1      -C4      :  66.648669
 C19     -Pd2     -P1      -C5      : -54.324003
 C19     -Pd2     -N2      -H18     : -88.276924
 C19     -Pd2     -N2      -C25     :  88.334788
 C19     -C18     -C17     -H23     :-179.436968
 C19     -C20     -C21     -H26     : 179.450282
 C20     -C19     -C18     -H24     : 179.805933
 C20     -C21     -C16     -F10     : 179.866853
 C21     -C16     -C17     -H23     : 179.889660
 F10     -C16     -C17     -H23     :   0.119046
 F10     -C16     -C21     -H26     :  -0.176781
 H23     -C17     -C18     -H24     :  -0.201667
 H25     -C20     -C21     -H26     :   0.243082
 H18     -N2      -C25     -C24     : 174.865144
 H18     -N2      -C25     -C26     :  -5.134856
 C22     -C23     -C24     -C25     :   0.000000
 C22     -C23     -C24     -H28     : 179.999999
 C22     -C27     -C26     -C25     :  -0.000001
 C22     -C27     -C26     -H29     : 179.999999
 C23     -C22     -C27     -C26     :   0.000000
 C23     -C22     -C27     -H30     : 180.000000
 C23     -C24     -C25     -C26     :   0.000000
 C24     -C23     -C22     -C27     :   0.000000
 C24     -C23     -C22     -H22     : 180.000000
 C24     -C25     -C26     -C27     :   0.000000
 C24     -C25     -C26     -H29     :-179.999999
 C25     -C24     -C23     -H27     : 180.000000
 C25     -C26     -C27     -H30     : 180.000000
 C26     -C25     -C24     -H28     :-179.999999
 C26     -C27     -C22     -H22     : 180.000000
 C27     -C22     -C23     -H27     : 179.999999
 H22     -C22     -C23     -H27     :   0.000000
 H22     -C22     -C27     -H30     :   0.000000
 H27     -C23     -C24     -H28     :  -0.000001
 H29     -C26     -C27     -H30     :  -0.000001
 C3      -P1      -C4      -C41     : 166.762405
 C3      -P1      -C4      -C42     : -69.712856
 C3      -P1      -C4      -C43     :  46.443665
 C3      -P1      -C5      -C44     :  44.159859
 C3      -P1      -C5      -C45     : -80.296088
 C3      -P1      -C5      -C46     : 159.383935
 C3      -C12     -C6      -C7      : 100.073206
 C3      -C12     -C6      -C11     : -80.702545
 C3      -C12     -C13     -C14     :   0.274863
 C3      -C12     -C13     -H52     : 177.359151
 C3      -C40     -C15     -C14     :  -0.346891
 C3      -C40     -C15     -H54     : 179.785728
 C4      -P1      -C3      -C12     : 127.638236
 C4      -P1      -C3      -C40     : -53.896413
 C4      -P1      -C5      -C44     : 161.788653
 C4      -P1      -C5      -C45     :  37.332705
 C4      -P1      -C5      -C46     : -82.987272
 C5      -P1      -C3      -C12     :-111.940243
 C5      -P1      -C3      -C40     :  66.525108
 C5      -P1      -C4      -C41     :  44.498558
 C5      -P1      -C4      -C42     : 168.023298
 C5      -P1      -C4      -C43     : -75.820182
 C6      -C7      -C8      -C9      :   0.204575
 C6      -C7      -C8      -H48     : 179.607156
 C6      -C7      -C47     -H74     :  85.260242
 C6      -C7      -C47     -H75     : -42.827948
 C6      -C7      -C47     -H76     :-157.167381
 C6      -C11     -C10     -C9      :   0.273642
 C6      -C11     -C10     -H50     : 179.773359
 C6      -C12     -C3      -C40     : 178.113550
 C6      -C12     -C13     -C14     :-178.906444
 C6      -C12     -C13     -H52     :  -1.822156
 C7      -C6      -C11     -C10     :  -0.019764
 C7      -C6      -C11     -H51     : 177.915884
 C7      -C6      -C12     -C13     : -80.882919
 C7      -C8      -C9      -C10     :   0.054983
 C7      -C8      -C9      -H49     : 179.876051
 C8      -C7      -C6      -C11     :  -0.212327
 C8      -C7      -C6      -C12     : 179.043146
 C8      -C7      -C47     -H74     : -98.492928
 C8      -C7      -C47     -H75     : 133.418882
 C8      -C7      -C47     -H76     :  19.079450
 C8      -C9      -C10     -C11     :  -0.276610
 C8      -C9      -C10     -H50     :-179.778484
 C9      -C8      -C7      -C47     :-176.307482
 C9      -C10     -C11     -H51     :-177.768294
 C10     -C9      -C8      -H48     :-179.371646
 C10     -C11     -C6      -C12     :-179.368488
 C11     -C6      -C7      -C47     : 175.758639
 C11     -C6      -C12     -C13     :  98.341330
 C11     -C10     -C9      -H49     : 179.901367
 C12     -C3      -C40     -C15     :   1.063585
 C12     -C3      -C40     -H31     :-179.102067
 C12     -C6      -C7      -C47     :  -4.985888
 C12     -C6      -C11     -H51     :  -1.432840
 C12     -C13     -C14     -C15     :   0.419544
 C12     -C13     -C14     -H53     : 179.515586
 C13     -C12     -C3      -C40     :  -0.956143
 C13     -C14     -C15     -C40     :  -0.387844
 C13     -C14     -C15     -H54     : 179.480274
 C14     -C15     -C40     -H31     : 179.809641
 C15     -C14     -C13     -H52     :-176.949296
 C40     -C15     -C14     -H53     :-179.495593
 C41     -C4      -C42     -H35     :  65.348403
 C41     -C4      -C42     -H36     :-171.651602
 C41     -C4      -C42     -H37     : -53.289439
 C41     -C4      -C43     -H38     : -66.981941
 C41     -C4      -C43     -H39     :  52.743195
 C41     -C4      -C43     -H40     : 171.789387
 C42     -C4      -C41     -H32     : -64.694553
 C42     -C4      -C41     -H33     :  54.255933
 C42     -C4      -C41     -H34     : 173.017195
 C42     -C4      -C43     -H38     :-178.358513
 C42     -C4      -C43     -H39     : -58.633377
 C42     -C4      -C43     -H40     :  60.412815
 C43     -C4      -C41     -H32     :-174.987439
 C43     -C4      -C41     -H33     : -56.036953
 C43     -C4      -C41     -H34     :  62.724309
 C43     -C4      -C42     -H35     : 176.830700
 C43     -C4      -C42     -H36     : -60.169305
 C43     -C4      -C42     -H37     :  58.192858
 C44     -C5      -C45     -H44     : -59.667052
 C44     -C5      -C45     -H45     :  58.510680
 C44     -C5      -C45     -H46     : 176.356787
 C44     -C5      -C46     -H47     :  60.283556
 C44     -C5      -C46     -H72     :-178.863361
 C44     -C5      -C46     -H73     : -58.663408
 C45     -C5      -C44     -H41     :  75.812279
 C45     -C5      -C44     -H42     :-162.380674
 C45     -C5      -C44     -H43     : -44.452771
 C45     -C5      -C46     -H47     : 171.945031
 C45     -C5      -C46     -H72     : -67.201886
 C45     -C5      -C46     -H73     :  52.998068
 C46     -C5      -C44     -H41     :-172.848971
 C46     -C5      -C44     -H42     : -51.041923
 C46     -C5      -C44     -H43     :  66.885980
 C46     -C5      -C45     -H44     :-170.886081
 C46     -C5      -C45     -H45     : -52.708349
 C46     -C5      -C45     -H46     :  65.137758
 C47     -C7      -C8      -H48     :   3.095099
 H48     -C8      -C9      -H49     :   0.449421
 H49     -C9      -C10     -H50     :   0.399493
 H50     -C10     -C11     -H51     :   1.731423
 H52     -C13     -C14     -H53     :   2.146746
 H53     -C14     -C15     -H54     :   0.372525
 H54     -C15     -C40     -H31     :  -0.057740
 
  nuclear repulsion energy.......          4869.971061864 hartrees
  
  Detected an organometallic with only one TM atom. 
  
  Oxidation state on metal       2 is     2
  Formal multiplet on metal      2 is     1
  Formal charge on ligand        3 is    -1
  Formal multiplet on ligand     3 is     1
  Formal charge on ligand        4 is    -1
  Formal multiplet on ligand     4 is     1
  
 
  Will use High-Quality Initial guess for organometallics
       including d-d repulsion (iguess=30)
 
 Non-default options chosen:
   SCF calculation type: DFT(b3pw91-d3)              
   DFT=Becke_3_Parameter/HF+Slater+Becke88+PW91+PW-GGAIIC (B3PW91-D3)
   Transition state optimization
   Geometry will be optimized in redundant internal coordinates
   Culot/Fletcher trust radius adjustment
      initial trust radius:  0.100
   P-RFO level-shifting used
   Solvation energy will be computed using PBF
     -solute cavity energy will not be included
     -surface area terms will not be included
   Vibrational frequencies and related properties will be computed
      from analytic second derivatives
   IR intensities will be computed
   Thermochemical properties will be computed
   Maximum number of geometry steps: 100
   Scaling standard convergence criteria by a factor of   5.00
   Mixed Murtagh-Sargent/Powell Hessian-updating used
   Solvent: benzene                                                         
   Internal dielectric constant:    1.000
   Continuum dielectric constant:   2.283
   Solvent probe molecule radius:   2.600
  
 Non-default print settings:
     11=  2
  
 Temporary integer options set:
     21= -1  73=  2
  
  atom       vdw   vdw2    cov     mass  grid  daf  charge   basis
  P1        2.147  2.074  1.060   30.974    Y    Y      Y    ps_6-31g*
  Pd2       1.450  1.450  1.280  105.903    Y    Y      Y    lacv3p*
  N2        1.831  1.600  0.750   14.003    Y    Y      Y    ps_6-31g*
  C16       1.949  1.900  0.770   12.000    Y    Y      Y    ps_6-31g*
  C17       1.949  1.900  0.770   12.000    Y    Y      Y    ps_6-31g*
  C18       1.949  1.900  0.770   12.000    Y    Y      Y    ps_6-31g*
  C19       1.949  1.900  0.770   12.000    Y    Y      Y    ps_6-31g*
  C20       1.949  1.900  0.770   12.000    Y    Y      Y    ps_6-31g*
  C21       1.949  1.900  0.770   12.000    Y    Y      Y    ps_6-31g*
  F10       1.736  1.682  0.720   18.998    Y    Y      Y    ps_6-31g*
  H23       1.597  1.150  0.320    1.008    Y    Y      Y    ps_6-31g*
  H24       1.597  1.150  0.320    1.008    Y    Y      Y    ps_6-31g*
  H25       1.597  1.150  0.320    1.008    Y    Y      Y    ps_6-31g*
  H26       1.597  1.150  0.320    1.008    Y    Y      Y    ps_6-31g*
  H18       1.597  1.150  0.320    1.008    Y    Y      Y    ps_6-31g*
  C22       1.949  1.900  0.770   12.000    Y    Y      Y    ps_6-31g*
  C23       1.949  1.900  0.770   12.000    Y    Y      Y    ps_6-31g*
  C24       1.949  1.900  0.770   12.000    Y    Y      Y    ps_6-31g*
  C25       1.949  1.900  0.770   12.000    Y    Y      Y    ps_6-31g*
  C26       1.949  1.900  0.770   12.000    Y    Y      Y    ps_6-31g*
  C27       1.949  1.900  0.770   12.000    Y    Y      Y    ps_6-31g*
  H22       1.597  1.150  0.320    1.008    Y    Y      Y    ps_6-31g*
  H27       1.597  1.150  0.320    1.008    Y    Y      Y    ps_6-31g*
  H28       1.597  1.150  0.320    1.008    Y    Y      Y    ps_6-31g*
  H29       1.597  1.150  0.320    1.008    Y    Y      Y    ps_6-31g*
  H30       1.597  1.150  0.320    1.008    Y    Y      Y    ps_6-31g*
  C3        1.949  1.900  0.770   12.000    Y    Y      Y    ps_6-31g*
  C4        1.949  1.900  0.770   12.000    Y    Y      Y    ps_6-31g*
  C5        1.949  1.900  0.770   12.000    Y    Y      Y    ps_6-31g*
  C6        1.949  1.900  0.770   12.000    Y    Y      Y    ps_6-31g*
  C7        1.949  1.900  0.770   12.000    Y    Y      Y    ps_6-31g*
  C8        1.949  1.900  0.770   12.000    Y    Y      Y    ps_6-31g*
  C9        1.949  1.900  0.770   12.000    Y    Y      Y    ps_6-31g*
  C10       1.949  1.900  0.770   12.000    Y    Y      Y    ps_6-31g*
  C11       1.949  1.900  0.770   12.000    Y    Y      Y    ps_6-31g*
  C12       1.949  1.900  0.770   12.000    Y    Y      Y    ps_6-31g*
  C13       1.949  1.900  0.770   12.000    Y    Y      Y    ps_6-31g*
  C14       1.949  1.900  0.770   12.000    Y    Y      Y    ps_6-31g*
  C15       1.949  1.900  0.770   12.000    Y    Y      Y    ps_6-31g*
  C40       1.949  1.900  0.770   12.000    Y    Y      Y    ps_6-31g*
  C41       1.949  1.900  0.770   12.000    Y    Y      Y    ps_6-31g*
  C42       1.949  1.900  0.770   12.000    Y    Y      Y    ps_6-31g*
  C43       1.949  1.900  0.770   12.000    Y    Y      Y    ps_6-31g*
  C44       1.949  1.900  0.770   12.000    Y    Y      Y    ps_6-31g*
  C45       1.949  1.900  0.770   12.000    Y    Y      Y    ps_6-31g*
  C46       1.949  1.900  0.770   12.000    Y    Y      Y    ps_6-31g*
  C47       1.949  1.900  0.770   12.000    Y    Y      Y    ps_6-31g*
  H48       1.597  1.150  0.320    1.008    Y    Y      Y    ps_6-31g*
  H49       1.597  1.150  0.320    1.008    Y    Y      Y    ps_6-31g*
  H50       1.597  1.150  0.320    1.008    Y    Y      Y    ps_6-31g*
  H51       1.597  1.150  0.320    1.008    Y    Y      Y    ps_6-31g*
  H52       1.597  1.150  0.320    1.008    Y    Y      Y    ps_6-31g*
  H53       1.597  1.150  0.320    1.008    Y    Y      Y    ps_6-31g*
  H54       1.597  1.150  0.320    1.008    Y    Y      Y    ps_6-31g*
  H31       1.597  1.150  0.320    1.008    Y    Y      Y    ps_6-31g*
  H32       1.597  1.150  0.320    1.008    Y    Y      Y    ps_6-31g*
  H33       1.597  1.150  0.320    1.008    Y    Y      Y    ps_6-31g*
  H34       1.597  1.150  0.320    1.008    Y    Y      Y    ps_6-31g*
  H35       1.597  1.150  0.320    1.008    Y    Y      Y    ps_6-31g*
  H36       1.597  1.150  0.320    1.008    Y    Y      Y    ps_6-31g*
  H37       1.597  1.150  0.320    1.008    Y    Y      Y    ps_6-31g*
  H38       1.597  1.150  0.320    1.008    Y    Y      Y    ps_6-31g*
  H39       1.597  1.150  0.320    1.008    Y    Y      Y    ps_6-31g*
  H40       1.597  1.150  0.320    1.008    Y    Y      Y    ps_6-31g*
  H41       1.597  1.150  0.320    1.008    Y    Y      Y    ps_6-31g*
  H42       1.597  1.150  0.320    1.008    Y    Y      Y    ps_6-31g*
  H43       1.597  1.150  0.320    1.008    Y    Y      Y    ps_6-31g*
  H44       1.597  1.150  0.320    1.008    Y    Y      Y    ps_6-31g*
  H45       1.597  1.150  0.320    1.008    Y    Y      Y    ps_6-31g*
  H46       1.597  1.150  0.320    1.008    Y    Y      Y    ps_6-31g*
  H47       1.597  1.150  0.320    1.008    Y    Y      Y    ps_6-31g*
  H72       1.597  1.150  0.320    1.008    Y    Y      Y    ps_6-31g*
  H73       1.597  1.150  0.320    1.008    Y    Y      Y    ps_6-31g*
  H74       1.597  1.150  0.320    1.008    Y    Y      Y    ps_6-31g*
  H75       1.597  1.150  0.320    1.008    Y    Y      Y    ps_6-31g*
  H76       1.597  1.150  0.320    1.008    Y    Y      Y    ps_6-31g*
 
  atom      formal  2spin      esp    mulk    frag
  P1           0       0        Y    0.000       0
  Pd2          2       0        Y    0.000       0
  N2          -1       0        Y    0.000       0
  C16         -1       0        Y    0.000       0
  
  end of program pre
   
 Time(pre)  user:       0.998  user+sys:       0.998  wallclock:       1.059
  
  start of program onee
  
  smallest eigenvalue of S:    3.988E-04
  number of canonical orbitals.....          614
  end of program onee
   
 Time(onee)  user:       4.484  user+sys:       4.484  wallclock:       3.195
  
  start of program hfig
  
  initial wavefunction generated automatically from atomic wavefunctions
  Only one state below 0.010000
  Skip d-d repulsion considerations 
 
  Irreducible     Total no   No of occupied orbitals 
  representation  orbitals   Shell_1  Shell_2    ...
  No Symm          614        143
  ------------------------
  Orbital occupation/shell    1.000
 
  end of program hfig
   
 Time(hfig)  user:       1.057  user+sys:       1.057  wallclock:       1.167
  
  start of program probe
  
  end of program probe
   
 Time(probe)  user:       0.566  user+sys:       0.566  wallclock:       0.505
  
  start of program grid
  
   grid     grid set  grid #  grid sym
  ------    --------  ------  --------
  coarse        0        0        1
  medium        2        1        1
  fine          0        0        1
  ultrafine     4        2        1
  charge       -1        3        1
  gradient      4        2        1
  density       0        0        1
  DFT-fine    -11        4        1
  DFT-med.    -10        5        1
  DFT-grad    -12        6        1
  DFT-der2     -8        7        1
  DFT-cphf     -9        8        1
  LMP2-enrg     4        2        1
  LMP2-grad     2        1        1
  DFT-cphf2   -15        9        1
  PBF-dens      0        0        1
  plotting      0        0        1
  Rel-grad    -17        0        1
  
  number of gridpoints: 
     atom           P1         Pd2          N2         C16         C17         C18         C19
  grid # 1         613         360         106          78          95          94          97
  grid # 2         431         318         387         327         325         322         356
  grid # 3          10         267          21          36          28          16          11
  grid # 4        8714        8714        8714        8714        8714        8714        8714
  grid # 5        1192        1192        1192        1192        1192        1192        1192
  grid # 6        9132        9132        5922        5922        5922        5922        5922
  grid # 7       23034       32968       13958       13950       13950       13950       13950
  grid # 8         722        1150         756         748         748         748         748
  grid # 9         366        2198         406         394         394         394         394
   
  number of gridpoints: 
     atom          C20         C21         F10         H23         H24         H25         H26
  grid # 1          89          93         585         117         112          98         113
  grid # 2         292         324         564         465         455         398         461
  grid # 3          15          23         364         382         238          80         348
  grid # 4        8714        8714        8714        8714        8714        8714        8714
  grid # 5        1192        1192        1192        1192        1192        1192        1192
  grid # 6        5922        5922        5922        5922        5922        5922        5922
  grid # 7       13950       13950       23190       15206       15206       15206       15206
  grid # 8         748         748         770         786         786         786         786
  grid # 9         394         394         420         420         420         420         420
   
  number of gridpoints: 
     atom          H18         C22         C23         C24         C25         C26         C27
  grid # 1         110          97          95          94          99          96          97
  grid # 2         448         324         324         319         357         324         324
  grid # 3         228          48          36          25          31          43          50
  grid # 4        8714        8714        8714        8714        8714        8714        8714
  grid # 5        1192        1192        1192        1192        1192        1192        1192
  grid # 6        5922        5922        5922        5922        5922        5922        5922
  grid # 7       15206       13950       13950       13950       13950       13950       13950
  grid # 8         786         748         748         748         748         748         748
  grid # 9         420         394         394         394         394         394         394
   
  number of gridpoints: 
     atom          H22         H27         H28         H29         H30          C3          C4
  grid # 1         118         118         102         115         118          92          91
  grid # 2         467         463         421         456         467         389         369
  grid # 3         422         383          74         343         422          13           6
  grid # 4        8714        8714        8714        8714        8714        8714        8714
  grid # 5        1192        1192        1192        1192        1192        1192        1192
  grid # 6        5922        5922        5922        5922        5922        5922        5922
  grid # 7       15206       15206       15206       15206       15206       13950       13950
  grid # 8         786         786         786         786         786         748         748
  grid # 9         420         420         420         420         420         394         394
   
  number of gridpoints: 
     atom           C5          C6          C7          C8          C9         C10         C11
  grid # 1          88          99         100          94          96          96          93
  grid # 2         378         355         364         327         321         324         325
  grid # 3           6           9          20          32          34          31          19
  grid # 4        8714        8714        8714        8714        8714        8714        8714
  grid # 5        1192        1192        1192        1192        1192        1192        1192
  grid # 6        5922        5922        5922        5922        5922        5922        5922
  grid # 7       13950       13950       13950       13950       13950       13950       13950
  grid # 8         748         748         748         748         748         748         748
  grid # 9         394         394         394         394         394         394         394
   
  number of gridpoints: 
     atom          C12         C13         C14         C15         C40         C41         C42
  grid # 1          98          93          97          95          91          83          84
  grid # 2         359         324         324         322         321         239         240
  grid # 3          13          31          49          34          17           6           6
  grid # 4        8714        8714        8714        8714        8714        8714        8714
  grid # 5        1192        1192        1192        1192        1192        1192        1192
  grid # 6        5922        5922        5922        5922        5922        5922        5922
  grid # 7       13950       13950       13950       13950       13950       13950       13950
  grid # 8         748         748         748         748         748         748         748
  grid # 9         394         394         394         394         394         394         394
   
  number of gridpoints: 
     atom          C43         C44         C45         C46         C47         H48         H49
  grid # 1          82          80          82          79          81         114         117
  grid # 2         242         246         241         248         243         453         468
  grid # 3           6           6           6           6           6         310         410
  grid # 4        8714        8714        8714        8714        8714        8714        8714
  grid # 5        1192        1192        1192        1192        1192        1192        1192
  grid # 6        5922        5922        5922        5922        5922        5922        5922
  grid # 7       13950       13950       13950       13950       13950       15206       15206
  grid # 8         748         748         748         748         748         786         786
  grid # 9         394         394         394         394         394         420         420
   
  number of gridpoints: 
     atom          H50         H51         H52         H53         H54         H31         H32
  grid # 1         117         114         117         118         118          96         103
  grid # 2         467         450         457         467         468         399         434
  grid # 3         405         271         342         423         406          56         133
  grid # 4        8714        8714        8714        8714        8714        8714        8714
  grid # 5        1192        1192        1192        1192        1192        1192        1192
  grid # 6        5922        5922        5922        5922        5922        5922        5922
  grid # 7       15206       15206       15206       15206       15206       15206       15206
  grid # 8         786         786         786         786         786         786         786
  grid # 9         420         420         420         420         420         420         420
   
  number of gridpoints: 
     atom          H33         H34         H35         H36         H37         H38         H39
  grid # 1         108         101         107         108         109          99         109
  grid # 2         444         424         447         445         446         417         445
  grid # 3         265         145         222         223         267         130         269
  grid # 4        8714        8714        8714        8714        8714        8714        8714
  grid # 5        1192        1192        1192        1192        1192        1192        1192
  grid # 6        5922        5922        5922        5922        5922        5922        5922
  grid # 7       15206       15206       15206       15206       15206       15206       15206
  grid # 8         786         786         786         786         786         786         786
  grid # 9         420         420         420         420         420         420         420
   
  number of gridpoints: 
     atom          H40         H41         H42         H43         H44         H45         H46
  grid # 1         101         105         103         107         107         107         101
  grid # 2         417         441         425         446         442         443         427
  grid # 3         144         204          83         268         227         259         148
  grid # 4        8714        8714        8714        8714        8714        8714        8714
  grid # 5        1192        1192        1192        1192        1192        1192        1192
  grid # 6        5922        5922        5922        5922        5922        5922        5922
  grid # 7       15206       15206       15206       15206       15206       15206       15206
  grid # 8         786         786         786         786         786         786         786
  grid # 9         420         420         420         420         420         420         420
   
  number of gridpoints: 
     atom          H47         H72         H73         H74         H75         H76       total
  grid # 1          83         102         106         113         106         107        8906
  grid # 2         369         422         436         464         441         443       29367
  grid # 3           6          82         176         365         167         244       10950
  grid # 4        8714        8714        8714        8714        8714        8714      662264
  grid # 5        1192        1192        1192        1192        1192        1192       90592
  grid # 6        5922        5922        5922        5922        5922        5922      456492
  grid # 7       15206       15206       15206       15206       15206       15206     1146534
  grid # 8         786         786         786         786         786         786       58736
  grid # 9         420         420         420         420         420         420       32772
   
  end of program grid
   
 Time(grid)  user:     314.163  user+sys:     314.163  wallclock:     159.396
  
  start of program rwr
  
  end of program rwr
   
 Time(rwr)  user:      15.125  user+sys:      15.125  wallclock:      18.723
  
  start of program scf
  
 number of electrons..........        286
 number of alpha electrons....        143
 number of beta electrons.....        143
 number of orbitals, total....        614
 number of doubly-occ'd orbs..        143
 number of open shell orbs....          0
 number of occupied orbitals..        143
 number of virtual orbitals...        471
 number of hamiltonians.......          1
 number of shells.............          1
 SCF type: DFT=Becke_3_Parameter/HF+Slater+Becke88+PW91+PW-GGAIIC (B3PW91-D3)
 Energy computed using pseudospectral method.
 Convergence Criterion:
    Energy (econv):       1.00E-05
    RMS density (dconv):  5.00E-06
  
       i  u  d  i  g                   
       t  p  i  c  r                                 RMS    maximum
       e  d  i  u  i                       energy  density   DIIS  
       r  t  s  t  d       total energy    change  change    error 
  
etot    1  N  N  5  M   -1898.19723458480           2.1E-03  1.6E-01
etot    2  Y  Y  6  M   -1901.43396612029  3.2E+00  3.3E-03  8.8E-02
etot    3  Y  Y  6  M   -1902.61930837157  1.2E+00  1.3E-03  5.6E-02
etot    4  N  Y  2  U   -1902.82934145661  2.1E-01  1.2E-03  2.7E-02
etot    5  Y  Y  6  M   -1902.91747193846  8.8E-02  7.3E-04  1.6E-02
etot    6  N  Y  2  U   -1902.92636328550  8.9E-03  6.3E-04  7.7E-03
etot    7  Y  Y  6  M   -1902.93391248290  7.5E-03  1.2E-04  6.2E-03
etot    8  N  Y  2  U   -1902.94002801400  6.1E-03  4.3E-05  1.6E-03
etot    9  N  Y  2  U   -1902.94040651718  3.8E-04  1.3E-05  2.9E-04
etot   10  N  Y  2  U   -1902.94041984314  1.3E-05  5.2E-06  1.3E-04
etot   11  N  Y  2  U   -1902.94042430903  4.5E-06  2.2E-06  3.4E-05
etot   12  N  N  2  U   -1902.94042433524  2.6E-08  0.0E+00  0.0E+00
 
  Computing the dispersion energy correction and its gradients...
  
  
 Energy components, in hartrees:
   (A)  Nuclear repulsion............    4869.97106186399
   (E)  Total one-electron terms.....  -12344.22540028458
   (F)    Electron-nuclear...........  -14155.83825717414
   (H)    Kinetic....................    1811.61285688955
   (I)  Total two-electron terms.....    5571.31391408536
   (J)    Coulomb....................    5817.76940672367
   (K)    Exchange+Correlation.......    -246.45549263831
   (L)  Electronic energy............   -6772.91148619923  (E+I)
   (N0) D3 correction................      -0.13061240018
   (N)  Total energy.................   -1903.07103673542  (A+L+N0)
   (O)  Gas phase energy.............   -1903.07103673542
  
 SCFE: SCF energy: DFT(b3pw91-d3)     -1903.07103673542 hartrees   iterations:  12
  
 
 HOMO energy:    -0.14852
 LUMO energy:    -0.04058
 
  Orbital energies (hartrees): 
   -77.07739   -24.67131   -14.33235   -10.22693   -10.21323   -10.20979
   -10.20635   -10.20198   -10.19866   -10.19685   -10.19114   -10.19075
   -10.18824   -10.18535   -10.18503   -10.18179   -10.17252   -10.17156
   -10.17055   -10.16879   -10.16874   -10.16734   -10.16680   -10.16583
   -10.16550   -10.16528   -10.16443   -10.16378   -10.16089   -10.16021
   -10.15898   -10.15711   -10.15436   -10.15231   -10.15038   -10.13571
    -6.57700    -4.73526    -4.73472    -4.73144    -3.30151    -2.03654
    -2.02647    -2.00814    -1.20766    -0.88321    -0.87929    -0.85422
    -0.84805    -0.82820    -0.81453    -0.80914    -0.79021    -0.76827
    -0.76290    -0.75542    -0.73362    -0.73053    -0.72824    -0.70335
    -0.69632    -0.69059    -0.68416    -0.68199    -0.67477    -0.65832
    -0.62724    -0.61511    -0.60540    -0.59551    -0.59140    -0.58954
    -0.57662    -0.57578    -0.56016    -0.53975    -0.53088    -0.51136
    -0.50376    -0.49324    -0.47899    -0.47544    -0.47399    -0.47068
    -0.46403    -0.46283    -0.46147    -0.45562    -0.45187    -0.44460
    -0.44231    -0.44052    -0.43680    -0.43543    -0.42891    -0.42490
    -0.42061    -0.41814    -0.41512    -0.40859    -0.40629    -0.40401
    -0.39965    -0.39862    -0.38838    -0.38592    -0.38269    -0.38033
    -0.38012    -0.37946    -0.37412    -0.37245    -0.36285    -0.35951
    -0.35391    -0.35247    -0.34976    -0.34438    -0.34099    -0.33773
    -0.33280    -0.33158    -0.33086    -0.32609    -0.32424    -0.31808
    -0.31672    -0.31177    -0.30591    -0.27975    -0.26582    -0.26520
    -0.25895    -0.24794    -0.24250    -0.23797    -0.23757    -0.23205
    -0.22596    -0.22113    -0.20397    -0.19714    -0.14852    -0.04058
    -0.02345    -0.01821    -0.00763    -0.00042     0.00257     0.01395
     0.01819     0.02401     0.03473
 
  end of program scf
   
 Time(scf)  user:     456.091  user+sys:     456.091  wallclock:     243.920
  
  start of program der1a
  
  end of program der1a
   
 Time(der1a)  user:      13.600  user+sys:      13.600  wallclock:       7.350
  
  start of program rwr
  
  end of program rwr
   
 Time(rwr)  user:      17.001  user+sys:      17.001  wallclock:      22.132
  
  start of program der1b
  
   
  forces (hartrees/bohr) : total     
   
 atom  label           x              y              z
 ---- --------   -------------  -------------  -------------
    1 P1          1.236754E-02   1.714434E-03   3.237179E-02
    2 Pd2         1.818315E-03   1.579739E-02  -2.322758E-03
    3 N2         -1.666213E-02  -2.876684E-03   4.881761E-02
    4 C16         3.866704E-02   3.703702E-03   2.569411E-03
    5 C17        -1.675088E-02   5.962487E-03  -3.591163E-03
    6 C18         1.947689E-03  -8.417549E-03   2.994297E-04
    7 C19        -3.516122E-03   2.262221E-02   2.692743E-02
    8 C20        -3.631417E-02   9.138482E-03   5.756854E-02
    9 C21        -1.536468E-02  -8.093183E-03   1.229569E-02
   10 F10        -8.461560E-03  -2.409884E-04  -7.580261E-04
   11 H23        -4.677321E-04  -2.172988E-03  -2.789485E-04
   12 H24         5.190194E-04  -4.759004E-05   6.822373E-04
   13 H25        -1.429477E-02   1.589627E-03   1.840216E-02
   14 H26        -4.464831E-04   2.310783E-03   3.910597E-04
   15 H18         1.354195E-02  -4.497558E-02  -3.157419E-02
   16 C22        -4.368153E-04  -4.813483E-03   2.091180E-03
   17 C23        -4.574471E-05   4.040516E-03   6.251249E-04
   18 C24         8.449120E-03  -1.408399E-02   5.383036E-03
   19 C25         9.187971E-03   4.046776E-02  -1.100484E-02
   20 C26        -2.861942E-03  -6.132794E-03   7.465370E-03
   21 C27         1.151691E-03   2.398741E-03  -2.813773E-03
   22 H22         7.514219E-04   9.029920E-03  -5.581967E-03
   23 H27        -1.717589E-03   9.650352E-03   4.122103E-03
   24 H28         5.507509E-03   1.925819E-03   1.341215E-02
   25 H29         1.534539E-03  -8.516040E-03  -5.267480E-03
   26 H30         2.583644E-03   1.736527E-04  -1.035399E-02
   27 C3         -1.373596E-02  -4.728029E-03  -1.781711E-02
   28 C4         -4.293019E-03   1.872419E-02  -3.089012E-02
   29 C5         -1.848983E-02  -3.045124E-02  -1.992849E-02
   30 C6         -1.359752E-03   4.533457E-03   6.646568E-02
   31 C7         -4.429596E-03  -1.036600E-02   1.021926E-02
   32 C8          1.992462E-03   6.900135E-03   7.198840E-03
   33 C9         -7.478525E-05   7.812286E-04  -2.591950E-03
   34 C10         1.535751E-03  -3.697878E-03   2.038118E-03
   35 C11        -1.600726E-03   2.119899E-02  -8.724404E-04
   36 C12        -7.977386E-03  -1.566059E-02  -5.196984E-02
   37 C13         1.465782E-02   1.254150E-03  -5.709649E-03
   38 C14        -5.529479E-03   1.292259E-03  -4.627184E-03
   39 C15         4.981305E-03  -1.911364E-04   1.457554E-03
   40 C40         8.801405E-03  -1.730002E-02  -1.450544E-02
   41 C41        -1.321027E-02  -1.050343E-02   9.743909E-03
   42 C42         1.121983E-02   4.291102E-03   1.537909E-02
   43 C43        -2.899300E-03   1.080828E-02  -1.693399E-02
   44 C44         1.675996E-02  -1.471832E-03   4.112127E-03
   45 C45         7.730320E-04   3.559285E-03  -1.626236E-02
   46 C46         1.087690E-02   5.221928E-03  -4.305266E-02
   47 C47        -6.288272E-03  -1.332767E-02  -5.959396E-03
   48 H48        -2.958554E-03   2.809053E-03  -1.139676E-02
   49 H49        -1.562040E-03  -3.939722E-03  -1.010641E-02
   50 H50        -1.447181E-05  -9.776051E-03  -6.308863E-03
   51 H51        -3.515691E-03  -5.982542E-04  -9.503153E-03
   52 H52        -5.175107E-03  -9.560008E-04   1.486729E-02
   53 H53        -7.635137E-03   5.196535E-04   9.109698E-03
   54 H54        -1.868389E-03   1.964042E-04   1.079159E-02
   55 H31         1.598456E-02  -1.835528E-02   1.373918E-02
   56 H32         5.899927E-03  -4.155522E-03  -4.279223E-03
   57 H33         1.075355E-02  -6.074566E-03   3.771587E-03
   58 H34         4.907297E-03   6.111610E-03   4.284171E-03
   59 H35         5.239553E-03  -4.741016E-03  -7.540377E-03
   60 H36        -9.061791E-03  -2.956812E-03   4.827272E-03
   61 H37         1.382141E-03  -1.245914E-02   1.755490E-03
   62 H38         2.260284E-04   9.026167E-03   3.043973E-03
   63 H39        -5.687945E-04  -5.236147E-03   1.011926E-02
   64 H40        -2.269096E-02   1.259902E-02   3.442019E-04
   65 H41        -7.566093E-03   2.583020E-04   4.718459E-03
   66 H42         1.552097E-03   4.655577E-03  -8.214918E-03
   67 H43         1.300481E-04   1.240140E-02  -5.654783E-04
   68 H44        -1.288279E-03   4.486187E-03   5.776295E-03
   69 H45         6.239323E-03   7.859801E-03   6.180198E-03
   70 H46         6.866223E-03  -4.242151E-03   3.627143E-03
   71 H47         1.367435E-02  -6.296167E-03  -7.486394E-02
   72 H72         7.599500E-03  -6.821258E-03   5.066548E-03
   73 H73         8.444541E-03   6.107749E-03  -3.327796E-03
   74 H74        -1.278255E-02   2.053116E-03  -4.991716E-03
   75 H75         1.447937E-02   5.168084E-03  -3.752684E-03
   76 H76         2.990566E-03   1.183389E-02  -5.084815E-03
 -------------   -------------  -------------  -------------
     total        2.078136E-03   5.001146E-04  -2.542641E-03
   
  end of program der1b
   
 Time(der1b)  user:     138.002  user+sys:     138.002  wallclock:      72.885
  
  start of program geopt
  
 ----------------------------------------------------------------------------
  Geometry optimization step  1
  Total energy:     -1903.07103673542 hartrees
 ----------------------------------------------------------------------------
  
  Hessian eigenvalues: 
    0.00000E+00    0.00000E+00    0.00000E+00    0.00000E+00    0.00000E+00
    0.00000E+00    0.00000E+00    0.00000E+00    0.00000E+00    0.00000E+00
    0.00000E+00    0.00000E+00    0.00000E+00    0.00000E+00    0.00000E+00
    0.00000E+00    0.00000E+00    0.00000E+00    0.00000E+00    0.00000E+00
    0.00000E+00    0.00000E+00    0.00000E+00    0.00000E+00    0.00000E+00
    0.00000E+00    0.00000E+00    0.00000E+00    0.00000E+00    0.00000E+00
    0.00000E+00    0.00000E+00    0.00000E+00    0.00000E+00    1.03168E-02
    1.61248E-02    1.78334E-02    1.80008E-02    1.82942E-02    1.89396E-02
    1.89714E-02    2.24031E-02    2.28207E-02    2.42056E-02    2.53875E-02
    2.70462E-02    2.72488E-02    2.78774E-02    2.86346E-02    2.90631E-02
    2.99968E-02    3.19338E-02    3.22446E-02    3.52741E-02    3.69289E-02
    3.72944E-02    4.60587E-02    4.67234E-02    4.89552E-02    4.97662E-02
    5.18926E-02    5.83397E-02    5.92549E-02    6.23234E-02    6.61409E-02
    6.81422E-02    7.07057E-02    7.10365E-02    7.22632E-02    7.43816E-02
    7.69313E-02    8.17108E-02    9.73589E-02    1.09535E-01    1.11438E-01
    1.25083E-01    1.26967E-01    1.28031E-01    1.28552E-01    1.28661E-01
    1.29120E-01    1.31236E-01    1.33043E-01    1.36258E-01    1.38804E-01
    1.41246E-01    1.42455E-01    1.44656E-01    1.50248E-01    1.55313E-01
    1.58173E-01    1.62038E-01    1.62687E-01    1.64684E-01    1.70946E-01
    1.71987E-01    1.72403E-01    1.83702E-01    1.84639E-01    1.96118E-01
    1.99205E-01    1.99587E-01    2.00166E-01    2.01617E-01    2.02789E-01
    2.04882E-01    2.05723E-01    2.06969E-01    2.10887E-01    2.14254E-01
    2.18730E-01    2.21476E-01    2.24144E-01    2.24974E-01    2.27508E-01
    2.29586E-01    2.29801E-01    2.30208E-01    2.31018E-01    2.34327E-01
    2.34774E-01    2.39746E-01    2.41836E-01    2.42697E-01    2.43484E-01
    2.43986E-01    2.44645E-01    2.44770E-01    2.47466E-01    2.49796E-01
    2.54484E-01    2.58321E-01    2.62385E-01    2.79912E-01    2.81600E-01
    2.86434E-01    2.89953E-01    2.93023E-01    2.93998E-01    2.97189E-01
    2.98491E-01    3.04750E-01    3.12273E-01    3.14428E-01    3.15308E-01
    3.15352E-01    3.15438E-01    3.15446E-01    3.15459E-01    3.15521E-01
    3.15535E-01    3.15781E-01    3.15900E-01    3.15957E-01    3.17261E-01
    3.17349E-01    3.17488E-01    3.18403E-01    3.19215E-01    3.19253E-01
    3.20287E-01    3.20516E-01    3.21671E-01    3.21746E-01    3.21861E-01
    3.22137E-01    3.25843E-01    3.26243E-01    3.26296E-01    3.26321E-01
    3.26321E-01    3.26325E-01    3.26402E-01    3.26418E-01    3.26641E-01
    3.26737E-01    3.26999E-01    3.29085E-01    3.29626E-01    3.30266E-01
    3.36969E-01    3.37488E-01    3.40456E-01    3.40724E-01    3.41120E-01
    3.42270E-01    3.43622E-01    3.44852E-01    3.46341E-01    3.49885E-01
    3.50237E-01    3.51013E-01    3.51423E-01    3.52987E-01    3.53551E-01
    3.54886E-01    3.55381E-01    3.57331E-01    3.58621E-01    3.59961E-01
    3.60230E-01    3.60568E-01    3.60915E-01    3.61060E-01    3.62531E-01
    3.63213E-01    3.63599E-01    3.66232E-01    3.67587E-01    3.67928E-01
    3.68400E-01    3.69498E-01    3.71417E-01    3.72695E-01    3.75166E-01
    3.75359E-01    3.75798E-01    3.79558E-01    3.79922E-01    3.81703E-01
    3.84159E-01    3.87625E-01    3.99327E-01    4.02914E-01    4.04993E-01
    4.07643E-01    4.12086E-01    4.12591E-01    4.15734E-01    4.17258E-01
    4.25510E-01    4.40634E-01    4.43551E-01    4.59115E-01    4.62342E-01
    4.64004E-01    5.14341E-01    5.25115E-01    5.28335E-01    5.32016E-01
    5.32225E-01    5.35188E-01    5.37940E-01    5.56914E-01    5.75469E-01
    5.87880E-01    5.97347E-01    6.05594E-01    6.12878E-01    6.68469E-01
    6.76692E-01    7.27062E-01    8.69536E-01    1.01511E+00    1.69415E+00
    1.35593E+01
  
 WARNING: Hessian has wrong number of negative eigenvalues:           0
  
  TS search will follow eigenvector  35 on this iteration
  
  Selected vector:  eigenvalue     1.03168E-02

 35)    P1-Pd2-N2-C25(  4)  0.49665
        P1-Pd2-N2-H18(  3)  0.49615
       C19-Pd2-N2-C25( 75)  0.37484
      C18-C19-C20-C22( 72) -0.35292
       N2-Pd2-C19-C18( 41)  0.27514
      C19-C26-C25-C24( 80) -0.21628
  
  
  Level shifts adjusted to satisfy step-size constraints
   Step size:    0.1001158
   Cos(theta):   0.8551846
   Final level shift:  -4.9365294E+00
  
  gradient maximum:        6.1831E-01 .  (  2.2500E-03 )
  gradient rms:            7.1420E-02 .  (  1.5000E-03 )
  displacement maximum:    4.8916E-02 .  (  9.0000E-03 )
  displacement rms:        6.2572E-03 .  (  6.0000E-03 )
  
  predicted energy change:  -7.3526E-02
  step size:     0.10011
  trust radius:  0.10000
  
  molecular structure not yet converged...
  
  center of mass moved by:
     x:     2.6826E-03     y:     1.7847E-03     z:     7.8047E-03
  
  new geometry: 
                                   angstroms
  atom               x                 y                 z
  P1           -0.0025967605     -0.0174875121     -0.0532241273 
  Pd2          -0.0016538142     -0.0078272089      2.2276556432 
  N2           -0.4830297625     -0.0787167054      4.2093381386 
  C16          -4.7354534116     -0.5176217799      2.8546368886 
  C17          -4.1361524760      0.7433954534      2.8857964499 
  C18          -2.7496895796      0.8934234624      2.9439145082 
  C19          -1.9057382265     -0.2287050507      2.9584814936 
  C20          -2.5065971373     -1.5014943960      2.9382068960 
  C21          -3.8921619528     -1.6343939205      2.8821815564 
  F10          -6.0598522157     -0.6645123365      2.7954666975 
  H23          -4.7637068101      1.6344390425      2.8638348886 
  H24          -2.3266099074      1.8940704430      2.9624748939 
  H25          -1.8955637982     -2.3985300684      2.9634463535 
  H26          -4.3273235601     -2.6337736895      2.8585333276 
  H18          -0.7633680140      0.7954782626      4.8049291015 
  C22          -0.7277348558     -3.6653043112      6.4944583401 
  C23          -0.4197526169     -3.7206469149      5.1264836714 
  C24          -0.3391850918     -2.5376926176      4.3757414452 
  C25          -0.5649864862     -1.2953814016      4.9910569108 
  C26          -0.8722726418     -1.2424275219      6.3604922387 
  C27          -0.9538176844     -2.4253808171      7.1110391230 
  H22          -0.7908638437     -4.5950285923      7.0833259985 
  H27          -0.2417590106     -4.6939292819      4.6403365280 
  H28          -0.0944389094     -2.5816852052      3.3019182898 
  H29          -1.0529766252     -0.2700422205      6.8472460607 
  H30          -1.1958487949     -2.3798592167      8.1855327596 
  C3            1.8194911063     -0.0387300835     -0.6088932591 
  C4           -0.8814914420      1.4198905951     -0.9771808393 
  C5           -0.8609802662     -1.6768258523     -0.4830765243 
  C6            3.2009142164      0.1334069457      1.5799304374 
  C7            3.4632729931     -0.8809062291      2.5560113787 
  C8            3.6161172189     -0.5407078007      3.9186273421 
  C9            3.5229662532      0.7655619763      4.4054094577 
  C10           3.2556945331      1.7718480615      3.4799150397 
  C11           3.1120389843      1.4242185203      2.1325732104 
  C12           3.0400273664     -0.0026784299      0.1520135449 
  C13           4.2214956251     -0.0959721699     -0.6194649930 
  C14           4.2913470074     -0.2124022407     -2.0114118982 
  C15           3.1041388480     -0.2332841355     -2.7348865018 
  C40           1.9135364573     -0.1425425538     -2.0114958580 
  C41          -2.4283792435      1.4252396261     -0.9152936761 
  C42          -0.4200931217      2.8185166470     -0.4997206638 
  C43          -0.5274450496      1.4019304845     -2.4858851188 
  C44           0.0267021569     -2.8843957727     -0.1001991081 
  C45          -1.3344700813     -1.9295336668     -1.9393917989 
  C46          -2.1440338977     -1.7931958464      0.3730531675 
  C47           3.5280813182     -2.3725136308      2.3028781285 
  H48           3.8112942747     -1.3249333410      4.6674707674 
  H49           3.6460085784      0.9931853609      5.4765261706 
  H50           3.1738098471      2.8227606622      3.8022231262 
  H51           2.9489648679      2.2706538070      1.4773188196 
  H52           5.2125519274     -0.0392909259     -0.1719180740 
  H53           5.2610943502     -0.2718408348     -2.5329929184 
  H54           3.1055330870     -0.3151311270     -3.8340682387 
  H31           1.0128456913     -0.1675777659     -2.6247323374 
  H32          -2.8228472253      1.5416134706      0.1124672595 
  H33          -2.8573188260      2.2701421209     -1.4988847380 
  H34          -2.8843244636      0.5103014554     -1.3400091241 
  H35          -0.6823812706      3.0031089511      0.5640700661 
  H36           0.6747293390      2.9610599817     -0.6362057985 
  H37          -0.9065036190      3.6351738938     -1.0786348187 
  H38          -0.8220099661      0.4541619665     -2.9813520186 
  H39          -1.0391044538      2.2175092982     -3.0445689792 
  H40           0.5604994415      1.5499648940     -2.6558969570 
  H41           1.0289098522     -2.8390271393     -0.5775187611 
  H42           0.1718260964     -2.9596988356      0.9971009426 
  H43          -0.4326389229     -3.8512330907     -0.4042692200 
  H44          -0.5130020950     -2.0326435759     -2.6763475865 
  H45          -1.9026566921     -2.8832455497     -2.0178801031 
  H46          -2.0276597570     -1.1512274281     -2.3121990838 
  H47          -1.9316692082     -1.7582598886      1.4634036917 
  H72          -2.8674459022     -0.9800182884      0.1551973780 
  H73          -2.6764291705     -2.7551396763      0.2001491431 
  H74           4.5373398306     -2.6917630081      1.9594788106 
  H75           2.7133940665     -2.7158004661      1.6275038219 
  H76           3.3409109299     -2.9635341582      3.2264128362 
   
 
  bond lengths (angstroms):
 
 P1      -Pd2     :   2.280900      P1      -C3      :   1.905052
 P1      -C4      :   1.921512      P1      -C5      :   1.917029
 Pd2     -N2      :   2.040542      Pd2     -C19     :   2.051446
 N2      -H18     :   1.094319      N2      -C25     :   1.448473
 C16     -C17     :   1.396530      C16     -C21     :   1.399671
 C16     -F10     :   1.333833      C17     -C18     :   1.395767
 C17     -H23     :   1.090076      C18     -C19     :   1.404150
 C18     -H24     :   1.086570      C19     -C20     :   1.407635
 C20     -C21     :   1.393051      C20     -H25     :   1.085667
 C21     -H26     :   1.090268      C22     -C23     :   1.403307
 C22     -C27     :   1.403102      C22     -H22     :   1.102333
 C23     -C24     :   1.403384      C23     -H27     :   1.102406
 C24     -C25     :   1.404613      C24     -H28     :   1.102240
 C25     -C26     :   1.404486      C26     -C27     :   1.403335
 C26     -H29     :   1.102323      C27     -H30     :   1.102356
 C3      -C12     :   1.438745      C3      -C40     :   1.409580
 C4      -C41     :   1.548135      C4      -C42     :   1.548228
 C4      -C43     :   1.549794      C5      -C44     :   1.546868
 C5      -C45     :   1.552066      C5      -C46     :   1.546844
 C6      -C7      :   1.431921      C6      -C11     :   1.406950
 C6      -C12     :   1.443382      C7      -C8      :   1.412734
 C7      -C47     :   1.514321      C8      -C9      :   1.397131
 C8      -H48     :   1.101758      C9      -C10     :   1.393049
 C9      -H49     :   1.101927      C10     -C11     :   1.398861
 C10     -H50     :   1.102273      C11     -H51     :   1.082776
 C12     -C13     :   1.414125      C13     -C14     :   1.398553
 C13     -H52     :   1.088900      C14     -C15     :   1.390437
 C14     -H53     :   1.102719      C15     -C40     :   1.396088
 C15     -H54     :   1.102226      C40     -H31     :   1.089922
 C41     -H32     :   1.106996      C41     -H33     :   1.112847
 C41     -H34     :   1.106969      C42     -H35     :   1.111090
 C42     -H36     :   1.112467      C42     -H37     :   1.112954
 C43     -H38     :   1.109289      C43     -H39     :   1.113145
 C43     -H40     :   1.111054      C44     -H41     :   1.110996
 C44     -H42     :   1.109414      C44     -H43     :   1.112757
 C45     -H44     :   1.108398      C45     -H45     :   1.112907
 C45     -H46     :   1.106914      C46     -H47     :   1.111388
 C46     -H72     :   1.109975      C46     -H73     :   1.112958
 C47     -H74     :   1.112855      C47     -H75     :   1.112516
 C47     -H76     :   1.112319
 
  bond angles:
 
 C3      -P1      -Pd2     : 106.937660  C4      -P1      -Pd2     : 118.546079
 C4      -P1      -C3      : 107.792118  C5      -P1      -Pd2     : 103.183914
 C5      -P1      -C3      : 110.683929  C5      -P1      -C4      : 109.564270
 N2      -Pd2     -P1      : 166.144144  C19     -Pd2     -P1      : 110.818340
 C19     -Pd2     -N2      :  55.342221  H18     -N2      -Pd2     : 124.141508
 C25     -N2      -Pd2     : 124.516674  C25     -N2      -H18     : 111.271108
 C21     -C16     -C17     : 117.481926  F10     -C16     -C17     : 121.771343
 F10     -C16     -C21     : 120.746204  C18     -C17     -C16     : 121.618562
 H23     -C17     -C16     : 119.379634  H23     -C17     -C18     : 119.001797
 C19     -C18     -C17     : 120.768261  H24     -C18     -C17     : 119.109176
 H24     -C18     -C19     : 120.115904  C18     -C19     -Pd2     : 117.912725
 C20     -C19     -Pd2     : 119.236695  C20     -C19     -C18     : 117.767714
 C21     -C20     -C19     : 120.757476  H25     -C20     -C19     : 120.432567
 H25     -C20     -C21     : 118.809766  C20     -C21     -C16     : 121.596035
 H26     -C21     -C16     : 119.371242  H26     -C21     -C20     : 119.032706
 C27     -C22     -C23     : 119.906817  H22     -C22     -C23     : 120.003832
 H22     -C22     -C27     : 120.089327  C24     -C23     -C22     : 120.055541
 H27     -C23     -C22     : 120.009096  H27     -C23     -C24     : 119.935338
 C25     -C24     -C23     : 120.129523  H28     -C24     -C23     : 120.017502
 H28     -C24     -C25     : 119.852540  C24     -C25     -N2      : 119.827637
 C26     -C25     -N2      : 120.459290  C26     -C25     -C24     : 119.712870
 C27     -C26     -C25     : 120.159867  H29     -C26     -C25     : 119.978565
 H29     -C26     -C27     : 119.861316  C26     -C27     -C22     : 120.035347
 H30     -C27     -C22     : 120.013508  H30     -C27     -C26     : 119.951144
 C12     -C3      -P1      : 131.059966  C40     -C3      -P1      : 110.785624
 C40     -C3      -C12     : 118.131462  C41     -C4      -P1      : 116.128874
 C42     -C4      -P1      : 113.026784  C42     -C4      -C41     : 106.399174
 C43     -C4      -P1      : 110.789770  C43     -C4      -C41     : 105.498847
 C43     -C4      -C42     : 104.040205  C44     -C5      -P1      : 111.300678
 C45     -C5      -P1      : 119.204606  C45     -C5      -C44     : 106.272661
 C46     -C5      -P1      : 108.205273  C46     -C5      -C44     : 106.276487
 C46     -C5      -C45     : 104.716070  C11     -C6      -C7      : 113.185426
 C12     -C6      -C7      : 128.902142  C12     -C6      -C11     : 117.907472
 C8      -C7      -C6      : 120.445588  C47     -C7      -C6      : 126.272696
 C47     -C7      -C8      : 113.190881  C9      -C8      -C7      : 123.641137
 H48     -C8      -C7      : 120.220415  H48     -C8      -C9      : 116.136032
 C10     -C9      -C8      : 117.174409  H49     -C9      -C8      : 121.625404
 H49     -C9      -C10     : 121.197939  C11     -C10     -C9      : 118.691099
 H50     -C10     -C9      : 120.576882  H50     -C10     -C11     : 120.726129
 C10     -C11     -C6      : 126.858217  H51     -C11     -C6      : 119.275387
 H51     -C11     -C10     : 113.833114  C6      -C12     -C3      : 128.325203
 C13     -C12     -C3      : 114.745268  C13     -C12     -C6      : 116.923480
 C14     -C13     -C12     : 126.170865  H52     -C13     -C12     : 122.191025
 H52     -C13     -C14     : 111.588790  C15     -C14     -C13     : 118.455030
 H53     -C14     -C13     : 121.276669  H53     -C14     -C15     : 120.262240
 C40     -C15     -C14     : 117.231111  H54     -C15     -C14     : 121.259836
 H54     -C15     -C40     : 121.508810  C15     -C40     -C3      : 125.259183
 H31     -C40     -C3      : 120.425273  H31     -C40     -C15     : 114.312890
 H32     -C41     -C4      : 113.174398  H33     -C41     -C4      : 111.517956
 H33     -C41     -H32     : 105.647217  H34     -C41     -C4      : 113.163799
 H34     -C41     -H32     : 107.237261  H34     -C41     -H33     : 105.518965
 H35     -C42     -C4      : 112.024000  H36     -C42     -C4      : 111.790013
 H36     -C42     -H35     : 109.177538  H37     -C42     -C4      : 111.852092
 H37     -C42     -H35     : 105.839287  H37     -C42     -H36     : 105.799717
 H38     -C43     -C4      : 112.584734  H39     -C43     -C4      : 112.030057
 H39     -C43     -H38     : 106.246185  H40     -C43     -C4      : 111.784293
 H40     -C43     -H38     : 107.788972  H40     -C43     -H39     : 106.002022
 H41     -C44     -C5      : 112.299337  H42     -C44     -C5      : 111.892753
 H42     -C44     -H41     : 108.041778  H43     -C44     -C5      : 111.947862
 H43     -C44     -H41     : 106.885212  H43     -C44     -H42     : 105.384630
 H44     -C45     -C5      : 114.388076  H45     -C45     -C5      : 111.189635
 H45     -C45     -H44     : 104.582192  H46     -C45     -C5      : 113.115334
 H46     -C45     -H44     : 107.794313  H46     -C45     -H45     : 105.015438
 H47     -C46     -C5      : 112.465831  H72     -C46     -C5      : 112.138649
 H72     -C46     -H47     : 107.101231  H73     -C46     -C5      : 112.075117
 H73     -C46     -H47     : 105.723140  H73     -C46     -H72     : 106.914603
 H74     -C47     -C7      : 111.898623  H75     -C47     -C7      : 111.967291
 H75     -C47     -H74     : 112.847293  H76     -C47     -C7      : 112.171517
 H76     -C47     -H74     : 104.855447  H76     -C47     -H75     : 102.524593
 
  torsional angles:
 
 P1      -Pd2     -N2      -H18     : -90.757993
 P1      -Pd2     -N2      -C25     :  85.914445
 P1      -Pd2     -C19     -C18     : -77.866342
 P1      -Pd2     -C19     -C20     :  76.385165
 P1      -C3      -C12     -C6      :  -3.663391
 P1      -C3      -C12     -C13     : 177.268009
 P1      -C3      -C40     -C15     :-177.497104
 P1      -C3      -C40     -H31     :   1.875463
 P1      -C4      -C41     -H32     :  62.734490
 P1      -C4      -C41     -H33     :-178.309132
 P1      -C4      -C41     -H34     : -59.524970
 P1      -C4      -C42     -H35     : -63.939610
 P1      -C4      -C42     -H36     :  58.971246
 P1      -C4      -C42     -H37     : 177.411652
 P1      -C4      -C43     -H38     :  59.414977
 P1      -C4      -C43     -H39     : 179.096231
 P1      -C4      -C43     -H40     : -62.089711
 P1      -C5      -C44     -H41     : -56.100819
 P1      -C5      -C44     -H42     :  65.605596
 P1      -C5      -C44     -H43     :-176.347712
 P1      -C5      -C45     -H44     :  67.539832
 P1      -C5      -C45     -H45     :-174.280616
 P1      -C5      -C45     -H46     : -56.402141
 P1      -C5      -C46     -H47     : -58.998981
 P1      -C5      -C46     -H72     :  61.783098
 P1      -C5      -C46     -H73     :-177.955379
 Pd2     -P1      -C3      -C12     :  -2.402410
 Pd2     -P1      -C3      -C40     : 175.783911
 Pd2     -P1      -C4      -C41     : -71.516989
 Pd2     -P1      -C4      -C42     :  51.861904
 Pd2     -P1      -C4      -C43     : 168.178506
 Pd2     -P1      -C5      -C44     : -68.850270
 Pd2     -P1      -C5      -C45     : 166.920857
 Pd2     -P1      -C5      -C46     :  47.567062
 Pd2     -N2      -C25     -C24     :  -1.749720
 Pd2     -N2      -C25     -C26     : 178.414846
 Pd2     -C19     -C18     -C17     : 153.455249
 Pd2     -C19     -C18     -H24     : -25.597701
 Pd2     -C19     -C20     -C21     :-153.203737
 Pd2     -C19     -C20     -H25     :  26.635417
 N2      -Pd2     -P1      -C3      :-170.069171
 N2      -Pd2     -P1      -C4      :  67.973031
 N2      -Pd2     -P1      -C5      : -53.289342
 N2      -Pd2     -C19     -C18     : 102.898911
 N2      -Pd2     -C19     -C20     :-102.849582
 N2      -C25     -C24     -C23     :-179.865623
 N2      -C25     -C24     -H28     :   0.374298
 N2      -C25     -C26     -C27     : 179.817641
 N2      -C25     -C26     -H29     :   0.000816
 C16     -C17     -C18     -C19     :   0.696777
 C16     -C17     -C18     -H24     : 179.759139
 C16     -C21     -C20     -C19     :  -0.505028
 C16     -C21     -C20     -H25     : 179.653248
 C17     -C16     -C21     -C20     :  -0.015749
 C17     -C16     -C21     -H26     :-179.966819
 C17     -C18     -C19     -C20     :  -1.177732
 C18     -C17     -C16     -C21     :  -0.078688
 C18     -C17     -C16     -F10     :-179.816459
 C18     -C19     -C20     -C21     :   1.084678
 C18     -C19     -C20     -H25     :-179.076168
 C19     -Pd2     -P1      -C3      :-172.698498
 C19     -Pd2     -P1      -C4      :  65.343704
 C19     -Pd2     -P1      -C5      : -55.918669
 C19     -Pd2     -N2      -H18     : -87.769877
 C19     -Pd2     -N2      -C25     :  88.902561
 C19     -C18     -C17     -H23     :-179.273433
 C19     -C20     -C21     -H26     : 179.446203
 C20     -C19     -C18     -H24     : 179.769318
 C20     -C21     -C16     -F10     : 179.724855
 C21     -C16     -C17     -H23     : 179.891412
 F10     -C16     -C17     -H23     :   0.153641
 F10     -C16     -C21     -H26     :  -0.226215
 H23     -C17     -C18     -H24     :  -0.211071
 H25     -C20     -C21     -H26     :  -0.395521
 H18     -N2      -C25     -C24     : 175.295222
 H18     -N2      -C25     -C26     :  -4.540212
 C22     -C23     -C24     -C25     :   0.067970
 C22     -C23     -C24     -H28     : 179.827650
 C22     -C27     -C26     -C25     :   0.025968
 C22     -C27     -C26     -H29     : 179.843009
 C23     -C22     -C27     -C26     :   0.012999
 C23     -C22     -C27     -H30     :-179.998541
 C23     -C24     -C25     -C26     :  -0.028951
 C24     -C23     -C22     -C27     :  -0.059892
 C24     -C23     -C22     -H22     : 179.996063
 C24     -C25     -C26     -C27     :  -0.017981
 C24     -C25     -C26     -H29     :-179.834807
 C25     -C24     -C23     -H27     :-179.989011
[...]
    H27      Y     0.00036   0.00534  -0.00449  -0.00183  -0.00032  -0.00008
    H27      Z     0.00014   0.00198  -0.00155  -0.00064  -0.00011   0.00043
    H28      X     0.00003  -0.00012  -0.00096   0.00037  -0.00003  -0.00013
    H28      Y    -0.00012  -0.00010  -0.00143  -0.00024   0.00006   0.00028
    H28      Z    -0.00104  -0.00063  -0.00714  -0.00145   0.00019  -0.00119
    H29      X    -0.00031  -0.00009   0.00020   0.00054  -0.00001   0.00008
    H29      Y     0.00093  -0.00006  -0.00055  -0.00172   0.00006  -0.00207
    H29      Z     0.00032   0.00002  -0.00021  -0.00062   0.00001   0.00158
    H30      X    -0.00001   0.00094  -0.00049   0.00002  -0.00006   0.00006
    H30      Y    -0.00001  -0.00104   0.00040  -0.00000   0.00006  -0.00010
    H30      Z     0.00008  -0.00547   0.00214  -0.00015   0.00038  -0.00041
    C3       X     0.00006  -0.00002  -0.00000  -0.00002   0.00105  -0.00001
    C3       Y     0.00003  -0.00003  -0.00001  -0.00001  -0.00023  -0.00000
    C3       Z     0.00028  -0.00007  -0.00001   0.00011  -0.00254  -0.00002
    C4       X     0.00002   0.00002  -0.00001   0.00004  -0.00007   0.00002
    C4       Y    -0.00001   0.00002  -0.00000   0.00002  -0.00003  -0.00001
    C4       Z    -0.00000  -0.00001  -0.00002  -0.00002   0.00008  -0.00002
    C5       X     0.00003  -0.00001   0.00007   0.00001  -0.00022   0.00001
    C5       Y     0.00002  -0.00001   0.00001  -0.00000   0.00000   0.00001
    C5       Z     0.00001   0.00000   0.00004   0.00000   0.00005  -0.00001
    C6       X    -0.00002   0.00016   0.00001   0.00002   0.00005  -0.00000
    C6       Y    -0.00096  -0.00139  -0.00004  -0.00170   0.00001   0.00001
    C6       Z    -0.00050  -0.00069  -0.00001  -0.00141  -0.00004  -0.00001
    C7       X     0.00007   0.00014   0.00000   0.00001  -0.00001  -0.00008
    C7       Y     0.00027   0.00037  -0.00000  -0.00073   0.00003  -0.00001
    C7       Z     0.00124   0.00180  -0.00003  -0.00077   0.00002  -0.00001
    C8       X    -0.00309  -0.00488   0.00008   0.00314  -0.00001  -0.00002
    C8       Y     0.01978   0.03116  -0.00048  -0.02021   0.00006   0.00003
    C8       Z    -0.01407  -0.02207   0.00032   0.01354  -0.00005   0.00004
    C9       X    -0.00149  -0.00242   0.00006   0.00252  -0.00000   0.00004
    C9       Y    -0.00451  -0.00717   0.00010   0.00404  -0.00001  -0.00002
    C9       Z    -0.02622  -0.04239   0.00090   0.03911  -0.00009   0.00000
    C10      X     0.00020   0.00040  -0.00005  -0.00269   0.00000  -0.00001
    C10      Y     0.00022  -0.00133   0.00074   0.03910  -0.00011   0.00006
    C10      Z     0.00230   0.00286   0.00030   0.01659  -0.00005   0.00006
    C11      X    -0.00311  -0.00462  -0.00010  -0.00654   0.00002  -0.00004
    C11      Y     0.02194   0.03242   0.00064   0.04467  -0.00015  -0.00000
    C11      Z    -0.01710  -0.02527  -0.00055  -0.03744   0.00014  -0.00005
    C12      X     0.00131  -0.00086  -0.00000   0.00003  -0.00051  -0.00000
    C12      Y     0.00014   0.00010   0.00000   0.00018  -0.00011  -0.00000
    C12      Z    -0.00058   0.00043   0.00001  -0.00002  -0.00044  -0.00001
    C13      X    -0.01937   0.01309   0.00002   0.00076  -0.00126  -0.00000
    C13      Y    -0.00420   0.00280   0.00001   0.00014  -0.00029   0.00000
    C13      Z    -0.02142   0.01449   0.00002   0.00097  -0.00155   0.00001
    C14      X    -0.05450   0.03492   0.00001   0.00122  -0.00402   0.00000
    C14      Y    -0.00310   0.00198   0.00000   0.00005  -0.00037   0.00000
    C14      Z     0.01648  -0.01061  -0.00000  -0.00043   0.00012  -0.00000
    C15      X    -0.00459   0.00286  -0.00000   0.00003  -0.00601   0.00000
    C15      Y     0.00352  -0.00222   0.00000  -0.00005   0.00148   0.00000
    C15      Z     0.03227  -0.02036   0.00001  -0.00042   0.01646   0.00000
    C40      X    -0.00472   0.00303   0.00000   0.00029   0.05856   0.00001
    C40      Y    -0.00117   0.00074  -0.00000   0.00005   0.01136   0.00000
    C40      Z    -0.00656   0.00417   0.00000   0.00029   0.05489   0.00001
    C41      X     0.00002  -0.00001   0.00003  -0.00001   0.00002  -0.00000
    C41      Y     0.00001   0.00003   0.00009   0.00003   0.00000  -0.00000
    C41      Z     0.00005   0.00004  -0.00007   0.00004   0.00005   0.00003
    C42      X     0.00067   0.00093   0.00002   0.00103  -0.00002  -0.00001
    C42      Y    -0.00012  -0.00013   0.00001  -0.00013  -0.00006  -0.00000
    C42      Z    -0.00004  -0.00002  -0.00003  -0.00003   0.00011   0.00000
    C43      X     0.00037  -0.00011   0.00002   0.00002  -0.00176  -0.00001
    C43      Y    -0.00001   0.00008   0.00003   0.00006  -0.00026   0.00001
    C43      Z     0.00000   0.00005   0.00002   0.00002   0.00004   0.00001
    C44      X     0.00007  -0.00002   0.00007  -0.00006  -0.00020  -0.00001
    C44      Y     0.00006  -0.00002   0.00002  -0.00003  -0.00006   0.00000
    C44      Z    -0.00004   0.00003  -0.00003  -0.00002   0.00026  -0.00001
    C45      X     0.00099  -0.00060   0.00007  -0.00006  -0.00399  -0.00000
    C45      Y     0.00009  -0.00004   0.00003   0.00001  -0.00039  -0.00001
    C45      Z    -0.00049   0.00030  -0.00005   0.00002   0.00244   0.00000
    C46      X     0.00000   0.00001  -0.00016  -0.00000   0.00010   0.00001
    C46      Y     0.00003  -0.00002   0.00006  -0.00000  -0.00006  -0.00001
    C46      Z    -0.00003   0.00002   0.00008   0.00001   0.00019   0.00000
    C47      X    -0.00014   0.00002   0.00001  -0.00005  -0.00003   0.00000
    C47      Y     0.00028   0.00043   0.00001  -0.00028   0.00002  -0.00000
    C47      Z    -0.00073  -0.00098  -0.00000   0.00020  -0.00008  -0.00001
    H48      X     0.03324   0.05218  -0.00078  -0.03286   0.00012   0.00003
    H48      Y    -0.21502  -0.33785   0.00502   0.21208  -0.00077   0.00007
    H48      Z     0.16491   0.25884  -0.00381  -0.16119   0.00065  -0.00005
    H49      X     0.01759   0.02851  -0.00061  -0.02605   0.00006   0.00003
    H49      Y     0.03938   0.06343  -0.00124  -0.05342   0.00012   0.00009
    H49      Z     0.29411   0.47500  -0.00982  -0.42609   0.00099   0.00009
    H50      X     0.00043  -0.00065   0.00055   0.02984  -0.00009  -0.00008
    H50      Y    -0.00963   0.00298  -0.00797  -0.42286   0.00129  -0.00050
    H50      Z    -0.00687  -0.00345  -0.00324  -0.17330   0.00058  -0.00018
    H51      X     0.03688   0.05477   0.00112   0.07596  -0.00019   0.00000
    H51      Y    -0.25156  -0.37163  -0.00736  -0.51468   0.00149  -0.00019
    H51      Z     0.19691   0.29095   0.00584   0.40666  -0.00123   0.00019
    H52      X     0.22626  -0.15341  -0.00030  -0.00943   0.01432   0.00006
    H52      Y     0.04519  -0.03034  -0.00005  -0.00163   0.00290   0.00001
    H52      Z     0.21769  -0.14743  -0.00026  -0.00921   0.01394   0.00001
    H53      X     0.60331  -0.38674  -0.00006  -0.01383   0.03714  -0.00001
    H53      Y     0.03426  -0.02195  -0.00000  -0.00076   0.00223   0.00000
    H53      Z    -0.18273   0.11722   0.00002   0.00432  -0.00971   0.00001
    H54      X     0.07373  -0.04645   0.00003  -0.00090   0.04113   0.00002
    H54      Y    -0.03580   0.02258  -0.00001   0.00047  -0.01705   0.00000
    H54      Z    -0.34871   0.21982  -0.00011   0.00450  -0.17143  -0.00001
    H31      X     0.07218  -0.04604   0.00004  -0.00339  -0.67409  -0.00001
    H31      Y     0.01447  -0.00924   0.00003  -0.00065  -0.13162   0.00000
    H31      Z     0.07075  -0.04507   0.00001  -0.00304  -0.63256   0.00001
    H32      X     0.00004   0.00004  -0.00028   0.00003   0.00040   0.00010
    H32      Y     0.00003   0.00007  -0.00032   0.00009   0.00024   0.00005
    H32      Z    -0.00020  -0.00024   0.00140  -0.00027  -0.00098  -0.00032
    H33      X    -0.00016   0.00014   0.00018   0.00017  -0.00038  -0.00002
    H33      Y     0.00026  -0.00027  -0.00045  -0.00034   0.00045   0.00003
    H33      Z    -0.00005   0.00007   0.00005   0.00008  -0.00006  -0.00001
    H34      X    -0.00024  -0.00021  -0.00032  -0.00018  -0.00015  -0.00004
    H34      Y    -0.00040  -0.00028  -0.00042  -0.00026  -0.00021  -0.00006
    H34      Z    -0.00034  -0.00025  -0.00054  -0.00024  -0.00013  -0.00002
    H35      X     0.00054   0.00090  -0.00013   0.00108   0.00029   0.00006
    H35      Y    -0.00002   0.00004  -0.00006   0.00010   0.00007  -0.00003
    H35      Z    -0.00019  -0.00080   0.00040  -0.00103  -0.00124   0.00005
    H36      X    -0.00853  -0.01222  -0.00020  -0.01418   0.00054  -0.00000
    H36      Y    -0.00086  -0.00108  -0.00000  -0.00126  -0.00005   0.00000
    H36      Z     0.00079   0.00116  -0.00003   0.00107   0.00008  -0.00000
    H37      X    -0.00107  -0.00120   0.00008  -0.00123  -0.00040   0.00001
    H37      Y     0.00213   0.00241  -0.00019   0.00255   0.00070   0.00003
    H37      Z    -0.00092  -0.00112   0.00005  -0.00119  -0.00021  -0.00003
    H38      X    -0.00005  -0.00042  -0.00015  -0.00029   0.00067  -0.00001
    H38      Y    -0.00022  -0.00088  -0.00032  -0.00058   0.00019  -0.00004
    H38      Z    -0.00022  -0.00074  -0.00030  -0.00053   0.00085  -0.00004
    H39      X    -0.00098   0.00060   0.00004   0.00021   0.00345   0.00000
    H39      Y     0.00150  -0.00086  -0.00007  -0.00031  -0.00448   0.00004
    H39      Z    -0.00031   0.00022   0.00002   0.00012   0.00065  -0.00006
    H40      X    -0.00373   0.00126  -0.00012  -0.00026   0.01986   0.00000
    H40      Y    -0.00081   0.00038  -0.00002   0.00004   0.00369   0.00001
    H40      Z     0.00071  -0.00016   0.00001   0.00011  -0.00315   0.00002
    H41      X    -0.00060   0.00019  -0.00084   0.00041   0.00261  -0.00003
    H41      Y     0.00014  -0.00009  -0.00007   0.00003  -0.00019  -0.00000
    H41      Z     0.00031  -0.00006   0.00052  -0.00035  -0.00077   0.00002
    H42      X     0.00003  -0.00006   0.00004  -0.00000  -0.00012   0.00003
    H42      Y     0.00001   0.00002   0.00004  -0.00005   0.00021  -0.00000
    H42      Z     0.00030  -0.00034  -0.00007   0.00040  -0.00209   0.00008
    H43      X    -0.00039   0.00009  -0.00011   0.00021   0.00008   0.00001
    H43      Y    -0.00076   0.00013  -0.00040   0.00034   0.00012  -0.00006
    H43      Z    -0.00020   0.00003  -0.00014   0.00013   0.00006   0.00000
    H44      X    -0.01001   0.00606  -0.00119   0.00041   0.04939  -0.00002
    H44      Y    -0.00289   0.00178  -0.00032   0.00013   0.01578   0.00001
    H44      Z     0.00731  -0.00440   0.00108  -0.00033  -0.03449   0.00003
    H45      X    -0.00056   0.00024  -0.00012   0.00003   0.00084  -0.00004
    H45      Y    -0.00178   0.00084  -0.00038   0.00011   0.00455  -0.00007
    H45      Z    -0.00058   0.00028  -0.00023   0.00004   0.00181  -0.00007
    H46      X    -0.00263   0.00164  -0.00006   0.00031   0.00853   0.00001
    H46      Y     0.00276  -0.00168   0.00013  -0.00029  -0.00934   0.00001
    H46      Z    -0.00073   0.00046  -0.00006   0.00008   0.00264   0.00000
    H47      X     0.00014  -0.00006   0.00060  -0.00005  -0.00067   0.00003
    H47      Y    -0.00005   0.00003  -0.00011  -0.00000   0.00036  -0.00002
    H47      Z     0.00045  -0.00026  -0.00219  -0.00007  -0.00216  -0.00010
    H72      X    -0.00002  -0.00010   0.00121   0.00004  -0.00007  -0.00007
    H72      Y     0.00004   0.00011  -0.00113  -0.00004   0.00023   0.00009
    H72      Z     0.00001  -0.00001   0.00032  -0.00001  -0.00003  -0.00003
    H73      X    -0.00026   0.00005  -0.00002   0.00003  -0.00012  -0.00004
    H73      Y    -0.00044   0.00008  -0.00017   0.00006  -0.00017  -0.00003
    H73      Z    -0.00015   0.00002   0.00008   0.00002  -0.00007   0.00000
    H74      X     0.00117  -0.00003   0.00001  -0.00116   0.00022  -0.00002
    H74      Y    -0.00060  -0.00018  -0.00001   0.00074  -0.00007   0.00001
    H74      Z    -0.00057  -0.00070  -0.00000   0.00056  -0.00008   0.00003
    H75      X     0.00247   0.00286  -0.00002   0.00019   0.00043   0.00006
    H75      Y     0.00004  -0.00033   0.00001   0.00077   0.00020   0.00002
    H75      Z     0.00417   0.00478  -0.00002   0.00070   0.00066   0.00010
    H76      X    -0.00184  -0.00298  -0.00008   0.00134  -0.00014   0.00002
    H76      Y    -0.00448  -0.00684  -0.00009   0.00390  -0.00035  -0.00003
    H76      Z     0.00344   0.00519   0.00011  -0.00243   0.00038   0.00001
  
  Number of imaginary frequencies:   1
   
  Writing vibrational animation data to red_elim_TS_L1_PL154_4.vib
  Writing IR vibrational spectrum data to red_elim_TS_L1_PL154_4_vib.spm
  rotational symmetry number:  1

  rotational temperatures (K):      0.006202      0.004555      0.003348
   
  The Quasi-Harmonic approximation will be applied to compute
  vibrational constributions to thermodynamic properties.
  Frequencies will be adjusted to a minimum value of  100.00 cm^-1.

    1 vibrational frequencies below    0.0 cm-1 not included in zero-point
  energy or thermochemical analysis.  Set freqcut to change the frequency
  cutoff value.

  vibrational temperatures:
       mode:      2        3        4        5        6        7
  temp. (K):   143.88   143.88   143.88   143.88   143.88   143.88
   
       mode:      8        9       10       11       12       13
  temp. (K):   143.88   143.88   143.88   143.88   143.88   145.13
   
       mode:     14       15       16       17       18       19
  temp. (K):   158.22   161.16   170.61   183.71   189.38   211.74
   
       mode:     20       21       22       23       24       25
  temp. (K):   223.93   233.91   239.19   290.06   293.03   300.70
   
       mode:     26       27       28       29       30       31
  temp. (K):   308.46   338.60   339.41   350.18   370.50   375.44
   
       mode:     32       33       34       35       36       37
  temp. (K):   382.99   391.63   399.92   413.94   438.00   455.66
   
       mode:     38       39       40       41       42       43
  temp. (K):   472.27   474.00   484.26   489.33   506.46   512.44
   
       mode:     44       45       46       47       48       49
  temp. (K):   556.54   581.07   587.90   589.54   594.37   597.01
   
       mode:     50       51       52       53       54       55
  temp. (K):   614.18   619.91   627.05   656.34   688.60   703.44
   
       mode:     56       57       58       59       60       61
  temp. (K):   732.16   745.62   755.63   775.89   789.21   798.93
   
       mode:     62       63       64       65       66       67
  temp. (K):   802.91   833.09   842.77   858.89   891.33   908.09
   
       mode:     68       69       70       71       72       73
  temp. (K):   908.74   914.00   980.14   993.51  1031.63  1047.01
   
       mode:     74       75       76       77       78       79
  temp. (K):  1079.11  1099.49  1107.88  1110.09  1119.46  1140.26
   
       mode:     80       81       82       83       84       85
  temp. (K):  1171.89  1175.37  1178.80  1185.20  1199.84  1204.03
   
       mode:     86       87       88       89       90       91
  temp. (K):  1216.77  1248.60  1267.35  1297.43  1305.30  1337.73
   
       mode:     92       93       94       95       96       97
  temp. (K):  1359.03  1377.04  1378.89  1383.69  1384.95  1392.38
   
       mode:     98       99      100      101      102      103
  temp. (K):  1411.97  1413.44  1416.29  1422.02  1432.81  1438.28
   
       mode:    104      105      106      107      108      109
  temp. (K):  1446.32  1455.19  1463.08  1465.19  1473.51  1474.14
   
       mode:    110      111      112      113      114      115
  temp. (K):  1503.03  1516.51  1519.43  1522.64  1525.34  1526.94
   
       mode:    116      117      118      119      120      121
  temp. (K):  1540.08  1561.93  1594.91  1604.17  1631.59  1664.03
   
       mode:    122      123      124      125      126      127
  temp. (K):  1680.40  1718.15  1722.71  1737.60  1740.38  1746.56
   
       mode:    128      129      130      131      132      133
  temp. (K):  1751.13  1757.63  1773.60  1776.86  1784.41  1797.24
   
       mode:    134      135      136      137      138      139
  temp. (K):  1800.06  1830.00  1840.87  1849.31  1877.81  1896.41
   
       mode:    140      141      142      143      144      145
  temp. (K):  1897.65  1919.78  1929.52  1942.21  1963.38  1988.06
   
       mode:    146      147      148      149      150      151
  temp. (K):  2030.94  2040.80  2047.80  2053.34  2055.91  2064.23
   
       mode:    152      153      154      155      156      157
  temp. (K):  2078.47  2091.66  2103.96  2120.35  2135.60  2158.13
   
       mode:    158      159      160      161      162      163
  temp. (K):  2161.60  2167.42  2169.54  2173.96  2174.88  2176.40
   
       mode:    164      165      166      167      168      169
  temp. (K):  2179.51  2184.81  2185.26  2188.64  2198.56  2203.83
   
       mode:    170      171      172      173      174      175
  temp. (K):  2210.59  2214.61  2218.27  2222.05  2226.87  2236.51
   
       mode:    176      177      178      179      180      181
  temp. (K):  2334.22  2339.83  2342.79  2361.34  2378.53  2382.55
   
       mode:    182      183      184      185      186      187
  temp. (K):  2393.16  2403.49  4369.17  4373.42  4375.78  4379.79
   
       mode:    188      189      190      191      192      193
  temp. (K):  4383.91  4387.53  4388.89  4476.42  4477.00  4481.51
   
       mode:    194      195      196      197      198      199
  temp. (K):  4488.54  4488.91  4493.79  4511.97  4516.67  4520.07
   
       mode:    200      201      202      203      204      205
  temp. (K):  4528.89  4542.89  4556.14  4557.86  4563.09  4564.18
   
       mode:    206      207      208      209      210      211
  temp. (K):  4570.27  4578.18  4583.01  4584.24  4585.26  4589.73
   
       mode:    212      213      214      215      216      217
  temp. (K):  4598.40  4601.51  4601.99  4612.84  4614.91  4619.94
   
       mode:    218      219      220      221      222
  temp. (K):  4620.10  4629.70  4630.42  4667.26  5153.73
   
   
  Thermodynamic properties calculated assuming an ideal gas

  In the table below, the units for temperature
  are kelvins, the units for U, H, and G are
  kcal/mol and the units for Cv and S are cal/(mol K)

  The zero point energy (ZPE):    402.465 kcal/mol
  is not included in U, H, or G in the table below
  
 
  =============================================================================
  Thermodynamic properties for P = 1.00E+00 atm, calculated at   1 temperatures


  T =   298.15 K, P = 1.00E+00 atm
   
                  U         Cv          S          H          G        ln(Q)
              =========  =========  =========  =========  =========  =========
  trans.          0.889      2.981     45.085      1.481    -11.961   20.18742
  rot.            0.889      2.981     37.172      0.889    -10.194   17.20558
  vib.           20.985    140.211    126.385     20.985    -16.697   28.18085
  elec.           0.000      0.000      0.000      0.000      0.000    0.00000
  ----------------------------------------------------------------------------
  total          22.762    146.172    208.642     23.355    -38.852   65.57385
   
   Total internal energy, Utot(SCFE + ZPE + U):   -1902.592312 hartrees
   Total enthalpy, Htot (Utot + nRT), with n=1:   -1902.591368 hartrees
    Total Gibbs free energy, Gtot (Htot - T*S):   -1902.690500 hartrees
   
  end of program freq
   
 Time(freq)  user:       0.331  user+sys:       0.331  wallclock:       0.500
  
  start of program post
  
  Writing input files for PBF
  end of program post
   
 Time(post)  user:       0.173  user+sys:       0.173  wallclock:       0.106

 Total cpu seconds     user:   73854.530   user+sys:   73854.530
  
 Total elapsed time:    59042 seconds

Job red_elim_TS_L1_PL154_4 completed on bp1-compute054.data.bp.acrc.priv at Tue Apr 15 08:02:09 2025
