Job red_elim_Ar_trans_L1_PL154 started on bp1-compute145.data.bp.acrc.priv at Sat Mar 22 18:26:56 2025
jobid: bp1-compute145-0-67df00e9

  +--------------------------------------------------------------------+
  |  Jaguar version 12.5, release 138                                  |
  |                                                                    |
  |  Copyright Schrodinger, Inc.                                       |
  |  All Rights Reserved.                                              |
  |                                                                    |
  |  The following have contributed to Jaguar (listed alphabetically): |
  |  Ty Balduf, Mike Beachy, Chandler Bennett, Art Bochevarov,         |
  |  Dale Braden, Yixiang Cao, Alan Chien, Chris Cortis,               |
  |  Rich Friesner, Jim Furness, Bill Goddard, Hod Greeley,            |
  |  Tom Hughes, Leif Jacobson, Jean-Marc Langlois, Daniel Levine,     |
  |  Rob Murphy, Dean Philipp, Tom Pollard, Murco Ringnalda,           |
  |  Daniel Mainz, Pablo Videla, Mark Watson, Haoyu Yu.                |
  |                                                                    |
  |  Use of this program should be acknowledged in publications as:    |
  |                                                                    |
  |  Jaguar, version 12.5, Schrodinger, Inc., New York, NY, 2024.      |
  |                                                                    |
  |  A. D. Bochevarov, E. Harder, T. F. Hughes, J. R. Greenwood,       |
  |  D. A. Braden, D. M. Philipp, D. Rinaldo, M. D. Halls,             |
  |  J. Zhang, R. A. Friesner, "Jaguar: A High-Performance Quantum     |
  |  Chemistry Software Program with Strengths in Life and Materials   |
  |  Sciences", Int. J. Quantum Chem., 2013, 113(18), 2110-2142.       |
  +--------------------------------------------------------------------+
  
  start of program pre
  
  Job name: red_elim_Ar_trans_L1_PL154
  Executables used: /software/local/apps/schrodinger2024-3/jaguar-v12.5/bin/Linux-x86_64
  Temporary files : /tmp/ar21627/red_elim_Ar_trans_L1_PL154#bp1-compute145-0-67df00e9
  Basis file : using default basis file from /software/local/apps/schrodinger2024-3
  Maestro file (input):  red_elim_Ar_trans_L1_PL154.mae
  Maestro file (output): red_elim_Ar_trans_L1_PL154.01.mae
  
 Contents of input file: &gen and (if present) &atomic sections only
 ----------------Contents start----------------
&gen
dftname=b3pw91-d3
basis=6-31G*
numd=5
ip11=2
iaccg=3
isolv=2
igeopt=1
solvent=benzene
ifreq=1
&
&atomic
atom basis
Pd2 lacv3p*
&
 -----------------Contents end-----------------
 
  PS calculation requested. Using PS version of 6-31g*
  basis set:               non_standard                    
  net molecular charge:    0
  multiplicity:            1
  
  Using up to   4 threads per process
  
  This run will use ECP on 1 atom
  number of basis functions....          617
  
  input atom labels were not unique
  original atom labels:
 P1       Pd2      N2       C17      C18      C19      C20      C21     
 C22      F10      H24      H25      H26      H27      H15      C16     
 C23      C24      C25      C26      C27      H22      H23      H28     
 H29      H30      C3       C4       C5       C6       C7       C8      
 C9       C10      C11      C12      C13      C14      C15      C16     
 C17      C18      C19      C20      C21      C22      C23      H24     
 H25      H26      H27      H28      H29      H30      H31      H32     
 H33      H34      H35      H36      H37      H38      H39      H40     
 H41      H42      H43      H44      H45      H46      H47      H48     
 H49      H50      H51      H52     
  new atom labels:
 P1       Pd2      N3       C4       C5       C6       C7       C8      
 C9       F10      H11      H12      H13      H14      H15      C16     
 C17      C18      C19      C20      C21      H22      H23      H24     
 H25      H26      C27      C28      C29      C30      C31      C32     
 C33      C34      C35      C36      C37      C38      C39      C40     
 C41      C42      C43      C44      C45      C46      C47      H48     
 H49      H50      H51      H52      H53      H54      H55      H56     
 H57      H58      H59      H60      H61      H62      H63      H64     
 H65      H66      H67      H68      H69      H70      H71      H72     
 H73      H74      H75      H76     
 
  
 Input geometry:
                                   angstroms
  atom               x                 y                 z
  P1            0.0000000000      0.0000000000      0.0000000000 
  Pd2           0.0000000000      0.0000000000      2.3082054643 
  N3            0.1788512843      0.0000000000      4.2821546393 
  C4           -4.8153127483     -0.3274060269      2.4728587299 
  C5           -4.1771486059      0.9163971430      2.4268368548 
  C6           -2.7845035475      1.0180348174      2.3585086104 
  C7           -1.9897377996     -0.1325557428      2.3361678490 
  C8           -2.6185933713     -1.3825413935      2.3892643642 
  C9           -4.0102238691     -1.4731617659      2.4562393944 
  F10          -6.1438796496     -0.4265951501      2.5171363382 
  H11          -4.7762644751      1.8269144636      2.4507953686 
  H12          -2.3246655105      2.0036612178      2.3388949646 
  H13          -2.0256782389     -2.2945297691      2.3924677039 
  H14          -4.4785719676     -2.4567354791      2.5037733082 
  H15           0.4761748790     -0.9383747116      4.7731246798 
  C16          -2.8096742856      1.9640045085      6.6094358907 
  C17          -2.7617417041      0.5608644961      6.5675452784 
  C18          -1.7779904083     -0.0856389270      5.8014597990 
  C19          -0.8421716781      0.6709976622      5.0772649521 
  C20          -0.8900342122      2.0740916436      5.1191010253 
  C21          -1.8738555554      2.7206410976      5.8852410438 
  H22          -3.5825266865      2.4719090134      7.2112861547 
  H23          -3.4970257502     -0.0334759797      7.1365543911 
  H24          -1.7403519982     -1.1879299386      5.7685641186 
  H25          -0.1548567206      2.6683893749      4.5501744900 
  H26          -1.9114939531      3.8229321092      5.9181367401 
  C27           1.8168740000      0.0000000000     -0.5778410000 
  C28          -0.8434890000      1.4252840000     -0.9715180000 
  C29          -0.8972560000     -1.6587410000     -0.3454820000 
  C30           3.1495210000      1.3984640000      1.1560820000 
  C31           3.8588263281      1.1355513573      2.3736813746 
  C32           3.8867198551      2.0949863329      3.4109786919 
  C33           3.2436713859      3.3334635638      3.3380250593 
  C34           2.5408797757      3.6173351334      2.1694795371 
  C35           2.5256422589      2.6599211623      1.1483858364 
  C36           3.0135280000      0.5741960000     -0.0169290000 
  C37           4.1905000000      0.2861180000     -0.7490990000 
  C38           4.2768280000     -0.4722710000     -1.9225270000 
  C39           3.1083040000     -1.0053740000     -2.4560800000 
  C40           1.9211360000     -0.7480340000     -1.7680690000 
  C41          -2.3917700000      1.4641300000     -0.9448800000 
  C42          -0.3788420000      2.8361950000     -0.5323130000 
  C43          -0.4455240000      1.3408580000     -2.4674050000 
  C44          -0.0177960000     -2.8755410000      0.0296550000 
  C45          -1.4453590000     -1.9535040000     -1.7679970000 
  C46          -2.1262300000     -1.7392700000      0.5941800000 
  C47           4.5637188704     -0.1496340805      2.7549693092 
  H48           4.4281014864      1.8864358777      4.3488201825 
  H49           3.2854925696      4.0574705499      4.1691033164 
  H50           2.0157266420      4.5805592357      2.0515936415 
  H51           1.9883373856      2.9823097538      0.2660395240 
  H52           5.1648570000      0.6855070000     -0.4721570000 
  H53           5.2430580000     -0.6375380000     -2.4300450000 
  H54           3.1237660000     -1.6027090000     -3.3835720000 
  H55           1.0324530000     -1.1846760000     -2.2280190000 
  H56          -2.8081380000      1.6140360000      0.0705490000 
  H57          -2.7931410000      2.3029860000     -1.5580800000 
  H58          -2.8583580000      0.5482850000     -1.3582140000 
  H59          -0.6553110000      3.0576040000      0.5218020000 
  H60           0.7195950000      2.9676930000     -0.6585650000 
  H61          -0.8498760000      3.6399150000     -1.1432090000 
  H62          -0.7462210000      0.3798070000     -2.9348810000 
  H63          -0.9210170000      2.1442960000     -3.0752880000 
  H64           0.6524840000      1.4549820000     -2.6096750000 
  H65           0.9648250000     -2.8622550000     -0.4905250000 
  H66           0.1711760000     -2.9295420000      1.1223420000 
  H67          -0.5069560000     -3.8419160000     -0.2300880000 
  H68          -0.6634350000     -2.0908620000     -2.5422720000 
  H69          -2.0275400000     -2.9029450000     -1.7892070000 
  H70          -2.1492470000     -1.1796830000     -2.1325550000 
  H71          -1.8356470000     -1.6862910000      1.6668530000 
  H72          -2.8513880000     -0.9189660000      0.4051340000 
  H73          -2.6842430000     -2.6960970000      0.4765580000 
  H74           5.6022699500     -0.1875264494      2.3540258547 
  H75           3.9615378474     -1.0487278623      2.4922235730 
  H76           4.6795764486     -0.2577548218      3.8570505592 
   
  principal moments of inertia:
        amu*angstrom^2:              3869.04209              5816.38999              7812.84821
                g*cm^2:          6.42469475E-37          9.65834161E-37          1.29735381E-36
   
  rotational constants:
               cm^(-1):      0.00435705      0.00289830      0.00215768
                   GHz:      0.13062122      0.08688878      0.06468563
   
  Molecular weight:     605.18 amu
   
  Stoichiometry: PdC33PNH39F
  Molecular Point Group: C1      
  Point Group used: C1
  
 
Number of optimization coordinates:   265
Number of independent coordinates:    265
Number of non-redundant coordinates:  222
Number of frozen coordinates:           0
Number of harmonic constraints:         0
 
Number of geometric degrees of freedom:   222
Maximum geometric degrees of freedom:     222
 " " " " " excluding dummy atoms:         222
 
 
  bond lengths (angstroms):
 
 P1      -Pd2     :   2.308205      P1      -C27     :   1.906550
 P1      -C28     :   1.920093      P1      -C29     :   1.917250
 Pd2     -N3      :   1.982035      Pd2     -C7      :   1.994344
 N3      -H15     :   1.100000      N3      -C19     :   1.457713
 C4      -C5      :   1.398720      C4      -C9      :   1.400429
 C4      -F10     :   1.333000      C5      -C6      :   1.398020
 C5      -H11     :   1.090209      C6      -C7      :   1.398574
 C6      -H12     :   1.087794      C7      -C8      :   1.400265
 C8      -C9      :   1.396185      C8      -H13     :   1.087787
 C8      -H71     :   1.107767      C9      -H14     :   1.090425
 C16     -C17     :   1.404583      C16     -C21     :   1.404533
 C16     -H22     :   1.103400      C17     -C18     :   1.404500
 C17     -H23     :   1.103474      C18     -C19     :   1.404533
 C18     -H24     :   1.103424      C19     -C20     :   1.404533
 C20     -C21     :   1.404600      C20     -H25     :   1.103337
 C21     -H26     :   1.103424      C27     -C36     :   1.440939
 C27     -C40     :   1.409634      C28     -C41     :   1.548997
 C28     -C42     :   1.549022      C28     -C43     :   1.550220
 C29     -C44     :   1.547508      C29     -C45     :   1.552692
 C29     -C46     :   1.549137      C30     -C31     :   1.433452
 C30     -C35     :   1.407323      C30     -C36     :   1.440093
 C31     -C32     :   1.413251      C31     -C47     :   1.514581
 C32     -C33     :   1.397376      C32     -H48     :   1.102785
 C33     -C34     :   1.392838      C33     -H49     :   1.103008
 C34     -C35     :   1.399824      C34     -H50     :   1.103396
 C35     -H51     :   1.082204      C36     -C37     :   1.415742
 C37     -C38     :   1.399836      C37     -H52     :   1.088843
 C38     -C39     :   1.390800      C38     -H53     :   1.103851
 C39     -C40     :   1.396048      C39     -H54     :   1.103308
 C40     -H55     :   1.091773      C41     -H56     :   1.107669
 C41     -H57     :   1.113909      C41     -H58     :   1.107845
 C42     -H59     :   1.112032      C42     -H60     :   1.113461
 C42     -H61     :   1.114017      C43     -H62     :   1.110212
 C43     -H63     :   1.114059      C43     -H64     :   1.113053
 C44     -H65     :   1.111894      C44     -H66     :   1.110221
 C44     -H67     :   1.113833      C45     -H68     :   1.108952
 C45     -H69     :   1.113922      C45     -H70     :   1.107772
 C46     -H71     :   1.112597      C46     -H72     :   1.111077
 C46     -H73     :   1.113881      C47     -H74     :   1.113903
 C47     -H75     :   1.113565      C47     -H76     :   1.113416
 
  bond angles:
 
 C27     -P1      -Pd2     : 107.642814  C28     -P1      -Pd2     : 120.396068
 C28     -P1      -C27     : 105.383690  C29     -P1      -Pd2     : 100.381213
 C29     -P1      -C27     : 113.039431  C29     -P1      -C28     : 110.209354
 N3      -Pd2     -P1      : 174.822805  C7      -Pd2     -P1      :  90.803361
 C7      -Pd2     -N3      :  94.362366  H15     -N3      -Pd2     : 117.963296
 C19     -N3      -Pd2     : 118.686804  C19     -N3      -H15     : 109.788049
 C9      -C4      -C5      : 117.700487  F10     -C4      -C5      : 121.466051
 F10     -C4      -C9      : 120.829905  C6      -C5      -C4      : 121.382694
 H11     -C5      -C4      : 119.421122  H11     -C5      -C6      : 119.195116
 C7      -C6      -C5      : 120.467804  H12     -C6      -C5      : 119.199658
 H12     -C6      -C7      : 120.325406  C6      -C7      -Pd2     : 120.830445
 C8      -C7      -Pd2     : 120.525671  C8      -C7      -C6      : 118.592816
 C9      -C8      -C7      : 120.490217  H13     -C8      -C7      : 120.247412
 H13     -C8      -C9      : 119.257121  H71     -C8      -C7      :  84.412334
 H71     -C8      -C9      : 135.886239  H71     -C8      -H13     :  52.178288
 C8      -C9      -C4      : 121.364383  H14     -C9      -C4      : 119.376002
 H14     -C9      -C8      : 119.258140  C21     -C16     -C17     : 120.002746
 H22     -C16     -C17     : 120.000393  H22     -C16     -C21     : 119.996860
 C18     -C17     -C16     : 120.000393  H23     -C17     -C16     : 119.995826
 H23     -C17     -C18     : 120.003781  C19     -C18     -C17     : 119.996860
 H24     -C18     -C17     : 119.999284  H24     -C18     -C19     : 120.003855
 C18     -C19     -N3      : 119.996860  C20     -C19     -N3      : 119.996860
 C20     -C19     -C18     : 120.006279  C21     -C20     -C19     : 119.996860
 H25     -C20     -C19     : 120.001259  H25     -C20     -C21     : 120.001881
 C20     -C21     -C16     : 119.996860  H26     -C21     -C16     : 120.003855
 H26     -C21     -C20     : 119.999284  C36     -C27     -P1      : 132.332083
 C40     -C27     -P1      : 109.049994  C40     -C27     -C36     : 118.601565
 C41     -C28     -P1      : 116.680003  C42     -C28     -P1      : 113.633317
 C42     -C28     -C41     : 105.789550  C43     -C28     -P1      : 109.575020
 C43     -C28     -C41     : 105.935583  C43     -C28     -C42     : 104.252746
 C44     -C29     -P1      : 111.754645  C45     -C29     -P1      : 119.639032
 C45     -C29     -C44     : 105.868645  C46     -C29     -P1      : 107.875063
 C46     -C29     -C44     : 105.244514  C46     -C29     -C45     : 105.414608
 C35     -C30     -C31     : 112.855389  C36     -C30     -C31     : 129.318543
 C36     -C30     -C35     : 117.822169  C32     -C31     -C30     : 120.577643
 C47     -C31     -C30     : 126.852870  C47     -C31     -C32     : 112.463886
 C33     -C32     -C31     : 123.661511  H48     -C32     -C31     : 120.364684
 H48     -C32     -C33     : 115.971317  C34     -C33     -C32     : 117.169856
 H49     -C33     -C32     : 121.666137  H49     -C33     -C34     : 121.163760
 C35     -C34     -C33     : 118.559909  H50     -C34     -C33     : 120.510758
 H50     -C34     -C35     : 120.927422  C34     -C35     -C30     : 127.174781
 H51     -C35     -C30     : 119.444547  H51     -C35     -C34     : 113.352565
 C30     -C36     -C27     : 128.578123  C37     -C36     -C27     : 114.079668
 C37     -C36     -C30     : 117.336141  C38     -C37     -C36     : 126.514616
 H52     -C37     -C36     : 122.531223  H52     -C37     -C38     : 110.900352
 C39     -C38     -C37     : 118.517836  H53     -C38     -C37     : 121.365931
 H53     -C38     -C39     : 120.110049  C40     -C39     -C38     : 117.048897
 H54     -C39     -C38     : 121.214686  H54     -C39     -C40     : 121.736280
 C39     -C40     -C27     : 125.228312  H55     -C40     -C27     : 120.513439
 H55     -C40     -C39     : 114.258064  H56     -C41     -C28     : 113.258537
 H57     -C41     -C28     : 111.689655  H57     -C41     -H56     : 105.503065
 H58     -C41     -C28     : 113.192670  H58     -C41     -H56     : 107.193094
 H58     -C41     -H57     : 105.391539  H59     -C42     -C28     : 112.058038
 H60     -C42     -C28     : 111.797889  H60     -C42     -H59     : 109.222001
 H61     -C42     -C28     : 112.013244  H61     -C42     -H59     : 105.726505
 H61     -C42     -H60     : 105.648678  H62     -C43     -C28     : 112.576983
 H63     -C43     -C28     : 112.189921  H63     -C43     -H62     : 106.196471
 H64     -C43     -C28     : 111.777365  H64     -C43     -H62     : 107.585060
 H64     -C43     -H63     : 106.102308  H65     -C44     -C29     : 112.298348
 H66     -C44     -C29     : 111.935505  H66     -C44     -H65     : 108.095584
 H67     -C44     -C29     : 112.091550  H67     -C44     -H65     : 106.820756
 H67     -C44     -H66     : 105.192635  H68     -C45     -C29     : 114.473937
 H69     -C45     -C29     : 111.330423  H69     -C45     -H68     : 104.456631
 H70     -C45     -C29     : 113.153150  H70     -C45     -H68     : 107.744798
 H70     -C45     -H69     : 104.894240  H71     -C46     -C29     : 112.032471
 H72     -C46     -C29     : 112.097904  H72     -C46     -H71     : 107.418253
 H73     -C46     -C29     : 112.211684  H73     -C46     -H71     : 105.875619
 H73     -C46     -H72     : 106.814392  H74     -C47     -C31     : 111.849660
 H75     -C47     -C31     : 111.964901  H75     -C47     -H74     : 113.066083
 H76     -C47     -C31     : 112.334273  H76     -C47     -H74     : 104.830478
 H76     -C47     -H75     : 102.205211  C46     -H71     -C8      : 117.206286
 
  torsional angles:
 
 P1      -Pd2     -N3      -H15     : -74.978888
 P1      -Pd2     -N3      -C19     : 148.351031
 P1      -Pd2     -C7      -C6      : -90.586464
 P1      -Pd2     -C7      -C8      :  92.049113
 P1      -C27     -C36     -C30     :  -3.538704
 P1      -C27     -C36     -C37     : 177.391602
 P1      -C27     -C40     -C39     :-177.644279
 P1      -C27     -C40     -H55     :   2.190069
 P1      -C28     -C41     -H56     :  62.775020
 P1      -C28     -C41     -H57     :-178.274494
 P1      -C28     -C41     -H58     : -59.513232
 P1      -C28     -C42     -H59     : -63.928460
 P1      -C28     -C42     -H60     :  59.071534
 P1      -C28     -C42     -H61     : 177.433697
 P1      -C28     -C43     -H62     :  59.682494
 P1      -C28     -C43     -H63     : 179.407630
 P1      -C28     -C43     -H64     : -61.546178
 P1      -C29     -C44     -H65     : -56.022773
 P1      -C29     -C44     -H66     :  65.784275
 P1      -C29     -C44     -H67     :-176.287823
 P1      -C29     -C45     -H68     :  67.566361
 P1      -C29     -C45     -H69     :-174.255908
 P1      -C29     -C45     -H70     : -56.409800
 P1      -C29     -C46     -H71     : -59.157476
 P1      -C29     -C46     -H72     :  61.695607
 P1      -C29     -C46     -H73     :-178.104440
 Pd2     -P1      -C27     -C36     : -32.618306
 Pd2     -P1      -C27     -C40     : 145.847045
 Pd2     -P1      -C28     -C41     : -71.513102
 Pd2     -P1      -C28     -C42     :  52.011638
 Pd2     -P1      -C28     -C43     : 168.168159
 Pd2     -P1      -C29     -C44     : -70.217488
 Pd2     -P1      -C29     -C45     : 165.326564
 Pd2     -P1      -C29     -C46     :  45.006587
 Pd2     -N3      -C19     -C18     : 106.312675
 Pd2     -N3      -C19     -C20     : -73.687327
 Pd2     -C7      -C6      -C5      :-177.677437
 Pd2     -C7      -C6      -H12     :   1.343357
 Pd2     -C7      -C8      -C9      : 177.739254
 Pd2     -C7      -C8      -H13     :  -1.421133
 Pd2     -C7      -C8      -H71     : -41.041730
 N3      -Pd2     -P1      -C27     :   0.000000
 N3      -Pd2     -P1      -C28     :-120.617223
 N3      -Pd2     -P1      -C29     : 118.410104
 N3      -Pd2     -C7      -C6      :  89.758208
 N3      -Pd2     -C7      -C8      : -87.606214
 N3      -C19     -C18     -C17     : 179.999998
 N3      -C19     -C18     -H24     :  -0.000001
 N3      -C19     -C20     -C21     :-179.999998
 N3      -C19     -C20     -H25     :   0.000002
 C4      -C5      -C6      -C7      :  -0.085567
 C4      -C5      -C6      -H12     :-179.117303
 C4      -C9      -C8      -C7      :  -0.023898
 C4      -C9      -C8      -H13     : 179.144744
 C4      -C9      -C8      -H71     :-116.446619
 C5      -C4      -C9      -C8      :  -0.318521
 C5      -C4      -C9      -H14     : 179.236263
 C5      -C6      -C7      -C8      :  -0.263028
 C6      -C5      -C4      -C9      :   0.372937
 C6      -C5      -C4      -F10     :-178.946312
 C6      -C7      -C8      -C9      :   0.316693
 C6      -C7      -C8      -H13     :-178.843694
 C6      -C7      -C8      -H71     : 141.535710
 C7      -Pd2     -P1      -C27     :-176.188604
 C7      -Pd2     -P1      -C28     :  63.194173
 C7      -Pd2     -P1      -C29     : -57.778500
 C7      -Pd2     -N3      -H15     : 101.199002
 C7      -Pd2     -N3      -C19     : -35.471079
 C7      -C6      -C5      -H11     : 179.536272
 C7      -C8      -C9      -H14     :-179.579196
 C7      -C8      -H71     -C46     :-100.925215
 C8      -C7      -C6      -H12     : 178.757766
 C8      -C9      -C4      -F10     : 179.005281
 C8      -H71     -C46     -C29     : 159.165601
 C8      -H71     -C46     -H72     :  35.641116
 C8      -H71     -C46     -H73     : -78.213725
 C9      -C4      -C5      -H11     :-179.248064
 C9      -C8      -H71     -C46     :  28.235170
 F10     -C4      -C5      -H11     :   1.432687
 F10     -C4      -C9      -H14     :  -1.439936
 H11     -C5      -C6      -H12     :   0.504536
 H13     -C8      -C9      -H14     :  -0.410554
 H13     -C8      -H71     -C46     : 123.292663
 H14     -C9      -C8      -H71     :  63.998083
 H15     -N3      -C19     -C18     : -33.587775
 H15     -N3      -C19     -C20     : 146.412224
 C16     -C17     -C18     -C19     :   0.000001
 C16     -C17     -C18     -H24     :-179.999999
 C16     -C21     -C20     -C19     :   0.000000
 C16     -C21     -C20     -H25     : 180.000000
 C17     -C16     -C21     -C20     :   0.000001
 C17     -C16     -C21     -H26     :-179.999999
 C17     -C18     -C19     -C20     :   0.000000
 C18     -C17     -C16     -C21     :  -0.000001
 C18     -C17     -C16     -H22     : 179.999999
 C18     -C19     -C20     -C21     :   0.000000
 C18     -C19     -C20     -H25     : 180.000000
 C19     -C18     -C17     -H23     : 179.999999
 C19     -C20     -C21     -H26     : 179.999999
 C20     -C19     -C18     -H24     : 180.000000
 C20     -C21     -C16     -H22     :-179.999999
 C21     -C16     -C17     -H23     :-179.999999
 H22     -C16     -C17     -H23     :   0.000001
 H22     -C16     -C21     -H26     :   0.000001
 H23     -C17     -C18     -H24     :  -0.000002
 H25     -C20     -C21     -H26     :  -0.000001
 C27     -P1      -C28     -C41     : 166.762405
 C27     -P1      -C28     -C42     : -69.712856
 C27     -P1      -C28     -C43     :  46.443665
 C27     -P1      -C29     -C44     :  44.159859
 C27     -P1      -C29     -C45     : -80.296088
 C27     -P1      -C29     -C46     : 159.383935
 C27     -C36     -C30     -C31     : 116.873206
 C27     -C36     -C30     -C35     : -63.902545
 C27     -C36     -C37     -C38     :   0.274863
 C27     -C36     -C37     -H52     : 177.359151
 C27     -C40     -C39     -C38     :  -0.346891
 C27     -C40     -C39     -H54     : 179.785728
 C28     -P1      -C27     -C36     :  97.038236
 C28     -P1      -C27     -C40     : -84.496413
 C28     -P1      -C29     -C44     : 161.788653
 C28     -P1      -C29     -C45     :  37.332705
 C28     -P1      -C29     -C46     : -82.987272
 C29     -P1      -C27     -C36     :-142.540243
 C29     -P1      -C27     -C40     :  35.925108
 C29     -P1      -C28     -C41     :  44.498558
 C29     -P1      -C28     -C42     : 168.023298
 C29     -P1      -C28     -C43     : -75.820182
 C30     -C31     -C32     -C33     :   0.204575
 C30     -C31     -C32     -H48     : 179.607156
 C30     -C31     -C47     -H74     :  85.260242
 C30     -C31     -C47     -H75     : -42.827948
 C30     -C31     -C47     -H76     :-157.167381
 C30     -C35     -C34     -C33     :   0.273642
 C30     -C35     -C34     -H50     : 179.773359
 C30     -C36     -C27     -C40     : 178.113550
 C30     -C36     -C37     -C38     :-178.906444
 C30     -C36     -C37     -H52     :  -1.822156
 C31     -C30     -C35     -C34     :  -0.019764
 C31     -C30     -C35     -H51     : 177.915884
 C31     -C30     -C36     -C37     : -64.082919
 C31     -C32     -C33     -C34     :   0.054983
 C31     -C32     -C33     -H49     : 179.876051
 C32     -C31     -C30     -C35     :  -0.212327
 C32     -C31     -C30     -C36     : 179.043146
 C32     -C31     -C47     -H74     : -98.492928
 C32     -C31     -C47     -H75     : 133.418882
 C32     -C31     -C47     -H76     :  19.079450
 C32     -C33     -C34     -C35     :  -0.276610
 C32     -C33     -C34     -H50     :-179.778484
 C33     -C32     -C31     -C47     :-176.307482
 C33     -C34     -C35     -H51     :-177.768294
 C34     -C33     -C32     -H48     :-179.371646
 C34     -C35     -C30     -C36     :-179.368488
 C35     -C30     -C31     -C47     : 175.758639
 C35     -C30     -C36     -C37     : 115.141330
 C35     -C34     -C33     -H49     : 179.901367
 C36     -C27     -C40     -C39     :   1.063585
 C36     -C27     -C40     -H55     :-179.102067
 C36     -C30     -C31     -C47     :  -4.985888
 C36     -C30     -C35     -H51     :  -1.432840
 C36     -C37     -C38     -C39     :   0.419544
 C36     -C37     -C38     -H53     : 179.515586
 C37     -C36     -C27     -C40     :  -0.956143
 C37     -C38     -C39     -C40     :  -0.387844
 C37     -C38     -C39     -H54     : 179.480274
 C38     -C39     -C40     -H55     : 179.809641
 C39     -C38     -C37     -H52     :-176.949296
 C40     -C39     -C38     -H53     :-179.495593
 C41     -C28     -C42     -H59     :  65.348403
 C41     -C28     -C42     -H60     :-171.651602
 C41     -C28     -C42     -H61     : -53.289439
 C41     -C28     -C43     -H62     : -66.981941
 C41     -C28     -C43     -H63     :  52.743195
 C41     -C28     -C43     -H64     : 171.789387
 C42     -C28     -C41     -H56     : -64.694553
 C42     -C28     -C41     -H57     :  54.255933
 C42     -C28     -C41     -H58     : 173.017195
 C42     -C28     -C43     -H62     :-178.358513
 C42     -C28     -C43     -H63     : -58.633377
 C42     -C28     -C43     -H64     :  60.412815
 C43     -C28     -C41     -H56     :-174.987439
 C43     -C28     -C41     -H57     : -56.036953
 C43     -C28     -C41     -H58     :  62.724309
 C43     -C28     -C42     -H59     : 176.830700
 C43     -C28     -C42     -H60     : -60.169305
 C43     -C28     -C42     -H61     :  58.192858
 C44     -C29     -C45     -H68     : -59.667052
 C44     -C29     -C45     -H69     :  58.510680
 C44     -C29     -C45     -H70     : 176.356787
 C44     -C29     -C46     -H71     :  60.283556
 C44     -C29     -C46     -H72     :-178.863361
 C44     -C29     -C46     -H73     : -58.663408
 C45     -C29     -C44     -H65     :  75.812279
 C45     -C29     -C44     -H66     :-162.380674
 C45     -C29     -C44     -H67     : -44.452771
 C45     -C29     -C46     -H71     : 171.945031
 C45     -C29     -C46     -H72     : -67.201886
 C45     -C29     -C46     -H73     :  52.998068
 C46     -C29     -C44     -H65     :-172.848971
 C46     -C29     -C44     -H66     : -51.041923
 C46     -C29     -C44     -H67     :  66.885980
 C46     -C29     -C45     -H68     :-170.886081
 C46     -C29     -C45     -H69     : -52.708349
 C46     -C29     -C45     -H70     :  65.137758
 C47     -C31     -C32     -H48     :   3.095099
 H48     -C32     -C33     -H49     :   0.449421
 H49     -C33     -C34     -H50     :   0.399493
 H50     -C34     -C35     -H51     :   1.731423
 H52     -C37     -C38     -H53     :   2.146746
 H53     -C38     -C39     -H54     :   0.372525
 H54     -C39     -C40     -H55     :  -0.057740
 
  nuclear repulsion energy.......          4857.050763331 hartrees
  
  Detected an organometallic with only one TM atom. 
  
  Formal charge on ligand        1 is    -1
  Formal multiplet on ligand     1 is     1
  Oxidation state on metal       2 is     2
  Formal multiplet on metal      2 is     1
  Formal charge on ligand        3 is    -1
  Formal multiplet on ligand     3 is     1
  
 
  Will use High-Quality Initial guess for organometallics
       including d-d repulsion (iguess=30)
 
 Non-default options chosen:
   SCF calculation type: DFT(b3pw91-d3)              
   DFT=Becke_3_Parameter/HF+Slater+Becke88+PW91+PW-GGAIIC (B3PW91-D3)
   Geometry will be optimized in redundant internal coordinates
   Solvation energy will be computed using PBF
     -solute cavity energy will not be included
     -surface area terms will not be included
   Vibrational frequencies and related properties will be computed
      from analytic second derivatives
   IR intensities will be computed
   Thermochemical properties will be computed
   Maximum number of geometry steps: 100
   Scaling standard convergence criteria by a factor of   5.00
   Solvent: benzene                                                         
   Internal dielectric constant:    1.000
   Continuum dielectric constant:   2.283
   Solvent probe molecule radius:   2.600
  
 Non-default print settings:
     11=  2
  
 Temporary integer options set:
     21= -1  73=  2
  
  atom       vdw   vdw2    cov     mass  grid  daf  charge   basis
  P1        2.147  2.074  1.060   30.974    Y    Y      Y    ps_6-31g*
  Pd2       1.450  1.450  1.280  105.903    Y    Y      Y    lacv3p*
  N3        1.831  1.600  0.750   14.003    Y    Y      Y    ps_6-31g*
  C4        1.949  1.900  0.770   12.000    Y    Y      Y    ps_6-31g*
  C5        1.949  1.900  0.770   12.000    Y    Y      Y    ps_6-31g*
  C6        1.949  1.900  0.770   12.000    Y    Y      Y    ps_6-31g*
  C7        1.949  1.900  0.770   12.000    Y    Y      Y    ps_6-31g*
  C8        1.949  1.900  0.770   12.000    Y    Y      Y    ps_6-31g*
  C9        1.949  1.900  0.770   12.000    Y    Y      Y    ps_6-31g*
  F10       1.736  1.682  0.720   18.998    Y    Y      Y    ps_6-31g*
  H11       1.597  1.150  0.320    1.008    Y    Y      Y    ps_6-31g*
  H12       1.597  1.150  0.320    1.008    Y    Y      Y    ps_6-31g*
  H13       1.597  1.150  0.320    1.008    Y    Y      Y    ps_6-31g*
  H14       1.597  1.150  0.320    1.008    Y    Y      Y    ps_6-31g*
  H15       1.597  1.150  0.320    1.008    Y    Y      Y    ps_6-31g*
  C16       1.949  1.900  0.770   12.000    Y    Y      Y    ps_6-31g*
  C17       1.949  1.900  0.770   12.000    Y    Y      Y    ps_6-31g*
  C18       1.949  1.900  0.770   12.000    Y    Y      Y    ps_6-31g*
  C19       1.949  1.900  0.770   12.000    Y    Y      Y    ps_6-31g*
  C20       1.949  1.900  0.770   12.000    Y    Y      Y    ps_6-31g*
  C21       1.949  1.900  0.770   12.000    Y    Y      Y    ps_6-31g*
  H22       1.597  1.150  0.320    1.008    Y    Y      Y    ps_6-31g*
  H23       1.597  1.150  0.320    1.008    Y    Y      Y    ps_6-31g*
  H24       1.597  1.150  0.320    1.008    Y    Y      Y    ps_6-31g*
  H25       1.597  1.150  0.320    1.008    Y    Y      Y    ps_6-31g*
  H26       1.597  1.150  0.320    1.008    Y    Y      Y    ps_6-31g*
  C27       1.949  1.900  0.770   12.000    Y    Y      Y    ps_6-31g*
  C28       1.949  1.900  0.770   12.000    Y    Y      Y    ps_6-31g*
  C29       1.949  1.900  0.770   12.000    Y    Y      Y    ps_6-31g*
  C30       1.949  1.900  0.770   12.000    Y    Y      Y    ps_6-31g*
  C31       1.949  1.900  0.770   12.000    Y    Y      Y    ps_6-31g*
  C32       1.949  1.900  0.770   12.000    Y    Y      Y    ps_6-31g*
  C33       1.949  1.900  0.770   12.000    Y    Y      Y    ps_6-31g*
  C34       1.949  1.900  0.770   12.000    Y    Y      Y    ps_6-31g*
  C35       1.949  1.900  0.770   12.000    Y    Y      Y    ps_6-31g*
  C36       1.949  1.900  0.770   12.000    Y    Y      Y    ps_6-31g*
  C37       1.949  1.900  0.770   12.000    Y    Y      Y    ps_6-31g*
  C38       1.949  1.900  0.770   12.000    Y    Y      Y    ps_6-31g*
  C39       1.949  1.900  0.770   12.000    Y    Y      Y    ps_6-31g*
  C40       1.949  1.900  0.770   12.000    Y    Y      Y    ps_6-31g*
  C41       1.949  1.900  0.770   12.000    Y    Y      Y    ps_6-31g*
  C42       1.949  1.900  0.770   12.000    Y    Y      Y    ps_6-31g*
  C43       1.949  1.900  0.770   12.000    Y    Y      Y    ps_6-31g*
  C44       1.949  1.900  0.770   12.000    Y    Y      Y    ps_6-31g*
  C45       1.949  1.900  0.770   12.000    Y    Y      Y    ps_6-31g*
  C46       1.949  1.900  0.770   12.000    Y    Y      Y    ps_6-31g*
  C47       1.949  1.900  0.770   12.000    Y    Y      Y    ps_6-31g*
  H48       1.597  1.150  0.320    1.008    Y    Y      Y    ps_6-31g*
  H49       1.597  1.150  0.320    1.008    Y    Y      Y    ps_6-31g*
  H50       1.597  1.150  0.320    1.008    Y    Y      Y    ps_6-31g*
  H51       1.597  1.150  0.320    1.008    Y    Y      Y    ps_6-31g*
  H52       1.597  1.150  0.320    1.008    Y    Y      Y    ps_6-31g*
  H53       1.597  1.150  0.320    1.008    Y    Y      Y    ps_6-31g*
  H54       1.597  1.150  0.320    1.008    Y    Y      Y    ps_6-31g*
  H55       1.597  1.150  0.320    1.008    Y    Y      Y    ps_6-31g*
  H56       1.597  1.150  0.320    1.008    Y    Y      Y    ps_6-31g*
  H57       1.597  1.150  0.320    1.008    Y    Y      Y    ps_6-31g*
  H58       1.597  1.150  0.320    1.008    Y    Y      Y    ps_6-31g*
  H59       1.597  1.150  0.320    1.008    Y    Y      Y    ps_6-31g*
  H60       1.597  1.150  0.320    1.008    Y    Y      Y    ps_6-31g*
  H61       1.597  1.150  0.320    1.008    Y    Y      Y    ps_6-31g*
  H62       1.597  1.150  0.320    1.008    Y    Y      Y    ps_6-31g*
  H63       1.597  1.150  0.320    1.008    Y    Y      Y    ps_6-31g*
  H64       1.597  1.150  0.320    1.008    Y    Y      Y    ps_6-31g*
  H65       1.597  1.150  0.320    1.008    Y    Y      Y    ps_6-31g*
  H66       1.597  1.150  0.320    1.008    Y    Y      Y    ps_6-31g*
  H67       1.597  1.150  0.320    1.008    Y    Y      Y    ps_6-31g*
  H68       1.597  1.150  0.320    1.008    Y    Y      Y    ps_6-31g*
  H69       1.597  1.150  0.320    1.008    Y    Y      Y    ps_6-31g*
  H70       1.597  1.150  0.320    1.008    Y    Y      Y    ps_6-31g*
  H71       1.597  1.150  0.320    1.008    Y    Y      Y    ps_6-31g*
  H72       1.597  1.150  0.320    1.008    Y    Y      Y    ps_6-31g*
  H73       1.597  1.150  0.320    1.008    Y    Y      Y    ps_6-31g*
  H74       1.597  1.150  0.320    1.008    Y    Y      Y    ps_6-31g*
  H75       1.597  1.150  0.320    1.008    Y    Y      Y    ps_6-31g*
  H76       1.597  1.150  0.320    1.008    Y    Y      Y    ps_6-31g*
 
  atom      formal  2spin      esp    mulk    frag
  P1          -1       0        Y    0.000       0
  Pd2          2       0        Y    0.000       0
  N3          -1       0        Y    0.000       0
  
  end of program pre
   
 Time(pre)  user:       1.094  user+sys:       1.094  wallclock:       1.180
  
  start of program onee
  
  smallest eigenvalue of S:    3.778E-04
  number of canonical orbitals.....          614
  end of program onee
   
 Time(onee)  user:       4.613  user+sys:       4.613  wallclock:       3.470
  
  start of program hfig
  
  initial wavefunction generated automatically from atomic wavefunctions
  Only one state below 0.010000
  Skip d-d repulsion considerations 
 
  Irreducible     Total no   No of occupied orbitals 
  representation  orbitals   Shell_1  Shell_2    ...
  No Symm          614        143
  ------------------------
  Orbital occupation/shell    1.000
 
  end of program hfig
   
 Time(hfig)  user:       1.146  user+sys:       1.146  wallclock:       1.243
  
  start of program probe
  
  end of program probe
   
 Time(probe)  user:       0.648  user+sys:       0.648  wallclock:       0.572
  
  start of program grid
  
   grid     grid set  grid #  grid sym
  ------    --------  ------  --------
  coarse        0        0        1
  medium        2        1        1
  fine          0        0        1
  ultrafine     4        2        1
  charge       -1        3        1
  gradient      4        2        1
  density       0        0        1
  DFT-fine    -11        4        1
  DFT-med.    -10        5        1
  DFT-grad    -12        6        1
  DFT-der2     -8        7        1
  DFT-cphf     -9        8        1
  LMP2-enrg     4        2        1
  LMP2-grad     2        1        1
  DFT-cphf2   -15        9        1
  PBF-dens      0        0        1
  plotting      0        0        1
  Rel-grad    -17        0        1
  
  number of gridpoints: 
     atom           P1         Pd2          N3          C4          C5          C6          C7
  grid # 1         614         356         107          77          93          94          98
  grid # 2         431         312         395         327         325         318         373
  grid # 3           8         257          30          28          19          11           7
  grid # 4        8714        8714        8714        8714        8714        8714        8714
  grid # 5        1192        1192        1192        1192        1192        1192        1192
  grid # 6        9132        9132        5922        5922        5922        5922        5922
  grid # 7       23034       32968       13958       13950       13950       13950       13950
  grid # 8         722        1150         756         748         748         748         748
  grid # 9         366        2198         406         394         394         394         394
   
  number of gridpoints: 
     atom           C8          C9         F10         H11         H12         H13         H14
  grid # 1          85          92         584         115         110          95         114
  grid # 2         288         324         564         464         440         395         461
  grid # 3           7          16         365         364         147         166         359
  grid # 4        8714        8714        8714        8714        8714        8714        8714
  grid # 5        1192        1192        1192        1192        1192        1192        1192
  grid # 6        5922        5922        5922        5922        5922        5922        5922
  grid # 7       13950       13950       23190       15206       15206       15206       15206
  grid # 8         748         748         770         786         786         786         786
  grid # 9         394         394         420         420         420         420         420
   
  number of gridpoints: 
     atom          H15         C16         C17         C18         C19         C20         C21
  grid # 1         115          96          96          96         100          96          96
  grid # 2         459         325         324         323         353         322         323
  grid # 3         314          42          41          36          32          32          39
  grid # 4        8714        8714        8714        8714        8714        8714        8714
  grid # 5        1192        1192        1192        1192        1192        1192        1192
  grid # 6        5922        5922        5922        5922        5922        5922        5922
  grid # 7       15206       13950       13950       13950       13950       13950       13950
  grid # 8         786         748         748         748         748         748         748
  grid # 9         420         394         394         394         394         394         394
   
  number of gridpoints: 
     atom          H22         H23         H24         H25         H26         C27         C28
  grid # 1         118         117         114         114         117          92          91
  grid # 2         466         466         455         452         466         389         369
  grid # 3         412         405         291         227         408          15           6
  grid # 4        8714        8714        8714        8714        8714        8714        8714
  grid # 5        1192        1192        1192        1192        1192        1192        1192
  grid # 6        5922        5922        5922        5922        5922        5922        5922
  grid # 7       15206       15206       15206       15206       15206       13950       13950
  grid # 8         786         786         786         786         786         748         748
  grid # 9         420         420         420         420         420         394         394
   
  number of gridpoints: 
     atom          C29         C30         C31         C32         C33         C34         C35
  grid # 1          88          98         100          94          96          96          94
  grid # 2         377         356         364         329         322         324         325
  grid # 3           6          13          20          33          32          31          24
  grid # 4        8714        8714        8714        8714        8714        8714        8714
  grid # 5        1192        1192        1192        1192        1192        1192        1192
  grid # 6        5922        5922        5922        5922        5922        5922        5922
  grid # 7       13950       13950       13950       13950       13950       13950       13950
  grid # 8         748         748         748         748         748         748         748
  grid # 9         394         394         394         394         394         394         394
   
  number of gridpoints: 
     atom          C36         C37         C38         C39         C40         C41         C42
  grid # 1          98          94          97          95          91          83          84
  grid # 2         360         323         324         322         322         239         240
  grid # 3          16          31          46          32          10           6           6
  grid # 4        8714        8714        8714        8714        8714        8714        8714
  grid # 5        1192        1192        1192        1192        1192        1192        1192
  grid # 6        5922        5922        5922        5922        5922        5922        5922
  grid # 7       13950       13950       13950       13950       13950       13950       13950
  grid # 8         748         748         748         748         748         748         748
  grid # 9         394         394         394         394         394         394         394
   
  number of gridpoints: 
     atom          C43         C44         C45         C46         C47         H48         H49
  grid # 1          82          80          82          79          81         114         117
  grid # 2         242         246         241         248         243         453         468
  grid # 3           6           6           6           6           6         318         396
  grid # 4        8714        8714        8714        8714        8714        8714        8714
  grid # 5        1192        1192        1192        1192        1192        1192        1192
  grid # 6        5922        5922        5922        5922        5922        5922        5922
  grid # 7       13950       13950       13950       13950       13950       15206       15206
  grid # 8         748         748         748         748         748         786         786
  grid # 9         394         394         394         394         394         420         420
   
  number of gridpoints: 
     atom          H50         H51         H52         H53         H54         H55         H56
  grid # 1         117         104         115         118         118         100         102
  grid # 2         464         421         455         467         467         418         421
  grid # 3         370         132         317         422         411          66          94
  grid # 4        8714        8714        8714        8714        8714        8714        8714
  grid # 5        1192        1192        1192        1192        1192        1192        1192
  grid # 6        5922        5922        5922        5922        5922        5922        5922
  grid # 7       15206       15206       15206       15206       15206       15206       15206
  grid # 8         786         786         786         786         786         786         786
  grid # 9         420         420         420         420         420         420         420
   
  number of gridpoints: 
     atom          H57         H58         H59         H60         H61         H62         H63
  grid # 1         108         101         106          97         108         102         109
  grid # 2         444         424         441         412         446         425         445
  grid # 3         265         144         154         102         263         145         269
  grid # 4        8714        8714        8714        8714        8714        8714        8714
  grid # 5        1192        1192        1192        1192        1192        1192        1192
  grid # 6        5922        5922        5922        5922        5922        5922        5922
  grid # 7       15206       15206       15206       15206       15206       15206       15206
  grid # 8         786         786         786         786         786         786         786
  grid # 9         420         420         420         420         420         420         420
   
  number of gridpoints: 
     atom          H64         H65         H66         H67         H68         H69         H70
  grid # 1         104         104         106         107         102         107         101
  grid # 2         434         437         443         446         431         443         427
  grid # 3         197         207         202         270         192         259         148
  grid # 4        8714        8714        8714        8714        8714        8714        8714
  grid # 5        1192        1192        1192        1192        1192        1192        1192
  grid # 6        5922        5922        5922        5922        5922        5922        5922
  grid # 7       15206       15206       15206       15206       15206       15206       15206
  grid # 8         786         786         786         786         786         786         786
  grid # 9         420         420         420         420         420         420         420
   
  number of gridpoints: 
     atom          H71         H72         H73         H74         H75         H76       total
  grid # 1          73         101         106         112         110         107        8880
  grid # 2         331         414         434         459         455         446       29327
  grid # 3           6          71         168         337         267         275       10887
  grid # 4        8714        8714        8714        8714        8714        8714      662264
  grid # 5        1192        1192        1192        1192        1192        1192       90592
  grid # 6        5922        5922        5922        5922        5922        5922      456492
  grid # 7       15206       15206       15206       15206       15206       15206     1146534
  grid # 8         786         786         786         786         786         786       58736
  grid # 9         420         420         420         420         420         420       32772
   
  end of program grid
   
 Time(grid)  user:     352.071  user+sys:     352.071  wallclock:     179.795
  
  start of program rwr
  
  end of program rwr
   
 Time(rwr)  user:      18.639  user+sys:      18.639  wallclock:      23.398
  
  start of program scf
  
 number of electrons..........        286
 number of alpha electrons....        143
 number of beta electrons.....        143
 number of orbitals, total....        614
 number of doubly-occ'd orbs..        143
 number of open shell orbs....          0
 number of occupied orbitals..        143
 number of virtual orbitals...        471
 number of hamiltonians.......          1
 number of shells.............          1
 SCF type: DFT=Becke_3_Parameter/HF+Slater+Becke88+PW91+PW-GGAIIC (B3PW91-D3)
 Energy computed using pseudospectral method.
 Convergence Criterion:
    Energy (econv):       1.00E-05
    RMS density (dconv):  5.00E-06
  
       i  u  d  i  g                   
       t  p  i  c  r                                 RMS    maximum
       e  d  i  u  i                       energy  density   DIIS  
       r  t  s  t  d       total energy    change  change    error 
  
etot    1  N  N  5  M   -1898.08341136452           2.2E-03  2.3E-01
etot    2  Y  Y  6  M   -1901.32217863371  3.2E+00  3.4E-03  1.4E-01
etot    3  Y  Y  6  M   -1902.17661433432  8.5E-01  1.9E-03  6.4E-02
etot    4  N  Y  2  U   -1902.62998328934  4.5E-01  1.1E-03  3.4E-02
etot    5  Y  Y  6  M   -1902.78673773484  1.6E-01  6.1E-04  1.9E-02
etot    6  N  Y  2  U   -1902.80071115266  1.4E-02  4.3E-04  8.4E-03
etot    7  Y  Y  6  M   -1902.80081707357  1.1E-04  1.6E-04  6.3E-03
etot    8  Y  Y  6  M   -1902.80857839355  7.8E-03  4.8E-05  1.7E-03
etot    9  N  Y  2  U   -1902.81029527006  1.7E-03  1.9E-05  2.7E-04
etot   10  N  Y  2  U   -1902.81032026968  2.5E-05  1.0E-05  2.1E-04
etot   11  N  Y  2  U   -1902.81032866156  8.4E-06  3.6E-06  4.5E-05
etot   12  N  N  2  U   -1902.81032966712  1.0E-06  0.0E+00  0.0E+00
 
  Computing the dispersion energy correction and its gradients...
  
  
 Energy components, in hartrees:
   (A)  Nuclear repulsion............    4857.05076333060
   (E)  Total one-electron terms.....  -12317.42688023985
   (F)    Electron-nuclear...........  -14129.27914009921
   (H)    Kinetic....................    1811.85225985936
   (I)  Total two-electron terms.....    5557.56578724214
   (J)    Coulomb....................    5804.04790345858
   (K)    Exchange+Correlation.......    -246.48211621644
   (L)  Electronic energy............   -6759.86109299771  (E+I)
   (N0) D3 correction................      -0.13207290015
   (N)  Total energy.................   -1902.94240256726  (A+L+N0)
   (O)  Gas phase energy.............   -1902.94240256726
  
 SCFE: SCF energy: DFT(b3pw91-d3)     -1902.94240256726 hartrees   iterations:  12
  
 
 HOMO energy:    -0.15442
 LUMO energy:    -0.05413
 
  Orbital energies (hartrees): 
   -77.09179   -24.67395   -14.28471   -10.23275   -10.21714   -10.21637
   -10.21599   -10.21572   -10.19633   -10.19501   -10.19486   -10.19433
   -10.19415   -10.19228   -10.19165   -10.17704   -10.17557   -10.17556
   -10.17544   -10.17429   -10.17387   -10.17249   -10.17174   -10.17000
   -10.16806   -10.16481   -10.16341   -10.15231   -10.14896   -10.14804
   -10.14791   -10.14582   -10.14344   -10.14102   -10.14079   -10.13864
    -6.59084    -4.74910    -4.74848    -4.74547    -3.33352    -2.06486
    -2.06412    -2.03342    -1.20965    -0.91457    -0.88544    -0.85845
    -0.84419    -0.83224    -0.81864    -0.79554    -0.79344    -0.78774
    -0.77297    -0.76788    -0.73555    -0.72754    -0.71457    -0.70016
    -0.69078    -0.69062    -0.68610    -0.68199    -0.68096    -0.66823
    -0.63793    -0.62745    -0.61594    -0.59681    -0.59257    -0.58047
    -0.57579    -0.56531    -0.55477    -0.55327    -0.53979    -0.51810
    -0.50118    -0.49855    -0.48231    -0.48087    -0.47879    -0.46774
    -0.46646    -0.46232    -0.46159    -0.45832    -0.44894    -0.44701
    -0.44341    -0.44115    -0.43838    -0.43637    -0.42946    -0.42320
    -0.42222    -0.42085    -0.41252    -0.40894    -0.40612    -0.40300
    -0.39727    -0.39386    -0.39081    -0.38932    -0.38768    -0.38385
    -0.38017    -0.37840    -0.37568    -0.37043    -0.36845    -0.36632
    -0.35957    -0.35705    -0.34773    -0.34257    -0.33750    -0.33510
    -0.33411    -0.33213    -0.32736    -0.32544    -0.32238    -0.31776
    -0.31544    -0.31276    -0.29580    -0.28720    -0.27991    -0.27312
    -0.26563    -0.25671    -0.25552    -0.24512    -0.24264    -0.22970
    -0.22263    -0.21787    -0.21001    -0.16899    -0.15442    -0.05413
    -0.04434    -0.03024    -0.00408    -0.00339     0.00311     0.01632
     0.01972     0.02754     0.03224
 
  end of program scf
   
 Time(scf)  user:     501.276  user+sys:     501.276  wallclock:     270.465
  
  start of program der1a
  
  end of program der1a
   
 Time(der1a)  user:      15.592  user+sys:      15.592  wallclock:       8.725
  
  start of program rwr
  
  end of program rwr
   
 Time(rwr)  user:      21.061  user+sys:      21.061  wallclock:      27.756
  
  start of program der1b
  
   
  forces (hartrees/bohr) : total     
   
 atom  label           x              y              z
 ---- --------   -------------  -------------  -------------
    1 P1          6.140312E-03   1.561363E-02   2.686666E-02
    2 Pd2        -2.219300E-04   9.793772E-03  -1.962601E-03
    3 N3         -7.701916E-04  -1.597872E-02   4.229135E-02
    4 C4          4.150287E-02   1.655214E-02  -7.609710E-03
    5 C5         -3.242572E-02   3.774876E-03  -6.643071E-04
    6 C6          2.224741E-02  -2.463154E-02   6.387255E-03
    7 C7         -2.121638E-03   6.544881E-02   5.046240E-02
    8 C8         -8.575866E-02   2.981602E-02   1.464808E-01
    9 C9         -1.864118E-02  -2.034758E-02   1.327413E-02
   10 F10        -4.343452E-03  -1.802941E-03   7.788294E-04
   11 H11        -2.991684E-04  -2.655361E-03  -2.645676E-04
   12 H12         1.616994E-04  -1.462026E-03   7.508475E-04
   13 H13        -2.353378E-02  -2.753042E-02   1.020930E-01
   14 H14         7.383730E-04   2.473215E-03   1.905193E-03
   15 H15        -2.263724E-02   4.021266E-02  -2.534151E-02
   16 C16        -3.182215E-03   2.568469E-03   2.117111E-03
   17 C17         2.974404E-03  -1.370444E-03  -1.455830E-03
   18 C18        -8.594896E-03   2.283732E-03   1.070034E-02
   19 C19         2.857783E-02  -2.395429E-02  -1.487380E-02
   20 C20        -3.353901E-03   8.959197E-03  -3.196066E-04
   21 C21         1.776902E-04  -3.595432E-03  -2.155411E-03
   22 H22         7.190510E-03  -4.845245E-03  -5.663480E-03
   23 H23         6.744904E-03   5.447909E-03  -5.679361E-03
   24 H24         4.308257E-05   1.076758E-02  -1.562526E-03
   25 H25        -5.206152E-03  -8.591699E-03   4.760320E-03
   26 H26         7.272250E-04  -1.021550E-02  -2.883699E-04
   27 C27        -1.298770E-02  -7.844246E-03  -1.404657E-02
   28 C28        -7.513958E-03   1.996683E-02  -3.057528E-02
   29 C29        -9.928084E-03  -3.040230E-02  -2.301255E-02
   30 C30        -5.326836E-03   3.575369E-02   5.281252E-02
   31 C31         1.804741E-03  -4.888143E-03   1.366748E-02
   32 C32        -1.127854E-03   9.153476E-03   2.566241E-03
   33 C33        -3.578548E-04  -3.819219E-04  -2.494486E-03
   34 C34         2.262542E-03  -1.870701E-03   2.058856E-03
   35 C35        -7.866823E-03   1.567604E-02  -6.312833E-03
   36 C36         1.417024E-03  -3.770900E-02  -3.466438E-02
   37 C37         1.487598E-02  -1.668662E-03  -7.364827E-03
   38 C38        -5.390394E-03  -1.851456E-03  -2.228793E-03
   39 C39         2.997388E-03   1.570600E-04   1.221017E-03
   40 C40         1.961981E-03  -8.149502E-03  -1.257942E-02
   41 C41        -1.372115E-02  -8.599757E-03   9.412400E-03
   42 C42         7.347680E-03   4.471772E-03   1.352053E-02
   43 C43         8.892315E-03  -7.155952E-03  -1.331433E-02
   44 C44         1.638945E-02  -3.041399E-03   4.866648E-03
   45 C45        -3.060209E-03   3.378402E-03  -1.545448E-02
   46 C46         3.357640E-03   2.923633E-03  -1.361673E-01
   47 C47         2.709508E-04  -1.554033E-02   1.542988E-03
   48 H48        -3.946279E-03  -4.065922E-03  -1.079645E-02
   49 H49         2.883141E-04  -8.385870E-03  -7.098671E-03
   50 H50         4.214240E-03  -1.059359E-02  -1.663069E-03
   51 H51         5.220548E-03  -6.591311E-03  -1.233444E-03
   52 H52        -5.718855E-03   5.717592E-03   1.354939E-02
   53 H53        -8.197497E-03   3.787509E-03   7.865928E-03
   54 H54        -2.565984E-03   5.704595E-03   9.472832E-03
   55 H55         8.908960E-04   5.222100E-03   6.200198E-03
   56 H56         5.923904E-03  -4.349035E-03  -8.098389E-03
   57 H57         1.078779E-02  -6.144701E-03   3.165938E-03
   58 H58         4.845092E-03   5.991959E-03   4.334313E-03
   59 H59         6.332593E-03  -4.221152E-03  -7.434247E-03
   60 H60        -1.778970E-02  -2.795583E-03   1.092320E-05
   61 H61         8.674891E-04  -1.287024E-02   1.706824E-03
   62 H62         3.180159E-03   8.171061E-03   4.059818E-03
   63 H63         1.691259E-03  -5.836948E-03   1.000932E-02
   64 H64        -1.051607E-02  -2.260242E-03   1.676191E-03
   65 H65        -8.353882E-03  -8.730308E-04   6.144339E-03
   66 H66         2.146168E-03   4.704335E-03  -7.208350E-03
   67 H67         1.403945E-05   1.249762E-02  -6.989967E-04
   68 H68        -3.335913E-03   3.302908E-03   5.234553E-03
   69 H69         6.611373E-03   7.805061E-03   6.218111E-03
   70 H70         7.454945E-03  -4.325980E-03   3.692910E-03
   71 H71         8.434910E-02  -1.843848E-02  -1.464464E-01
   72 H72         1.184675E-02  -1.415004E-02  -1.266333E-02
   73 H73         8.473182E-03   3.536283E-03  -5.490616E-03
   74 H74        -1.243748E-02  -5.706225E-03  -2.660297E-03
   75 H75         1.120693E-02   7.701097E-03  -8.174828E-03
   76 H76        -2.220150E-03   8.338356E-03  -1.009580E-02
 -------------   -------------  -------------  -------------
     total        1.695939E-03  -1.950097E-05  -1.940724E-03
   
  end of program der1b
   
 Time(der1b)  user:     167.295  user+sys:     167.295  wallclock:      88.880
  
  start of program geopt
  
 ----------------------------------------------------------------------------
  Geometry optimization step  1
  Total energy:     -1902.94240256726 hartrees
 ----------------------------------------------------------------------------
  
  
  Level shifts adjusted to satisfy step-size constraints
   Step size:    0.3000275
   Cos(theta):   0.9951876
   Final level shift:  -1.2509951E+00
  
  gradient maximum:        2.8689E-01 .  (  2.2500E-03 )
  gradient rms:            3.1952E-02 .  (  1.5000E-03 )
  displacement maximum:    1.7449E-01 .  (  9.0000E-03 )
  displacement rms:        1.8426E-02 .  (  6.0000E-03 )
  
  predicted energy change:  -1.3392E-01
  step size:     0.29996
  trust radius:  0.30000
  
  molecular structure not yet converged...
  
  center of mass moved by:
     x:     1.4485E-02     y:     3.8009E-02     z:     1.8192E-02
  
  new geometry: 
                                   angstroms
  atom               x                 y                 z
  P1           -0.0132123886      0.0034608348     -0.0453239908 
  Pd2           0.0131407097      0.0610064100      2.2666650881 
  N3            0.2481363925      0.0841043246      4.2355036020 
  C4           -4.7750764100     -0.3358358225      2.6058816665 
  C5           -4.1694359434      0.9152795084      2.5004289902 
  C6           -2.7783684395      1.0317801479      2.3715228376 
  C7           -1.9715928725     -0.1014269643      2.3336307493 
  C8           -2.5815623743     -1.3703728771      2.4521188252 
  C9           -3.9672198818     -1.4786762407      2.5887573605 
  F10          -6.0995063352     -0.4615082194      2.7093682063 
  H11          -4.7881339866      1.8117604912      2.5249396111 
  H12          -2.3320479241      2.0212806261      2.3079197493 
  H13          -2.0051100894     -2.2876840927      2.5750900455 
  H14          -4.4280725302     -2.4611601854      2.6867442566 
  H15           0.5567190696     -0.8358095315      4.7158544923 
  C16          -2.6568036735      2.0693806367      6.6174876242 
  C17          -2.6115473410      0.6683883126      6.5985355268 
  C18          -1.6560729054      0.0082366930      5.8157191787 
  C19          -0.7428722986      0.7491647874      5.0499689911 
  C20          -0.7886897726      2.1506470226      5.0685245514 
  C21          -1.7453757698      2.8089420976      5.8519245931 
  H22          -3.4075881727      2.5870612923      7.2324722205 
  H23          -3.3268636074      0.0867862890      7.1986212023 
  H24          -1.6206087330     -1.0908946505      5.7988554075 
  H25          -0.0722824693      2.7280482435      4.4661285191 
  H26          -1.7797367743      3.9083021905      5.8660335786 
  C27           1.8037373191     -0.0082479455     -0.5989416332 
  C28          -0.9152113813      1.3476153516     -1.0734856825 
  C29          -0.8826428394     -1.6534324110     -0.4530924818 
  C30           3.0430329796      1.3452331972      1.2341834877 
  C31           3.7113206055      1.0033137853      2.4488720358 
  C32           3.7133645585      1.9011219217      3.5359077001 
  C33           3.0824830157      3.1456620463      3.5083289929 
  C34           2.4150293901      3.4988807127      2.3388909408 
  C35           2.4229327192      2.6058821890      1.2659887273 
  C36           2.9698512458      0.5554069172      0.0201214547 
  C37           4.1868505231      0.3127202878     -0.6515287088 
  C38           4.3286119451     -0.4067870206     -1.8407527165 
  C39           3.1896458770     -0.9354221360     -2.4399891703 
  C40           1.9668900310     -0.7177039229     -1.8046349670 
  C41          -2.4597085618      1.2894988816     -1.0322945253 
  C42          -0.5182336606      2.7854714690     -0.6729084208 
  C43          -0.5034389099      1.2137981288     -2.5615728555 
  C44           0.0257473740     -2.8478668349     -0.0807218164 
  C45          -1.3832908125     -1.8982751379     -1.9006169959 
  C46          -2.1324409491     -1.7366143042      0.4588464321 
  C47           4.3884774893     -0.3216433739      2.7276991913 
  H48           4.2235350640      1.6285570018      4.4707569830 
  H49           3.1030032390      3.8197077259      4.3766033835 
  H50           1.9015143389      4.4677433698      2.2556650358 
  H51           1.9226784513      2.9658824415      0.3777759433 
  H52           5.1272096254      0.7272632670     -0.2912661871 
  H53           5.3156429403     -0.5447606979     -2.3063748579 
  H54           3.2486151797     -1.5017723972     -3.3806384568 
  H55           1.0998213020     -1.1411818603     -2.3114430483 
  H56          -2.8724000107      1.4512144499     -0.0208980757 
  H57          -2.9065183071      2.0777266670     -1.6742723228 
  H58          -2.8677020744      0.3321722577     -1.4037533806 
  H59          -0.8056057626      3.0207312003      0.3718945797 
  H60           0.5670569282      2.9625921687     -0.8043793743 
  H61          -1.0287323251      3.5389341480     -1.3091114134 
  H62          -0.7578752778      0.2236185768     -2.9860080850 
  H63          -1.0116874492      1.9680510728     -3.1988216004 
  H64           0.5861793425      1.3676141194     -2.7024561412 
  H65           1.0139308726     -2.7992712325     -0.5804608040 
  H66           0.2007945174     -2.9069188995      1.0116523581 
  H67          -0.4353011648     -3.8165055484     -0.3666559804 
  H68          -0.5764372668     -2.0005856312     -2.6512927340 
  H69          -1.9534887003     -2.8489191942     -1.9660447102 
  H70          -2.0777363358     -1.1159700145     -2.2558656138 
  H71          -1.8266347003     -1.6773293659      1.5711462516 
  H72          -2.8440588884     -0.9182280670      0.2456078104 
  H73          -2.6765912309     -2.6961344348      0.3220516641 
  H74           5.4317247465     -0.3438269298      2.3481888274 
  H75           3.7887274381     -1.1807816425      2.3610637963 
  H76           4.4759238635     -0.5186787550      3.8162724067 
   
 
  bond lengths (angstroms):
 
 P1      -Pd2     :   2.312855      P1      -C27     :   1.899457
 P1      -C28     :   1.917673      P1      -C29     :   1.915066
 Pd2     -N3      :   1.982948      Pd2     -C7      :   1.992495
 N3      -H15     :   1.082683      N3      -C19     :   1.444907
 C4      -C5      :   1.393991      C4      -C9      :   1.399646
 C4      -F10     :   1.334398      C5      -C6      :   1.401877
 C5      -H11     :   1.089526      C6      -C7      :   1.391575
 C6      -H12     :   1.087363      C7      -C8      :   1.412914
 C8      -C9      :   1.396584      C8      -H13     :   1.090357
 C8      -H71     :   1.200104      C9      -H14     :   1.089615
 C16     -C17     :   1.401851      C16     -C21     :   1.401335
 C16     -H22     :   1.099944      C17     -C18     :   1.400547
 C17     -H23     :   1.100019      C18     -C19     :   1.403311
 C18     -H24     :   1.099833      C19     -C20     :   1.402354
 C20     -C21     :   1.400827      C20     -H25     :   1.099778
 C21     -H26     :   1.099987      C27     -C36     :   1.435537
 C27     -C40     :   1.408419      C28     -C41     :   1.546139
 C28     -C42     :   1.544501      C28     -C43     :   1.549796
 C29     -C44     :   1.546126      C29     -C45     :   1.551104
 C29     -C46     :   1.549370      C30     -C31     :   1.427930
 C30     -C35     :   1.405266      C30     -C36     :   1.450216
 C31     -C32     :   1.409862      C31     -C47     :   1.513868
 C32     -C33     :   1.395583      C32     -H48     :   1.099322
 C33     -C34     :   1.392064      C33     -H49     :   1.099390
 C34     -C35     :   1.395933      C34     -H50     :   1.099690
 C35     -H51     :   1.081100      C36     -C37     :   1.411063
 C37     -C38     :   1.397155      C37     -H52     :   1.088995
 C38     -C39     :   1.391324      C38     -H53     :   1.100032
 C39     -C40     :   1.395066      C39     -H54     :   1.099569
 C40     -H55     :   1.089952      C41     -H56     :   1.104259
 C41     -H57     :   1.110440      C41     -H58     :   1.104950
 C42     -H59     :   1.108848      C42     -H60     :   1.107480
 C42     -H61     :   1.110436      C43     -H62     :   1.106950
 C43     -H63     :   1.110540      C43     -H64     :   1.109403
 C44     -H65     :   1.108426      C44     -H66     :   1.107885
 C44     -H67     :   1.110218      C45     -H68     :   1.106795
 C45     -H69     :   1.110464      C45     -H70     :   1.104743
 C46     -H71     :   1.155094      C46     -H72     :   1.105272
 C46     -H73     :   1.111527      C47     -H74     :   1.110354
 C47     -H75     :   1.110063      C47     -H76     :   1.109712
 
  bond angles:
 
 C27     -P1      -Pd2     : 106.296377  C28     -P1      -Pd2     : 121.592176
 C28     -P1      -C27     : 107.336541  C29     -P1      -Pd2     : 103.859761
 C29     -P1      -C27     : 111.523426  C29     -P1      -C28     : 106.184669
 N3      -Pd2     -P1      : 173.801090  C7      -Pd2     -P1      :  91.158497
 C7      -Pd2     -N3      :  94.912047  H15     -N3      -Pd2     : 117.670766
 C19     -N3      -Pd2     : 118.930625  C19     -N3      -H15     : 109.662404
 C9      -C4      -C5      : 118.759864  F10     -C4      -C5      : 121.440498
 F10     -C4      -C9      : 119.796720  C6      -C5      -C4      : 120.840979
 H11     -C5      -C4      : 119.344968  H11     -C5      -C6      : 119.813028
 C7      -C6      -C5      : 120.671617  H12     -C6      -C5      : 119.228849
 H12     -C6      -C7      : 120.098197  C6      -C7      -Pd2     : 120.798964
 C8      -C7      -Pd2     : 120.401942  C8      -C7      -C6      : 118.606238
 C9      -C8      -C7      : 120.410012  H13     -C8      -C7      : 122.465480
 H13     -C8      -C9      : 116.632761  H71     -C8      -C7      :  84.064098
 H71     -C8      -C9      : 132.540861  H71     -C8      -H13     :  62.292360
 C8      -C9      -C4      : 120.700296  H14     -C9      -C4      : 119.407595
 H14     -C9      -C8      : 119.891783  C21     -C16     -C17     : 119.937099
 H22     -C16     -C17     : 119.996600  H22     -C16     -C21     : 120.066293
 C18     -C17     -C16     : 120.042640  H23     -C17     -C16     : 120.001855
 H23     -C17     -C18     : 119.955505  C19     -C18     -C17     : 120.005204
 H24     -C18     -C17     : 120.107255  H24     -C18     -C19     : 119.887501
 C18     -C19     -N3      : 120.722999  C20     -C19     -N3      : 119.331365
 C20     -C19     -C18     : 119.945504  C21     -C20     -C19     : 119.957264
 H25     -C20     -C19     : 119.746226  H25     -C20     -C21     : 120.296496
 C20     -C21     -C16     : 120.112264  H26     -C21     -C16     : 120.008594
 H26     -C21     -C20     : 119.879123  C36     -C27     -P1      : 130.460487
 C40     -C27     -P1      : 111.310565  C40     -C27     -C36     : 118.219713
 C41     -C28     -P1      : 115.418788  C42     -C28     -P1      : 113.115272
 C42     -C28     -C41     : 106.549088  C43     -C28     -P1      : 109.226798
 C43     -C28     -C41     : 106.723150  C43     -C28     -C42     : 105.136689
 C44     -C29     -P1      : 110.510042  C45     -C29     -P1      : 118.803923
 C45     -C29     -C44     : 107.004603  C46     -C29     -P1      : 106.698697
 C46     -C29     -C44     : 106.899660  C46     -C29     -C45     : 106.286856
 C35     -C30     -C31     : 113.707954  C36     -C30     -C31     : 127.253787
 C36     -C30     -C35     : 119.029403  C32     -C31     -C30     : 120.270023
 C47     -C31     -C30     : 125.140963  C47     -C31     -C32     : 114.499400
 C33     -C32     -C31     : 123.503840  H48     -C32     -C31     : 119.897617
 H48     -C32     -C33     : 116.596126  C34     -C33     -C32     : 117.362846
 H49     -C33     -C32     : 121.514041  H49     -C33     -C34     : 121.121422
 C35     -C34     -C33     : 118.727233  H50     -C34     -C33     : 120.732039
 H50     -C34     -C35     : 120.536356  C34     -C35     -C30     : 126.425353
 H51     -C35     -C30     : 118.967816  H51     -C35     -C34     : 114.570989
 C30     -C36     -C27     : 128.013972  C37     -C36     -C27     : 115.328291
 C37     -C36     -C30     : 116.655531  C38     -C37     -C36     : 125.537165
 H52     -C37     -C36     : 121.454076  H52     -C37     -C38     : 112.954912
 C39     -C38     -C37     : 118.633411  H53     -C38     -C37     : 121.058961
 H53     -C38     -C39     : 120.302560  C40     -C39     -C38     : 117.520227
 H54     -C39     -C38     : 121.348678  H54     -C39     -C40     : 121.130911
 C39     -C40     -C27     : 124.751752  H55     -C40     -C27     : 120.106718
 H55     -C40     -C39     : 115.141337  H56     -C41     -C28     : 113.093095
 H57     -C41     -C28     : 111.091661  H57     -C41     -H56     : 105.972800
 H58     -C41     -C28     : 113.107629  H58     -C41     -H56     : 107.265031
 H58     -C41     -H57     : 105.787622  H59     -C42     -C28     : 112.041726
 H60     -C42     -C28     : 111.714156  H60     -C42     -H59     : 109.383746
 H61     -C42     -C28     : 111.402746  H61     -C42     -H59     : 106.065394
 H61     -C42     -H60     : 105.901554  H62     -C43     -C28     : 112.601925
 H63     -C43     -C28     : 111.760625  H63     -C43     -H62     : 106.398645
 H64     -C43     -C28     : 111.772277  H64     -C43     -H62     : 107.522757
 H64     -C43     -H63     : 106.407169  H65     -C44     -C29     : 112.416579
 H66     -C44     -C29     : 111.806690  H66     -C44     -H65     : 107.819432
 H67     -C44     -C29     : 111.592469  H67     -C44     -H65     : 106.999448
 H67     -C44     -H66     : 105.845944  H68     -C45     -C29     : 114.345900
 H69     -C45     -C29     : 110.845646  H69     -C45     -H68     : 104.787140
 H70     -C45     -C29     : 113.029657  H70     -C45     -H68     : 107.794903
 H70     -C45     -H69     : 105.337078  H71     -C46     -C29     : 110.515958
 H72     -C46     -C29     : 111.471912  H72     -C46     -H71     : 108.556023
 H73     -C46     -C29     : 111.641969  H73     -C46     -H71     : 107.003039
 H73     -C46     -H72     : 107.472231  H74     -C47     -C31     : 112.012109
 H75     -C47     -C31     : 112.016408  H75     -C47     -H74     : 112.289121
 H76     -C47     -C31     : 111.797047  H76     -C47     -H74     : 104.933376
 H76     -C47     -H75     : 103.246852  C46     -H71     -C8      : 123.605547
 
  torsional angles:
 
 P1      -Pd2     -N3      -H15     : -67.843161
 P1      -Pd2     -N3      -C19     : 155.776780
 P1      -Pd2     -C7      -C6      : -92.036789
 P1      -Pd2     -C7      -C8      :  93.080032
 P1      -C27     -C36     -C30     :  -2.806315
 P1      -C27     -C36     -C37     : 177.756956
 P1      -C27     -C40     -C39     :-177.943865
 P1      -C27     -C40     -H55     :   2.223864
 P1      -C28     -C41     -H56     :  62.705626
 P1      -C28     -C41     -H57     :-178.275789
 P1      -C28     -C41     -H58     : -59.484453
 P1      -C28     -C42     -H59     : -63.385984
 P1      -C28     -C42     -H60     :  59.751319
 P1      -C28     -C42     -H61     : 177.970406
 P1      -C28     -C43     -H62     :  59.695125
 P1      -C28     -C43     -H63     : 179.394220
 P1      -C28     -C43     -H64     : -61.466782
 P1      -C29     -C44     -H65     : -56.309262
 P1      -C29     -C44     -H66     :  65.129946
 P1      -C29     -C44     -H67     :-176.533808
 P1      -C29     -C45     -H68     :  67.524893
 P1      -C29     -C45     -H69     :-174.307210
 P1      -C29     -C45     -H70     : -56.312153
 P1      -C29     -C46     -H71     : -58.378747
 P1      -C29     -C46     -H72     :  62.439306
 P1      -C29     -C46     -H73     :-177.350527
 Pd2     -P1      -C27     -C36     : -30.038984
 Pd2     -P1      -C27     -C40     : 148.814066
 Pd2     -P1      -C28     -C41     : -71.887501
 Pd2     -P1      -C28     -C42     :  51.188421
 Pd2     -P1      -C28     -C43     : 167.903702
 Pd2     -P1      -C29     -C44     : -69.923465
 Pd2     -P1      -C29     -C45     : 165.881169
 Pd2     -P1      -C29     -C46     :  45.941842
 Pd2     -N3      -C19     -C18     : 106.317066
 Pd2     -N3      -C19     -C20     : -73.550296
 Pd2     -C7      -C6      -C5      :-176.103214
 Pd2     -C7      -C6      -H12     :   3.472930
 Pd2     -C7      -C8      -C9      : 175.715994
 Pd2     -C7      -C8      -H13     :   4.034470
 Pd2     -C7      -C8      -H71     : -47.634228
 N3      -Pd2     -P1      -C27     :  -7.012217
 N3      -Pd2     -P1      -C28     :-129.987235
 N3      -Pd2     -P1      -C29     : 110.751950
 N3      -Pd2     -C7      -C6      :  89.219451
 N3      -Pd2     -C7      -C8      : -85.663728
 N3      -C19     -C18     -C17     :-179.918846
 N3      -C19     -C18     -H24     :   0.008496
 N3      -C19     -C20     -C21     : 179.904510
 N3      -C19     -C20     -H25     :  -0.052208
 C4      -C5      -C6      -C7      :   0.594374
 C4      -C5      -C6      -H12     :-178.985417
 C4      -C9      -C8      -C7      :   0.233328
 C4      -C9      -C8      -H13     : 172.384880
 C4      -C9      -C8      -H71     :-111.843222
 C5      -C4      -C9      -C8      :  -0.778149
 C5      -C4      -C9      -H14     : 179.014053
 C5      -C6      -C7      -C8      :  -1.129846
 C6      -C5      -C4      -C9      :   0.371430
 C6      -C5      -C4      -F10     :-179.005720
 C6      -C7      -C8      -C9      :   0.722016
 C6      -C7      -C8      -H13     :-170.959508
 C6      -C7      -C8      -H71     : 137.371793
 C7      -Pd2     -P1      -C27     :-175.341376
 C7      -Pd2     -P1      -C28     :  61.683607
 C7      -Pd2     -P1      -C29     : -57.577208
 C7      -Pd2     -N3      -H15     : 100.444795
 C7      -Pd2     -N3      -C19     : -35.935263
 C7      -C6      -C5      -H11     :-179.776445
 C7      -C8      -C9      -H14     :-179.557872
 C7      -C8      -H71     -C46     : -99.510282
 C8      -C7      -C6      -H12     : 178.446298
 C8      -C9      -C4      -F10     : 178.609488
 C8      -H71     -C46     -C29     : 159.741136
 C8      -H71     -C46     -H72     :  37.201723
 C8      -H71     -C46     -H73     : -78.509313
 C9      -C4      -C5      -H11     :-179.259467
 C9      -C8      -H71     -C46     :  27.023828
 F10     -C4      -C5      -H11     :   1.363384
 F10     -C4      -C9      -H14     :  -1.598310
 H11     -C5      -C6      -H12     :   0.643764
 H13     -C8      -C9      -H14     :  -7.406320
 H13     -C8      -H71     -C46     : 128.869498
 H14     -C9      -C8      -H71     :  68.365578
 H15     -N3      -C19     -C18     : -33.231590
 H15     -N3      -C19     -C20     : 146.901048
 C16     -C17     -C18     -C19     :   0.021276
 C16     -C17     -C18     -H24     :-179.905904
 C16     -C21     -C20     -C19     :   0.011114
 C16     -C21     -C20     -H25     : 179.967591
 C17     -C16     -C21     -C20     :  -0.042150
 C17     -C16     -C21     -H26     :-179.991099
 C17     -C18     -C19     -C20     :  -0.052295
 C18     -C17     -C16     -C21     :   0.025921
 C18     -C17     -C16     -H22     : 179.993332
 C18     -C19     -C20     -C21     :   0.036099
 C18     -C19     -C20     -H25     :-179.920619
 C19     -C18     -C17     -H23     :-179.988305
 C19     -C20     -C21     -H26     : 179.960129
 C20     -C19     -C18     -H24     : 179.875046
 C20     -C21     -C16     -H22     : 179.990462
 C21     -C16     -C17     -H23     :-179.964493
 H22     -C16     -C17     -H23     :   0.002917
 H22     -C16     -C21     -H26     :   0.041513
 H23     -C17     -C18     -H24     :   0.084515
 H25     -C20     -C21     -H26     :  -0.083393
 C27     -P1      -C28     -C41     : 165.626602
 C27     -P1      -C28     -C42     : -71.297476
 C27     -P1      -C28     -C43     :  45.417804
 C27     -P1      -C29     -C44     :  44.155275
 C27     -P1      -C29     -C45     : -80.040091
 C27     -P1      -C29     -C46     : 160.020581
 C27     -C36     -C30     -C31     : 116.538600
 C27     -C36     -C30     -C35     : -64.616886
 C27     -C36     -C37     -C38     :   0.394728
 C27     -C36     -C37     -H52     : 177.533751
 C27     -C40     -C39     -C38     :  -0.333363
 C27     -C40     -C39     -H54     : 179.820745
 C28     -P1      -C27     -C36     : 101.492787
 C28     -P1      -C27     -C40     : -79.654163
 C28     -P1      -C29     -C44     : 160.770940
 C28     -P1      -C29     -C45     :  36.575574
 C28     -P1      -C29     -C46     : -83.363754
 C29     -P1      -C27     -C36     :-142.594582
 C29     -P1      -C27     -C40     :  36.258468
 C29     -P1      -C28     -C41     :  46.233137
 C29     -P1      -C28     -C42     : 169.309059
 C29     -P1      -C28     -C43     : -73.975660
 C30     -C31     -C32     -C33     :   0.139376
 C30     -C31     -C32     -H48     : 179.554066
 C30     -C31     -C47     -H74     :  85.311158
 C30     -C31     -C47     -H75     : -41.899921
 C30     -C31     -C47     -H76     :-157.235031
[...]
    H22      Z     0.00596  -0.00086   0.00047   0.00056  -0.00010  -0.00058
    H23      X    -0.00268   0.00055   0.00052   0.00010   0.00013  -0.00009
    H23      Y    -0.00074   0.00014   0.00011   0.00002   0.00003  -0.00010
    H23      Z     0.00638  -0.00130  -0.00114  -0.00023  -0.00030   0.00008
    H24      X     0.00031  -0.00004   0.00006   0.00010  -0.00002   0.00030
    H24      Y    -0.00442   0.00034  -0.00090  -0.00092   0.00009  -0.00121
    H24      Z     0.00260  -0.00018   0.00058   0.00059  -0.00004  -0.00288
    H25      X     0.01370   0.00060   0.00439  -0.00954   0.00001  -0.00155
    H25      Y     0.00294   0.00016   0.00098  -0.00214   0.00002   0.00034
    H25      Z    -0.03243  -0.00146  -0.00991   0.02450  -0.00008   0.00184
    H26      X    -0.00121   0.00008  -0.00016   0.00034   0.00003   0.00029
    H26      Y     0.01058  -0.00071   0.00105  -0.00272  -0.00030  -0.00077
    H26      Z    -0.00643   0.00045  -0.00064   0.00150   0.00018  -0.00020
    C27      X     0.00002  -0.00015   0.00000  -0.00002  -0.00102   0.00000
    C27      Y    -0.00000  -0.00005  -0.00000   0.00000   0.00018   0.00000
    C27      Z     0.00011  -0.00020   0.00001   0.00007   0.00255  -0.00004
    C28      X     0.00005   0.00000  -0.00003   0.00004   0.00007  -0.00002
    C28      Y     0.00001   0.00002   0.00000   0.00001   0.00000   0.00001
    C28      Z    -0.00002  -0.00001  -0.00000  -0.00002  -0.00007   0.00003
    C29      X     0.00000  -0.00001   0.00001   0.00001   0.00013  -0.00001
    C29      Y     0.00001  -0.00002  -0.00000   0.00000   0.00001  -0.00001
    C29      Z     0.00001  -0.00001   0.00002  -0.00001  -0.00005   0.00001
    C30      X     0.00037   0.00012  -0.00003   0.00024  -0.00005  -0.00005
    C30      Y    -0.00167  -0.00005  -0.00004  -0.00145   0.00001   0.00000
    C30      Z    -0.00088  -0.00003  -0.00001  -0.00074   0.00003  -0.00002
    C31      X     0.00022   0.00004   0.00002   0.00005   0.00001   0.00002
    C31      Y     0.00018  -0.00007  -0.00001  -0.00042  -0.00003   0.00001
    C31      Z     0.00136  -0.00001   0.00002  -0.00028  -0.00002   0.00007
    C32      X    -0.00609  -0.00022  -0.00001   0.00288   0.00001   0.00002
    C32      Y     0.01295   0.00046   0.00002  -0.00654  -0.00002  -0.00005
    C32      Z    -0.01110  -0.00036  -0.00002   0.00474   0.00003  -0.00004
    C33      X    -0.00628  -0.00030  -0.00002   0.00472   0.00000  -0.00006
    C33      Y    -0.01737  -0.00076  -0.00005   0.00777   0.00001  -0.00004
    C33      Z    -0.05385  -0.00246  -0.00014   0.03340   0.00005   0.00008
    C34      X     0.00167   0.00023   0.00003  -0.01550  -0.00002   0.00003
    C34      Y    -0.00310  -0.00086  -0.00013   0.06485   0.00007   0.00001
    C34      Z     0.00323  -0.00006  -0.00004   0.01752   0.00001  -0.00013
    C35      X    -0.01733  -0.00076  -0.00010  -0.01111  -0.00002   0.00009
    C35      Y     0.03798   0.00169   0.00023   0.02236   0.00004   0.00009
    C35      Z    -0.04086  -0.00185  -0.00018  -0.02815  -0.00006  -0.00001
    C36      X     0.00006  -0.00163  -0.00001   0.00002   0.00052  -0.00000
    C36      Y     0.00019  -0.00010  -0.00000   0.00013   0.00015   0.00000
    C36      Z    -0.00004   0.00080  -0.00001  -0.00005   0.00044   0.00000
    C37      X    -0.00069   0.02603   0.00015   0.00022   0.00088  -0.00000
    C37      Y    -0.00024   0.00838   0.00005   0.00008   0.00029   0.00000
    C37      Z    -0.00068   0.02897   0.00018   0.00038   0.00111  -0.00000
    C38      X    -0.00301   0.06309   0.00049   0.00043   0.00239  -0.00000
    C38      Y    -0.00030   0.00601   0.00005   0.00003   0.00035   0.00000
    C38      Z     0.00083  -0.01895  -0.00015  -0.00017   0.00023   0.00000
    C39      X    -0.00034   0.00572   0.00005   0.00002   0.00540  -0.00000
    C39      Y     0.00023  -0.00401  -0.00003  -0.00001  -0.00090  -0.00000
    C39      Z     0.00211  -0.03722  -0.00030  -0.00012  -0.01255  -0.00000
    C40      X    -0.00016   0.00320   0.00003   0.00011  -0.05785   0.00001
    C40      Y    -0.00006   0.00110   0.00001   0.00002  -0.01465   0.00000
    C40      Z    -0.00028   0.00554   0.00005   0.00012  -0.05617   0.00001
    C41      X    -0.00001  -0.00002  -0.00005  -0.00002  -0.00001  -0.00000
    C41      Y     0.00002  -0.00000  -0.00007   0.00002  -0.00001   0.00000
    C41      Z     0.00006  -0.00003   0.00094   0.00002  -0.00007  -0.00000
    C42      X     0.00181   0.00004  -0.00018   0.00067   0.00003  -0.00001
    C42      Y     0.00016   0.00003  -0.00007   0.00007   0.00006   0.00001
    C42      Z    -0.00034  -0.00001   0.00035  -0.00005  -0.00011   0.00002
    C43      X     0.00011  -0.00036  -0.00007  -0.00001   0.00192   0.00001
    C43      Y     0.00006  -0.00003  -0.00003   0.00002   0.00088  -0.00001
    C43      Z     0.00002   0.00001  -0.00000   0.00000   0.00005  -0.00000
    C44      X     0.00002  -0.00004  -0.00001  -0.00005   0.00008   0.00000
    C44      Y     0.00002  -0.00003   0.00001  -0.00003  -0.00004   0.00000
    C44      Z    -0.00000   0.00004   0.00005   0.00000  -0.00013   0.00000
    C45      X     0.00007  -0.00093  -0.00005  -0.00005   0.00475   0.00000
    C45      Y     0.00001   0.00006   0.00003  -0.00000  -0.00084   0.00000
    C45      Z    -0.00000   0.00007  -0.00002  -0.00000  -0.00034  -0.00001
    C46      X     0.00002  -0.00003   0.00001  -0.00001  -0.00002   0.00000
    C46      Y     0.00001  -0.00000   0.00025   0.00001  -0.00005  -0.00001
    C46      Z     0.00007  -0.00005   0.00107  -0.00002  -0.00020  -0.00003
    C47      X    -0.00010   0.00015   0.00003   0.00004   0.00005   0.00000
    C47      Y     0.00016   0.00006   0.00001  -0.00012   0.00000   0.00001
    C47      Z    -0.00049   0.00003   0.00000  -0.00002   0.00003   0.00001
    H48      X     0.06399   0.00205   0.00012  -0.02892  -0.00018  -0.00026
    H48      Y    -0.12515  -0.00416  -0.00019   0.05706   0.00032   0.00032
    H48      Z     0.13142   0.00419   0.00020  -0.05840  -0.00040  -0.00027
    H49      X     0.07248   0.00332   0.00022  -0.04301  -0.00006  -0.00004
    H49      Y     0.18797   0.00847   0.00052  -0.10520  -0.00016  -0.00013
    H49      Z     0.60945   0.02753   0.00169  -0.35395  -0.00052  -0.00026
    H50      X    -0.00822  -0.00237  -0.00035   0.17618   0.00020  -0.00008
    H50      Y     0.02771   0.00923   0.00147  -0.71830  -0.00083   0.00039
    H50      Z     0.00224   0.00222   0.00037  -0.19565  -0.00027   0.00010
    H51      X     0.20102   0.00902   0.00100   0.12360   0.00014  -0.00002
    H51      Y    -0.43670  -0.01928  -0.00224  -0.26552  -0.00035  -0.00014
    H51      Z     0.47242   0.02098   0.00238   0.29309   0.00045   0.00015
    H52      X     0.00750  -0.30441  -0.00177  -0.00303  -0.00980  -0.00001
    H52      Y     0.00243  -0.09214  -0.00054  -0.00082  -0.00297   0.00000
    H52      Z     0.00739  -0.29856  -0.00178  -0.00317  -0.00971   0.00001
    H53      X     0.03302  -0.69725  -0.00540  -0.00498  -0.02006   0.00003
    H53      Y     0.00323  -0.06741  -0.00052  -0.00046  -0.00207   0.00000
    H53      Z    -0.00975   0.20769   0.00161   0.00156   0.00471  -0.00001
    H54      X     0.00513  -0.08916  -0.00073  -0.00027  -0.03303   0.00002
    H54      Y    -0.00224   0.03946   0.00032   0.00016   0.01209  -0.00001
    H54      Z    -0.02290   0.40109   0.00327   0.00135   0.12857  -0.00005
    H55      X     0.00298  -0.05670  -0.00052  -0.00120   0.66622  -0.00006
    H55      Y     0.00077  -0.01503  -0.00013  -0.00031   0.17092  -0.00001
    H55      Z     0.00313  -0.05819  -0.00051  -0.00103   0.64361  -0.00008
    H56      X     0.00007  -0.00006   0.00200   0.00002  -0.00038   0.00002
    H56      Y     0.00009  -0.00005   0.00357   0.00006  -0.00035   0.00000
    H56      Z    -0.00035   0.00018  -0.00812  -0.00017   0.00101   0.00005
    H57      X    -0.00006   0.00024  -0.00020   0.00011   0.00036   0.00002
    H57      Y     0.00002  -0.00029   0.00022  -0.00018  -0.00031  -0.00002
    H57      Z    -0.00001   0.00007   0.00034   0.00005   0.00004  -0.00001
    H58      X    -0.00015   0.00008  -0.00118  -0.00002   0.00015  -0.00001
    H58      Y    -0.00038   0.00023  -0.00318  -0.00009   0.00033  -0.00002
    H58      Z    -0.00033   0.00019  -0.00330  -0.00010   0.00029  -0.00004
    H59      X     0.00041   0.00005   0.00110   0.00057  -0.00034   0.00004
    H59      Y    -0.00017   0.00001   0.00026   0.00009  -0.00009  -0.00007
    H59      Z     0.00321  -0.00001  -0.00417  -0.00010   0.00098  -0.00024
    H60      X    -0.02313  -0.00079   0.00163  -0.00992  -0.00063   0.00001
    H60      Y    -0.00546  -0.00010   0.00038  -0.00229  -0.00009  -0.00002
    H60      Z     0.00081   0.00003  -0.00010   0.00005  -0.00010   0.00000
    H61      X    -0.00205   0.00016  -0.00018  -0.00060   0.00038  -0.00004
    H61      Y     0.00318  -0.00021   0.00008   0.00106  -0.00044   0.00004
    H61      Z    -0.00210   0.00008   0.00003  -0.00071   0.00022  -0.00009
    H62      X    -0.00012  -0.00002   0.00001  -0.00007  -0.00203   0.00000
    H62      Y    -0.00057  -0.00027   0.00020  -0.00023  -0.00100   0.00002
    H62      Z    -0.00040  -0.00015   0.00012  -0.00017  -0.00161  -0.00000
    H63      X    -0.00018   0.00136   0.00014   0.00016  -0.00501   0.00001
    H63      Y     0.00023  -0.00138  -0.00024  -0.00016   0.00422  -0.00004
    H63      Z    -0.00007   0.00054   0.00014   0.00008  -0.00138   0.00007
    H64      X    -0.00115   0.00358   0.00105  -0.00005  -0.02254  -0.00002
    H64      Y    -0.00038   0.00145   0.00037   0.00004  -0.00785  -0.00002
    H64      Z     0.00030  -0.00064  -0.00025   0.00004   0.00371   0.00000
    H65      X    -0.00020   0.00038   0.00018   0.00050  -0.00123  -0.00001
    H65      Y    -0.00002  -0.00005   0.00004   0.00006  -0.00033   0.00002
    H65      Z     0.00004  -0.00003  -0.00004  -0.00020   0.00006   0.00001
    H66      X    -0.00001   0.00007   0.00007  -0.00007  -0.00025  -0.00001
    H66      Y     0.00002  -0.00006  -0.00010  -0.00000   0.00007  -0.00005
    H66      Z     0.00000  -0.00043  -0.00068   0.00009   0.00135  -0.00009
    H67      X    -0.00005   0.00012  -0.00001   0.00008   0.00026  -0.00002
    H67      Y    -0.00027   0.00047  -0.00008   0.00024   0.00074   0.00000
    H67      Z    -0.00006   0.00010   0.00002   0.00007   0.00007   0.00001
    H68      X    -0.00072   0.00928   0.00036   0.00036  -0.04946  -0.00002
    H68      Y    -0.00001   0.00049   0.00002   0.00000  -0.00491   0.00001
    H68      Z     0.00025  -0.00318  -0.00012  -0.00014   0.01734   0.00001
    H69      X    -0.00011   0.00077  -0.00000   0.00005  -0.00293  -0.00001
    H69      Y    -0.00031   0.00203  -0.00002   0.00014  -0.00629   0.00001
    H69      Z    -0.00005   0.00025  -0.00000   0.00001  -0.00042   0.00002
    H70      X    -0.00010   0.00169   0.00032   0.00012  -0.01020   0.00001
    H70      Y     0.00016  -0.00216  -0.00037  -0.00015   0.01140  -0.00002
    H70      Z    -0.00012   0.00183   0.00033   0.00013  -0.01012   0.00001
    H71      X     0.00012  -0.00007   0.00242  -0.00002  -0.00061  -0.00007
    H71      Y    -0.00017   0.00007  -0.00337   0.00002   0.00070   0.00008
    H71      Z    -0.00058   0.00033  -0.01112   0.00008   0.00241   0.00026
    H72      X    -0.00031   0.00032  -0.00248   0.00016   0.00040   0.00001
    H72      Y     0.00021  -0.00022   0.00176  -0.00010  -0.00032  -0.00001
    H72      Z    -0.00027   0.00027  -0.00213   0.00013   0.00044  -0.00000
    H73      X    -0.00004   0.00010  -0.00011   0.00001   0.00020   0.00000
    H73      Y    -0.00021   0.00037  -0.00142   0.00002   0.00065   0.00003
    H73      Z    -0.00000   0.00001   0.00013  -0.00001  -0.00002  -0.00000
    H74      X    -0.00048  -0.00096  -0.00019  -0.00108  -0.00029   0.00001
    H74      Y    -0.00026   0.00050   0.00001   0.00026   0.00004  -0.00003
    H74      Z     0.00002   0.00033   0.00010   0.00067   0.00018  -0.00004
    H75      X     0.00117  -0.00098  -0.00014   0.00068  -0.00033  -0.00012
    H75      Y     0.00010  -0.00064  -0.00010   0.00080  -0.00024  -0.00009
    H75      Z     0.00085  -0.00076  -0.00016   0.00086  -0.00026  -0.00015
    H76      X     0.00040  -0.00018   0.00001  -0.00026  -0.00005   0.00002
    H76      Y    -0.00285  -0.00007   0.00000   0.00110   0.00016  -0.00001
    H76      Z     0.00355   0.00010   0.00002  -0.00099  -0.00023   0.00004
  
  Number of imaginary frequencies:   0
   
  Writing vibrational animation data to red_elim_Ar_trans_L1_PL154.vib
  Writing IR vibrational spectrum data to red_elim_Ar_trans_L1_PL154_vib.spm
  rotational symmetry number:  1

  rotational temperatures (K):      0.006422      0.004364      0.003394
   
  The Quasi-Harmonic approximation will be applied to compute
  vibrational constributions to thermodynamic properties.
  Frequencies will be adjusted to a minimum value of  100.00 cm^-1.

  vibrational temperatures:
       mode:      1        2        3        4        5        6
  temp. (K):   143.88   143.88   143.88   143.88   143.88   143.88
   
       mode:      7        8        9       10       11       12
  temp. (K):   143.88   143.88   143.88   143.88   143.88   143.97
   
       mode:     13       14       15       16       17       18
  temp. (K):   151.17   163.04   167.21   180.10   199.90   217.65
   
       mode:     19       20       21       22       23       24
  temp. (K):   230.32   232.04   237.55   267.27   278.36   294.21
   
       mode:     25       26       27       28       29       30
  temp. (K):   309.06   324.70   339.29   347.17   358.42   364.27
   
       mode:     31       32       33       34       35       36
  temp. (K):   372.02   388.91   405.86   426.67   431.88   460.51
   
       mode:     37       38       39       40       41       42
  temp. (K):   469.09   479.31   491.34   505.34   510.44   519.51
   
       mode:     43       44       45       46       47       48
  temp. (K):   523.09   564.42   582.33   587.86   591.30   597.43
   
       mode:     49       50       51       52       53       54
  temp. (K):   606.34   608.04   617.88   621.16   664.50   704.02
   
       mode:     55       56       57       58       59       60
  temp. (K):   720.64   738.78   744.49   756.09   773.42   788.81
   
       mode:     61       62       63       64       65       66
  temp. (K):   794.36   835.04   840.73   854.06   858.32   891.77
   
       mode:     67       68       69       70       71       72
  temp. (K):   908.57   913.05   914.08   990.83  1016.62  1028.65
   
       mode:     73       74       75       76       77       78
  temp. (K):  1050.86  1058.98  1083.75  1107.55  1110.84  1111.51
   
       mode:     79       80       81       82       83       84
  temp. (K):  1150.53  1183.70  1191.84  1195.26  1199.67  1200.26
   
       mode:     85       86       87       88       89       90
  temp. (K):  1202.10  1205.04  1234.56  1271.28  1284.25  1317.93
   
       mode:     91       92       93       94       95       96
  temp. (K):  1356.34  1377.13  1380.69  1382.31  1388.07  1389.93
   
       mode:     97       98       99      100      101      102
  temp. (K):  1395.00  1402.93  1414.80  1418.34  1420.80  1436.72
   
       mode:    103      104      105      106      107      108
  temp. (K):  1441.99  1445.33  1463.26  1472.23  1475.30  1480.17
   
       mode:    109      110      111      112      113      114
  temp. (K):  1502.82  1515.55  1519.30  1524.18  1525.74  1535.60
   
       mode:    115      116      117      118      119      120
  temp. (K):  1539.73  1556.89  1563.61  1595.66  1602.36  1620.87
   
       mode:    121      122      123      124      125      126
  temp. (K):  1661.71  1679.85  1719.96  1724.22  1742.33  1742.59
   
       mode:    127      128      129      130      131      132
  temp. (K):  1746.74  1748.53  1753.03  1770.43  1774.99  1790.21
   
       mode:    133      134      135      136      137      138
  temp. (K):  1794.94  1799.52  1809.08  1838.48  1847.57  1874.63
   
       mode:    139      140      141      142      143      144
  temp. (K):  1898.05  1902.94  1927.58  1936.05  1947.48  1973.66
   
       mode:    145      146      147      148      149      150
  temp. (K):  1985.25  2020.19  2041.26  2048.93  2050.14  2054.64
   
       mode:    151      152      153      154      155      156
  temp. (K):  2061.46  2069.77  2091.83  2105.44  2117.24  2135.31
   
       mode:    157      158      159      160      161      162
  temp. (K):  2156.94  2164.60  2167.80  2173.50  2176.33  2178.09
   
       mode:    163      164      165      166      167      168
  temp. (K):  2180.30  2181.46  2189.37  2194.62  2196.36  2200.32
   
       mode:    169      170      171      172      173      174
  temp. (K):  2204.01  2209.64  2211.38  2217.34  2223.07  2227.10
   
       mode:    175      176      177      178      179      180
  temp. (K):  2243.49  2338.97  2343.31  2345.68  2362.18  2374.87
   
       mode:    181      182      183      184      185      186
  temp. (K):  2379.62  2388.12  2398.93  4372.75  4374.04  4380.27
   
       mode:    187      188      189      190      191      192
  temp. (K):  4383.31  4386.64  4390.97  4391.29  4478.67  4480.26
   
       mode:    193      194      195      196      197      198
  temp. (K):  4482.84  4490.53  4490.81  4493.01  4507.85  4515.61
   
       mode:    199      200      201      202      203      204
  temp. (K):  4520.78  4538.56  4545.92  4547.35  4550.67  4552.69
   
       mode:    205      206      207      208      209      210
  temp. (K):  4557.94  4576.54  4578.07  4580.60  4587.78  4594.76
   
       mode:    211      212      213      214      215      216
  temp. (K):  4598.42  4602.40  4605.06  4608.99  4615.46  4618.44
   
       mode:    217      218      219      220      221      222
  temp. (K):  4620.25  4622.52  4623.72  4643.29  4687.60  5060.04
   
   
  Thermodynamic properties calculated assuming an ideal gas

  In the table below, the units for temperature
  are kelvins, the units for U, H, and G are
  kcal/mol and the units for Cv and S are cal/(mol K)

  The zero point energy (ZPE):    403.263 kcal/mol
  is not included in U, H, or G in the table below
  
 
  =============================================================================
  Thermodynamic properties for P = 1.00E+00 atm, calculated at   1 temperatures


  T =   298.15 K, P = 1.00E+00 atm
   
                  U         Cv          S          H          G        ln(Q)
              =========  =========  =========  =========  =========  =========
  trans.          0.889      2.981     45.085      1.481    -11.961   20.18742
  rot.            0.889      2.981     37.166      0.889    -10.192   17.20273
  vib.           21.186    141.453    127.591     21.186    -16.855   28.44791
  elec.           0.000      0.000      0.000      0.000      0.000    0.00000
  ----------------------------------------------------------------------------
  total          22.964    147.415    209.842     23.556    -39.008   65.83806
   
   Total internal energy, Utot(SCFE + ZPE + U):   -1902.610352 hartrees
   Total enthalpy, Htot (Utot + nRT), with n=1:   -1902.609408 hartrees
    Total Gibbs free energy, Gtot (Htot - T*S):   -1902.709111 hartrees
   
  end of program freq
   
 Time(freq)  user:       0.424  user+sys:       0.424  wallclock:       0.665
  
  start of program post
  
  Writing input files for PBF
  end of program post
   
 Time(post)  user:       0.228  user+sys:       0.228  wallclock:       0.167

 Total cpu seconds     user:   98831.564   user+sys:   98831.564
  
 Total elapsed time:    57252 seconds

Job red_elim_Ar_trans_L1_PL154 completed on bp1-compute145.data.bp.acrc.priv at Sun Mar 23 10:21:08 2025
