Job red_elim_complex_L1_PL154_2 started on bp1-compute050.data.bp.acrc.priv at Thu May  1 16:16:13 2025
jobid: bp1-compute050-0-68139034

  +--------------------------------------------------------------------+
  |  Jaguar version 12.5, release 138                                  |
  |                                                                    |
  |  Copyright Schrodinger, Inc.                                       |
  |  All Rights Reserved.                                              |
  |                                                                    |
  |  The following have contributed to Jaguar (listed alphabetically): |
  |  Ty Balduf, Mike Beachy, Chandler Bennett, Art Bochevarov,         |
  |  Dale Braden, Yixiang Cao, Alan Chien, Chris Cortis,               |
  |  Rich Friesner, Jim Furness, Bill Goddard, Hod Greeley,            |
  |  Tom Hughes, Leif Jacobson, Jean-Marc Langlois, Daniel Levine,     |
  |  Rob Murphy, Dean Philipp, Tom Pollard, Murco Ringnalda,           |
  |  Daniel Mainz, Pablo Videla, Mark Watson, Haoyu Yu.                |
  |                                                                    |
  |  Use of this program should be acknowledged in publications as:    |
  |                                                                    |
  |  Jaguar, version 12.5, Schrodinger, Inc., New York, NY, 2024.      |
  |                                                                    |
  |  A. D. Bochevarov, E. Harder, T. F. Hughes, J. R. Greenwood,       |
  |  D. A. Braden, D. M. Philipp, D. Rinaldo, M. D. Halls,             |
  |  J. Zhang, R. A. Friesner, "Jaguar: A High-Performance Quantum     |
  |  Chemistry Software Program with Strengths in Life and Materials   |
  |  Sciences", Int. J. Quantum Chem., 2013, 113(18), 2110-2142.       |
  +--------------------------------------------------------------------+
  
  start of program pre
  
  Job name: red_elim_complex_L1_PL154_2
  Executables used: /software/local/apps/schrodinger2024-3/jaguar-v12.5/bin/Linux-x86_64
  Temporary files : /tmp/ar21627/red_elim_complex_L1_PL154_2#bp1-compute050-0-68139034
  Basis file : using default basis file from /software/local/apps/schrodinger2024-3
  Maestro file (input):  red_elim_complex_L1_PL154_2.mae
  Maestro file (output): red_elim_complex_L1_PL154_2.01.mae
  
 Contents of input file: &gen and (if present) &atomic sections only
 ----------------Contents start----------------
&gen
dftname=b3pw91-d3
basis=6-31G*
numd=5
ip11=2
iaccg=3
isolv=2
igeopt=1
solvent=benzene
ifreq=1
&
&atomic
atom basis
Pd2 lacv3p*
&
 -----------------Contents end-----------------
 
  PS calculation requested. Using PS version of 6-31g*
  basis set:               non_standard                    
  net molecular charge:    0
  multiplicity:            1
  
  Using up to   4 threads per process
  
  This run will use ECP on 1 atom
  number of basis functions....          617
 freezing dummy-atom X       
  
Warning: dummy atom X        has only 0 geometric constraints
  
Each dummy atom must have at least 3 geometric constraints, 
so that it's frozen with respect to the non-dummy atoms.
  
  
 Input geometry:
                                   angstroms
  atom               x                 y                 z
  P1            0.3318278300     -0.3617946214      0.3119939418 
  Pd2           0.6858181586      0.1552805099      2.5095890393 
  N3            2.2840371243      0.6266705636      6.0526654694 
  C4           -1.0248036870      2.0896664999      3.9406405197 
  C5           -0.1418752598      2.9636333529      4.5343243997 
  C6            0.9794363369      2.4595499532      5.2117573405 
  C7            1.2016580793      1.0848846205      5.3100781582 
  C8            0.2751114545      0.1873994077      4.7090973084 
  C9           -0.8573764104      0.6906648625      4.0071808908 
  F10          -2.1041474706      2.5663303885      3.2802657358 
  H11          -0.3150927825      4.0329093777      4.4602740753 
  H12           1.6844319883      3.1523721558      5.6659214427 
  H13           0.2865227583     -0.8576842205      5.0046198367 
  H14          -1.7040796878      0.0503768409      3.7759041364 
  H15           2.6985978531      1.3165051072      6.6613550026 
  C16           4.3451219922     -3.0431760627      6.1916564988 
  C17           3.5073768481     -2.7621704733      5.1142430837 
  C18           2.8020622246     -1.5649623507      5.0375349759 
  C19           2.9176439517     -0.6128611339      6.0644975587 
  C20           3.7681956223     -0.8986595034      7.1480836786 
  C21           4.4744048216     -2.0931207145      7.2049969820 
  H22           4.8907816454     -3.9816605480      6.2404775492 
  H23           3.4075134940     -3.4777633834      4.3007753268 
  H24           2.2071139696     -1.3515930537      4.1543294452 
  H25           3.8690762614     -0.1714188806      7.9529301626 
  H26           5.1253392776     -2.2849200114      8.0551414756 
  C27           1.8570844646     -0.2846486486     -0.7348078219 
  C28          -0.8377278591      0.8453844305     -0.5951399416 
  C29          -0.3290884545     -2.1568177217      0.1928576896 
  C30           3.1643267448      0.9769029262      1.1238606234 
  C31           3.8485012695      0.2461548652      2.1223408834 
  C32           4.1888462820      0.8900637666      3.3160281308 
  C33           3.8630132479      2.2250456544      3.5388794084 
  C34           3.1991998352      2.9465776053      2.5503856431 
  C35           2.8698641879      2.3286499768      1.3478229949 
  C36           3.0035912900      0.3788314052     -0.2437234786 
  C37           4.1356463901      0.4796738224     -1.0692167617 
  C38           4.1707963437     -0.0786682555     -2.3414674429 
  C39           3.0505670760     -0.7556004950     -2.8180330612 
  C40           1.9134686513     -0.8428249709     -2.0230569700 
  C41          -2.2195257076      0.7789038554      0.0688980377 
  C42          -0.2475513654      2.2422339431     -0.3434971488 
  C43          -0.9698879103      0.6576368523     -2.1119009475 
  C44           0.8786598526     -3.0719084783      0.4468172050 
  C45          -1.0442565888     -2.5858169247     -1.0941990105 
  C46          -1.3140909266     -2.3479119002      1.3635954764 
  C47           4.2436987022     -1.1862906674      1.8841005308 
  H48           4.7106500482      0.3252032565      4.0840053486 
  H49           4.1360377069      2.7003867802      4.4774980562 
  H50           2.9375275391      3.9893482255      2.7105072380 
  H51           2.3769208973      2.8968391654      0.5658731142 
  H52           5.0076609373      1.0016697227     -0.6818540057 
  H53           5.0658496164      0.0095828669     -2.9522830775 
  H54           3.0563215864     -1.2085050999     -3.8068094119 
  H55           1.0448413414     -1.3563764187     -2.4179019382 
  H56          -2.1466662229      0.9094443587      1.1541064928 
  H57          -2.8486531739      1.5895234447     -0.3238175605 
  H58          -2.7370775778     -0.1630494187     -0.1413511840 
  H59          -0.1377735650      2.4467485204      0.7271652333 
  H60           0.7324605365      2.3475784483     -0.8225827768 
  H61          -0.9122966951      3.0026221402     -0.7759386500 
  H62          -1.3813326665     -0.3147698211     -2.3922423760 
  H63          -1.6502661749      1.4249479965     -2.5072422538 
  H64          -0.0087927591      0.7840136764     -2.6202119970 
  H65           1.6144676226     -3.0277612426     -0.3625440382 
  H66           1.3797828533     -2.7969724430      1.3832402728 
  H67           0.5380013113     -4.1117338157      0.5424760494 
  H68          -0.4140372427     -2.5184476554     -1.9848895051 
  H69          -1.3478801428     -3.6377708308     -0.9981878016 
  H70          -1.9542183872     -2.0044576352     -1.2704282683 
  H71          -0.8309552169     -2.1186446420      2.3200266010 
  H72          -2.1970510617     -1.7077399498      1.2771447592 
  H73          -1.6576980733     -3.3918348174      1.3819064426 
  H74           4.9751625398     -1.2663584407      1.0706198206 
  H75           3.3766761500     -1.7863771563      1.5875699778 
  H76           4.6751266104     -1.6291809992      2.7854697813 
  X            -0.2911324780      0.4390321351      4.3581390996 
   
  principal moments of inertia:
        amu*angstrom^2:              3699.46958              5790.36909              6706.60635
                g*cm^2:          6.14311299E-37          9.61513289E-37          1.11365805E-36
   
  rotational constants:
               cm^(-1):      0.00455677      0.00291132      0.00251359
                   GHz:      0.13660850      0.08727924      0.07535540
   
  Z-matrix: (angstroms and degrees) 
 P1             0.3318278300            -0.3617946214             0.3119939418 
 Pd2            0.6858181586             0.1552805099             2.5095890393 
 N3             2.2840371243             0.6266705636             6.0526654694 
 C4            -1.0248036870             2.0896664999             3.9406405197 
 C5            -0.1418752598             2.9636333529             4.5343243997 
 C6             0.9794363369             2.4595499532             5.2117573405 
 C7             1.2016580793             1.0848846205             5.3100781582 
 C8             0.2751114545             0.1873994077             4.7090973084 
 C9            -0.8573764104             0.6906648625             4.0071808908 
 F10           -2.1041474706             2.5663303885             3.2802657358 
 H11           -0.3150927825             4.0329093777             4.4602740753 
 H12            1.6844319883             3.1523721558             5.6659214427 
 H13            0.2865227583            -0.8576842205             5.0046198367 
 H14           -1.7040796878             0.0503768409             3.7759041364 
 H15            2.6985978531             1.3165051072             6.6613550026 
 C16            4.3451219922            -3.0431760627             6.1916564988 
 C17            3.5073768481            -2.7621704733             5.1142430837 
 C18            2.8020622246            -1.5649623507             5.0375349759 
 C19            2.9176439517            -0.6128611339             6.0644975587 
 C20            3.7681956223            -0.8986595034             7.1480836786 
 C21            4.4744048216            -2.0931207145             7.2049969820 
 H22            4.8907816454            -3.9816605480             6.2404775492 
 H23            3.4075134940            -3.4777633834             4.3007753268 
 H24            2.2071139696            -1.3515930537             4.1543294452 
 H25            3.8690762614            -0.1714188806             7.9529301626 
 H26            5.1253392776            -2.2849200114             8.0551414756 
 C27            1.8570844646            -0.2846486486            -0.7348078219 
 C28           -0.8377278591             0.8453844305            -0.5951399416 
 C29           -0.3290884545            -2.1568177217             0.1928576896 
 C30            3.1643267448             0.9769029262             1.1238606234 
 C31            3.8485012695             0.2461548652             2.1223408834 
 C32            4.1888462820             0.8900637666             3.3160281308 
 C33            3.8630132479             2.2250456544             3.5388794084 
 C34            3.1991998352             2.9465776053             2.5503856431 
 C35            2.8698641879             2.3286499768             1.3478229949 
 C36            3.0035912900             0.3788314052            -0.2437234786 
 C37            4.1356463901             0.4796738224            -1.0692167617 
 C38            4.1707963437            -0.0786682555            -2.3414674429 
 C39            3.0505670760            -0.7556004950            -2.8180330612 
 C40            1.9134686513            -0.8428249709            -2.0230569700 
 C41           -2.2195257076             0.7789038554             0.0688980377 
 C42           -0.2475513654             2.2422339431            -0.3434971488 
 C43           -0.9698879103             0.6576368523            -2.1119009475 
 C44            0.8786598526            -3.0719084783             0.4468172050 
 C45           -1.0442565888            -2.5858169247            -1.0941990105 
 C46           -1.3140909266            -2.3479119002             1.3635954764 
 C47            4.2436987022            -1.1862906674             1.8841005308 
 H48            4.7106500482             0.3252032565             4.0840053486 
 H49            4.1360377069             2.7003867802             4.4774980562 
 H50            2.9375275391             3.9893482255             2.7105072380 
 H51            2.3769208973             2.8968391654             0.5658731142 
 H52            5.0076609373             1.0016697227            -0.6818540057 
 H53            5.0658496164             0.0095828669            -2.9522830775 
 H54            3.0563215864            -1.2085050999            -3.8068094119 
 H55            1.0448413414            -1.3563764187            -2.4179019382 
 H56           -2.1466662229             0.9094443587             1.1541064928 
 H57           -2.8486531739             1.5895234447            -0.3238175605 
 H58           -2.7370775778            -0.1630494187            -0.1413511840 
 H59           -0.1377735650             2.4467485204             0.7271652333 
 H60            0.7324605365             2.3475784483            -0.8225827768 
 H61           -0.9122966951             3.0026221402            -0.7759386500 
 H62           -1.3813326665            -0.3147698211            -2.3922423760 
 H63           -1.6502661749             1.4249479965            -2.5072422538 
 H64           -0.0087927591             0.7840136764            -2.6202119970 
 H65            1.6144676226            -3.0277612426            -0.3625440382 
 H66            1.3797828533            -2.7969724430             1.3832402728 
 H67            0.5380013113            -4.1117338157             0.5424760494 
 H68           -0.4140372427            -2.5184476554            -1.9848895051 
 H69           -1.3478801428            -3.6377708308            -0.9981878016 
 H70           -1.9542183872            -2.0044576352            -1.2704282683 
 H71           -0.8309552169            -2.1186446420             2.3200266010 
 H72           -2.1970510617            -1.7077399498             1.2771447592 
 H73           -1.6576980733            -3.3918348174             1.3819064426 
 H74            4.9751625398            -1.2663584407             1.0706198206 
 H75            3.3766761500            -1.7863771563             1.5875699778 
 H76            4.6751266104            -1.6291809992             2.7854697813 
 X             -0.2911324780#            0.4390321351#            4.3581390996#
  
  Molecular weight:     605.18 amu
   
  Stoichiometry: PdC33PNH39F
  Molecular Point Group: C1      
  Point Group used: C1
  
 
Number of optimization coordinates:   266
Number of independent coordinates:    263
Number of non-redundant coordinates:  225
Number of frozen coordinates:           3
Number of harmonic constraints:         0
 
Number of geometric degrees of freedom:   222
Maximum geometric degrees of freedom:     225
 " " " " " excluding dummy atoms:         222
 
 
  bond lengths (angstroms):
 
 P1      -Pd2     :   2.285191      P1      -C27     :   1.851527
 P1      -C28     :   1.909983      P1      -C29     :   1.916536
 Pd2     -C8      :   2.237755      Pd2     -C9      :   2.216048
 Pd2     -X       :   2.109996      N3      -C7      :   1.390302
 N3      -H15     :   1.009076      N3      -C19     :   1.392134
 C4      -C5      :   1.376895      C4      -C9      :   1.410555
 C4      -F10     :   1.352141      C5      -C6      :   1.403693
 C5      -H11     :   1.085744      C6      -C7      :   1.395978
 C6      -H12     :   1.087790      C7      -C8      :   1.423076
 C8      -C9      :   1.424251      C8      -H13     :   1.086123
 C8      -X       :   0.712126      C9      -H14     :   1.086446
 C9      -X       :   0.712126      C16     -C17     :   1.393413
 C16     -C21     :   1.395055      C16     -H22     :   1.086684
 C17     -C18     :   1.391639      C17     -H23     :   1.088015
 C18     -C19     :   1.405172      C18     -H24     :   1.086067
 C19     -C20     :   1.406868      C20     -C21     :   1.388779
 C20     -H25     :   1.089419      C21     -H26     :   1.087772
 C27     -C36     :   1.412745      C27     -C40     :   1.405107
 C28     -C41     :   1.534513      C28     -C42     :   1.537147
 C28     -C43     :   1.534040      C29     -C44     :   1.536406
 C29     -C45     :   1.533630      C29     -C46     :   1.541873
 C30     -C31     :   1.413878      C30     -C35     :   1.401459
 C30     -C36     :   1.501270      C31     -C32     :   1.398336
 C31     -C47     :   1.504938      C32     -C33     :   1.392123
 C32     -H48     :   1.086801      C33     -C34     :   1.392256
 C33     -H49     :   1.086967      C34     -C35     :   1.391565
 C34     -H50     :   1.086960      C35     -H51     :   1.085024
 C36     -C37     :   1.404691      C37     -C38     :   1.389821
 C37     -H52     :   1.087630      C38     -C39     :   1.392934
 C38     -H53     :   1.087200      C39     -C40     :   1.390176
 C39     -H54     :   1.087582      C40     -H55     :   1.083583
 C41     -H56     :   1.095457      C41     -H57     :   1.098695
 C41     -H58     :   1.095144      C42     -H59     :   1.095534
 C42     -H60     :   1.095921      C42     -H61     :   1.098673
 C43     -H62     :   1.092453      C43     -H63     :   1.099079
 C43     -H64     :   1.094557      C44     -H65     :   1.094727
 C44     -H66     :   1.097088      C44     -H67     :   1.098379
 C45     -H68     :   1.093181      C45     -H69     :   1.099096
 C45     -H70     :   1.094105      C46     -H71     :   1.095785
 C46     -H72     :   1.094035      C46     -H73     :   1.099171
 C47     -H74     :   1.096905      C47     -H75     :   1.095337
 C47     -H76     :   1.093045
 
  bond angles:
 
 C27     -P1      -Pd2     : 113.995389  C28     -P1      -Pd2     : 114.115704
 C28     -P1      -C27     : 102.097718  C29     -P1      -Pd2     : 108.973127
 C29     -P1      -C27     : 106.735898  C29     -P1      -C28     : 110.565374
 C8      -Pd2     -P1      : 156.933148  C9      -Pd2     -P1      : 126.632705
 C9      -Pd2     -C8      :  37.295593  X       -Pd2     -P1      : 143.246270
 X       -Pd2     -C8      :  18.553557  X       -Pd2     -C9      :  18.742036
 H15     -N3      -C7      : 114.627668  C19     -N3      -C7      : 130.716876
 C19     -N3      -H15     : 114.618963  C9      -C4      -C5      : 122.214142
 F10     -C4      -C5      : 119.913686  F10     -C4      -C9      : 117.867319
 C6      -C5      -C4      : 119.497971  H11     -C5      -C4      : 119.564285
 H11     -C5      -C6      : 120.932260  C7      -C6      -C5      : 120.983000
 H12     -C6      -C5      : 119.372998  H12     -C6      -C7      : 119.644001
 C6      -C7      -N3      : 119.084325  C8      -C7      -N3      : 121.641001
 C8      -C7      -C6      : 119.186134  C7      -C8      -Pd2     : 107.736973
 C9      -C8      -Pd2     :  70.524754  C9      -C8      -C7      : 120.197966
 H13     -C8      -Pd2     : 104.578117  H13     -C8      -C7      : 119.018282
 H13     -C8      -C9      : 118.845620  X       -C8      -Pd2     :  70.524754
 X       -C8      -C7      : 120.197966  X       -C8      -C9      :   0.000000
 X       -C8      -H13     : 118.845620  C4      -C9      -Pd2     : 106.881470
 C8      -C9      -Pd2     :  72.179653  C8      -C9      -C4      : 117.910346
 H14     -C9      -Pd2     : 104.860422  H14     -C9      -C4      : 118.814091
 H14     -C9      -C8      : 121.087647  X       -C9      -Pd2     :  72.179653
 X       -C9      -C4      : 117.910346  X       -C9      -C8      :   0.000000
 X       -C9      -H14     : 121.087647  C21     -C16     -C17     : 118.687268
 H22     -C16     -C17     : 120.716716  H22     -C16     -C21     : 120.595487
 C18     -C17     -C16     : 121.387456  H23     -C17     -C16     : 120.043147
 H23     -C17     -C18     : 118.560364  C19     -C18     -C17     : 120.061568
 H24     -C18     -C17     : 119.437578  H24     -C18     -C19     : 120.416163
 C18     -C19     -N3      : 124.031419  C20     -C19     -N3      : 117.553953
 C20     -C19     -C18     : 118.358633  C21     -C20     -C19     : 120.911654
 H25     -C20     -C19     : 119.300827  H25     -C20     -C21     : 119.787275
 C20     -C21     -C16     : 120.586334  H26     -C21     -C16     : 120.203793
 H26     -C21     -C20     : 119.207803  C36     -C27     -P1      : 119.444253
 C40     -C27     -P1      : 122.334214  C40     -C27     -C36     : 118.209581
 C41     -C28     -P1      : 108.571710  C42     -C28     -P1      : 105.158789
 C42     -C28     -C41     : 108.316138  C43     -C28     -P1      : 116.422974
 C43     -C28     -C41     : 110.180630  C43     -C28     -C42     : 107.827856
 C44     -C29     -P1      : 106.050555  C45     -C29     -P1      : 118.357523
 C45     -C29     -C44     : 109.796629  C46     -C29     -P1      : 106.808912
 C46     -C29     -C44     : 107.629168  C46     -C29     -C45     : 107.736844
 C35     -C30     -C31     : 119.164841  C36     -C30     -C31     : 119.289724
 C36     -C30     -C35     : 120.485890  C32     -C31     -C30     : 118.857224
 C47     -C31     -C30     : 120.478842  C47     -C31     -C32     : 120.632081
 C33     -C32     -C31     : 121.417231  H48     -C32     -C31     : 118.734295
 H48     -C32     -C33     : 119.845962  C34     -C33     -C32     : 119.664053
 H49     -C33     -C32     : 119.920813  H49     -C33     -C34     : 120.412431
 C35     -C34     -C33     : 119.753795  H50     -C34     -C33     : 120.488730
 H50     -C34     -C35     : 119.757421  C34     -C35     -C30     : 121.109581
 H51     -C35     -C30     : 119.037240  H51     -C35     -C34     : 119.853178
 C30     -C36     -C27     : 126.202335  C37     -C36     -C27     : 118.912192
 C37     -C36     -C30     : 114.863165  C38     -C37     -C36     : 121.971497
 H52     -C37     -C36     : 118.118622  H52     -C37     -C38     : 119.904540
 C39     -C38     -C37     : 119.214673  H53     -C38     -C37     : 120.166099
 H53     -C38     -C39     : 120.618449  C40     -C39     -C38     : 119.515552
 H54     -C39     -C38     : 120.608527  H54     -C39     -C40     : 119.874396
 C39     -C40     -C27     : 122.153686  H55     -C40     -C27     : 119.352881
 H55     -C40     -C39     : 118.493037  H56     -C41     -C28     : 111.323453
 H57     -C41     -C28     : 109.207256  H57     -C41     -H56     : 107.713559
 H58     -C41     -C28     : 112.317654  H58     -C41     -H56     : 108.911986
 H58     -C41     -H57     : 107.179408  H59     -C42     -C28     : 111.598833
 H60     -C42     -C28     : 111.046204  H60     -C42     -H59     : 108.643417
 H61     -C42     -C28     : 109.401765  H61     -C42     -H59     : 108.426932
 H61     -C42     -H60     : 107.605384  H62     -C43     -C28     : 113.272945
 H63     -C43     -C28     : 108.877053  H63     -C43     -H62     : 107.215760
 H64     -C43     -C28     : 111.678014  H64     -C43     -H62     : 108.318652
 H64     -C43     -H63     : 107.212127  H65     -C44     -C29     : 112.465873
 H66     -C44     -C29     : 110.541837  H66     -C44     -H65     : 108.296378
 H67     -C44     -C29     : 109.538931  H67     -C44     -H65     : 108.121161
 H67     -C44     -H66     : 107.732684  H68     -C45     -C29     : 113.434362
 H69     -C45     -C29     : 108.859047  H69     -C45     -H68     : 106.822924
 H70     -C45     -C29     : 111.985936  H70     -C45     -H68     : 108.390434
 H70     -C45     -H69     : 107.030522  H71     -C46     -C29     : 110.801943
 H72     -C46     -C29     : 112.523493  H72     -C46     -H71     : 107.600710
 H73     -C46     -C29     : 109.272382  H73     -C46     -H71     : 108.783856
 H73     -C46     -H72     : 107.743644  H74     -C47     -C31     : 111.222657
 H75     -C47     -C31     : 110.882875  H75     -C47     -H74     : 106.683478
 H76     -C47     -C31     : 111.024992  H76     -C47     -H74     : 108.589390
 H76     -C47     -H75     : 108.281876  C8      -X       -Pd2     :  90.921689
 C9      -X       -Pd2     :  89.078311  C9      -X       -C8      : 180.000000
 
  torsional angles:
 
 P1      -Pd2     -C8      -C7      :-171.828651
 P1      -Pd2     -C8      -C9      : -55.275350
 P1      -Pd2     -C8      -H13     :  60.623415
 P1      -Pd2     -C8      -X       : -55.275350
 P1      -Pd2     -C9      -C4      : -89.059428
 P1      -Pd2     -C9      -C8      : 156.341303
 P1      -Pd2     -C9      -H14     :  37.926976
 P1      -Pd2     -C9      -X       : 156.341303
 P1      -Pd2     -X       -C8      : 147.441345
 P1      -Pd2     -X       -C9      : -32.558655
 P1      -C27     -C36     -C30     :   4.468021
 P1      -C27     -C36     -C37     :-177.344002
 P1      -C27     -C40     -C39     : 178.469627
 P1      -C27     -C40     -H55     :  -1.298067
 P1      -C28     -C41     -H56     :  51.332083
 P1      -C28     -C41     -H57     : 170.139199
 P1      -C28     -C41     -H58     : -71.103029
 P1      -C28     -C42     -H59     : -55.849575
 P1      -C28     -C42     -H60     :  65.531928
 P1      -C28     -C42     -H61     :-175.840838
 P1      -C28     -C43     -H62     :  62.024609
 P1      -C28     -C43     -H63     :-178.794634
 P1      -C28     -C43     -H64     : -60.601182
 P1      -C29     -C44     -H65     : -68.238430
 P1      -C29     -C44     -H66     :  52.941864
 P1      -C29     -C44     -H67     : 171.504102
 P1      -C29     -C45     -H68     :  60.729445
 P1      -C29     -C45     -H69     : 179.505301
 P1      -C29     -C45     -H70     : -62.351427
 P1      -C29     -C46     -H71     : -55.647416
 P1      -C29     -C46     -H72     :  64.864771
 P1      -C29     -C46     -H73     :-175.497759
 Pd2     -P1      -C27     -C36     : -15.626002
 Pd2     -P1      -C27     -C40     : 165.654697
 Pd2     -P1      -C28     -C41     : -62.687794
 Pd2     -P1      -C28     -C42     :  53.065773
 Pd2     -P1      -C28     -C43     : 172.328755
 Pd2     -P1      -C29     -C44     : -74.958547
 Pd2     -P1      -C29     -C45     : 161.278301
 Pd2     -P1      -C29     -C46     :  39.631072
 Pd2     -C8      -C7      -N3      :-105.562935
 Pd2     -C8      -C7      -C6      :  77.890702
 Pd2     -C8      -C9      -C4      :-100.072935
 Pd2     -C8      -C9      -H14     :  96.935316
 C8      -C9      -X            : collinear
 C8      -X       -C9           : collinear
 Pd2     -C9      -C4      -C5      : -78.845992
 Pd2     -C9      -C4      -F10     : 101.956812
 Pd2     -C9      -C8      -C7      :  99.675676
 Pd2     -C9      -C8      -H13     : -96.316145
 C9      -C8      -X            : collinear
 C9      -X       -C8           : collinear
 Pd2     -X       -C8      -C7      :  99.675676
 X       -C8      -C9           : collinear
 Pd2     -X       -C8      -H13     : -96.316145
 Pd2     -X       -C9      -C4      :-100.072935
 X       -C9      -C8           : collinear
 Pd2     -X       -C9      -H14     :  96.935316
 N3      -C7      -C6      -C5      :-176.471787
 N3      -C7      -C6      -H12     :   3.539408
 N3      -C7      -C8      -C9      : 177.078977
 N3      -C7      -C8      -H13     :  13.098174
 N3      -C7      -C8      -X       : 177.078977
 N3      -C19     -C18     -C17     : 177.912088
 N3      -C19     -C18     -H24     :   1.276969
 N3      -C19     -C20     -C21     :-177.551322
 N3      -C19     -C20     -H25     :   2.628639
 C4      -C5      -C6      -C7      :  -0.994467
 C4      -C5      -C6      -H12     : 178.994368
 C4      -C9      -Pd2     -C8      : 114.599269
 C4      -C9      -Pd2     -X       : 114.599269
 C4      -C9      -C8      -C7      :  -0.397259
 C4      -C9      -C8      -H13     : 163.610921
 C9      -C8      -X            : collinear
 C9      -X       -C8           : collinear
 C5      -C4      -C9      -C8      :  -0.450968
 C5      -C4      -C9      -H14     : 162.936614
 C5      -C4      -C9      -X       :  -0.450968
 C5      -C6      -C7      -C8      :   0.163810
 C6      -C5      -C4      -C9      :   1.145578
 C6      -C5      -C4      -F10     :-179.673208
 C6      -C7      -N3      -H15     :  14.850877
 C6      -C7      -N3      -C19     :-162.800136
 C6      -C7      -C8      -C9      :   0.532614
 C6      -C7      -C8      -H13     :-163.448189
 C6      -C7      -C8      -X       :   0.532614
 C7      -N3      -C19     -C18     :  18.360846
 C7      -N3      -C19     -C20     :-164.411273
 C7      -C6      -C5      -H11     : 179.861166
 C7      -C8      -Pd2     -C9      :-116.553301
 C7      -C8      -Pd2     -X       :-116.553301
 C7      -C8      -C9      -H14     :-163.389008
 C8      -C9      -X            : collinear
 C8      -X       -C9           : collinear
 C8      -Pd2     -P1      -C27     :-158.117373
 C8      -Pd2     -P1      -C28     :  85.100088
 C8      -Pd2     -P1      -C29     : -39.016614
 C8      -Pd2     -C9      -H14     :-118.414328
 C8      -Pd2     -C9      -X       :   0.000000
 C8      -Pd2     -X       -C9      :-179.999999
 C8      -C7      -N3      -H15     :-161.698909
 C8      -C7      -N3      -C19     :  20.650078
 C8      -C7      -C6      -H12     :-179.824995
 C8      -C9      -Pd2     -X       :   0.000000
 C8      -C9      -C4      -F10     :-179.648163
 C8      -X       -Pd2     -C9      : 180.000000
 C8      -X       -C9           : collinear
 C9      -Pd2     -P1      -C27     : 163.523232
 C9      -Pd2     -P1      -C28     :  46.740693
 C9      -Pd2     -P1      -C29     : -77.376009
 C9      -Pd2     -C8      -H13     : 115.898765
 C9      -Pd2     -C8      -X       :   0.000000
 C9      -C4      -C5      -H11     :-179.698222
 C9      -C8      -Pd2     -X       :   0.000000
 C9      -X       -C8           : collinear
 F10     -C4      -C5      -H11     :  -0.517009
 F10     -C4      -C9      -H14     : -16.260581
 F10     -C4      -C9      -X       :-179.648163
 H11     -C5      -C6      -H12     :  -0.149999
 H13     -C8      -Pd2     -X       : 115.898765
 H13     -C8      -C9      -H14     :   0.619171
 C8      -C9      -X            : collinear
 H14     -C9      -Pd2     -X       :-118.414328
 C9      -C8      -X            : collinear
 H15     -N3      -C19     -C18     :-159.290330
 H15     -N3      -C19     -C20     :  17.937550
 C16     -C17     -C18     -C19     :  -0.498845
 C16     -C17     -C18     -H24     : 176.169233
 C16     -C21     -C20     -C19     :  -0.605616
 C16     -C21     -C20     -H25     : 179.213554
 C17     -C16     -C21     -C20     :   0.814545
 C17     -C16     -C21     -H26     :-179.713034
 C17     -C18     -C19     -C20     :   0.704964
 C18     -C17     -C16     -C21     :  -0.265549
 C18     -C17     -C16     -H22     : 179.997360
 C18     -C19     -C20     -C21     :  -0.161846
 C18     -C19     -C20     -H25     :-179.981885
 C19     -C18     -C17     -H23     :-179.405674
 C19     -C20     -C21     -H26     : 179.916757
 C20     -C19     -C18     -H24     :-175.930155
 C20     -C21     -C16     -H22     :-179.448035
 C21     -C16     -C17     -H23     : 178.625283
 H22     -C16     -C17     -H23     :  -1.111808
 H22     -C16     -C21     -H26     :   0.024386
 H23     -C17     -C18     -H24     :  -2.737596
 H25     -C20     -C21     -H26     :  -0.264073
 C27     -P1      -Pd2     -X       : 175.966786
 C27     -P1      -C28     -C41     : 173.834070
 C27     -P1      -C28     -C42     : -70.412363
 C27     -P1      -C28     -C43     :  48.850619
 C27     -P1      -C29     -C44     :  48.575144
 C27     -P1      -C29     -C45     : -75.188007
 C27     -P1      -C29     -C46     : 163.164763
 C27     -C36     -C30     -C31     :  98.704216
 C27     -C36     -C30     -C35     : -93.163028
 C27     -C36     -C37     -C38     :  -1.436365
 C27     -C36     -C37     -H52     : 179.405698
 C27     -C40     -C39     -C38     :  -0.957196
 C27     -C40     -C39     -H54     : 179.489227
 C28     -P1      -Pd2     -X       :  59.184247
 C28     -P1      -C27     -C36     : 107.933220
 C28     -P1      -C27     -C40     : -70.786081
 C28     -P1      -C29     -C44     : 158.852388
 C28     -P1      -C29     -C45     :  35.089237
 C28     -P1      -C29     -C46     : -86.557993
 C29     -P1      -Pd2     -X       : -64.932455
 C29     -P1      -C27     -C36     :-135.988670
 C29     -P1      -C27     -C40     :  45.292029
 C29     -P1      -C28     -C41     :  60.570365
 C29     -P1      -C28     -C42     : 176.323932
 C29     -P1      -C28     -C43     : -64.413086
 C30     -C31     -C32     -C33     :   0.298154
 C30     -C31     -C32     -H48     : 179.720619
 C30     -C31     -C47     -H74     :  64.415601
 C30     -C31     -C47     -H75     : -54.124835
 C30     -C31     -C47     -H76     :-174.544975
 C30     -C35     -C34     -C33     :   1.662761
 C30     -C35     -C34     -H50     :-178.421604
 C30     -C36     -C27     -C40     :-176.759941
 C30     -C36     -C37     -C38     : 176.952136
 C30     -C36     -C37     -H52     :  -2.205801
 C31     -C30     -C35     -C34     :  -2.186081
 C31     -C30     -C35     -H51     : 177.799127
 C31     -C30     -C36     -C37     : -79.547594
 C31     -C32     -C33     -C34     :  -0.835712
 C31     -C32     -C33     -H49     : 179.759832
 C32     -C31     -C30     -C35     :   1.191305
 C32     -C31     -C30     -C36     : 169.482123
 C32     -C31     -C47     -H74     :-113.508147
 C32     -C31     -C47     -H75     : 127.951417
 C32     -C31     -C47     -H76     :   7.531277
 C32     -C33     -C34     -C35     :  -0.140100
 C32     -C33     -C34     -H50     : 179.944893
 C33     -C32     -C31     -C47     : 178.255125
 C33     -C34     -C35     -H51     :-178.322328
 C34     -C33     -C32     -H48     : 179.748143
 C34     -C35     -C30     -C36     :-170.333510
 C35     -C30     -C31     -C47     :-176.768891
 C35     -C30     -C36     -C37     :  88.585161
 C35     -C34     -C33     -H49     : 179.261379
 C36     -C27     -C40     -C39     :  -0.264776
 C36     -C27     -C40     -H55     : 179.967529
 C36     -C30     -C31     -C47     :  -8.478073
 C36     -C30     -C35     -H51     :   9.651698
 C36     -C37     -C38     -C39     :   0.217494
 C36     -C37     -C38     -H53     :-179.463366
 C37     -C36     -C27     -C40     :   1.428036
 C37     -C38     -C39     -C40     :   0.975732
 C37     -C38     -C39     -H54     :-179.474039
 C38     -C39     -C40     -H55     : 178.812416
 C39     -C38     -C37     -H52     : 179.360745
 C40     -C39     -C38     -H53     :-179.344889
 C41     -C28     -C42     -H59     :  60.079983
 C41     -C28     -C42     -H60     :-178.538514
 C41     -C28     -C42     -H61     : -59.911280
 C41     -C28     -C43     -H62     : -62.137742
 C41     -C28     -C43     -H63     :  57.043015
 C41     -C28     -C43     -H64     : 175.236466
 C42     -C28     -C41     -H56     : -62.358936
 C42     -C28     -C41     -H57     :  56.448180
 C42     -C28     -C41     -H58     : 175.205953
 C42     -C28     -C43     -H62     : 179.834092
 C42     -C28     -C43     -H63     : -60.985150
 C42     -C28     -C43     -H64     :  57.208301
 C43     -C28     -C41     -H56     : 179.914110
 C43     -C28     -C41     -H57     : -61.278774
 C43     -C28     -C41     -H58     :  57.478999
 C43     -C28     -C42     -H59     : 179.301101
 C43     -C28     -C42     -H60     : -59.317396
 C43     -C28     -C42     -H61     :  59.309837
 C44     -C29     -C45     -H68     : -61.154795
 C44     -C29     -C45     -H69     :  57.621060
 C44     -C29     -C45     -H70     : 175.764333
 C44     -C29     -C46     -H71     :  57.871723
 C44     -C29     -C46     -H72     : 178.383910
 C44     -C29     -C46     -H73     : -61.978620
 C45     -C29     -C44     -H65     :  60.726275
 C45     -C29     -C44     -H66     :-178.093432
 C45     -C29     -C44     -H67     : -59.531194
 C45     -C29     -C46     -H71     : 176.214722
 C45     -C29     -C46     -H72     : -63.273091
 C45     -C29     -C46     -H73     :  56.364379
 C46     -C29     -C44     -H65     : 177.734755
 C46     -C29     -C44     -H66     : -61.084951
 C46     -C29     -C44     -H67     :  57.477287
 C46     -C29     -C45     -H68     :-178.095828
 C46     -C29     -C45     -H69     : -59.319973
 C46     -C29     -C45     -H70     :  58.823299
 C47     -C31     -C32     -H48     :  -2.322409
 H48     -C32     -C33     -H49     :   0.343687
 H49     -C33     -C34     -H50     :  -0.653629
 H50     -C34     -C35     -H51     :   1.593307
 H52     -C37     -C38     -H53     :  -0.320114
 H53     -C38     -C39     -H54     :   0.205340
 H54     -C39     -C40     -H55     :  -0.741160
 
  nuclear repulsion energy.......          4970.606475065 hartrees
  
  Detected an organometallic with only one TM atom. 
  
  
 
  Will use High-Quality Initial guess for organometallics
       including d-d repulsion (iguess=30)
 
 Non-default options chosen:
   SCF calculation type: DFT(b3pw91-d3)              
   DFT=Becke_3_Parameter/HF+Slater+Becke88+PW91+PW-GGAIIC (B3PW91-D3)
   Geometry will be optimized in redundant internal coordinates
      user-selected coordinates frozen
   Solvation energy will be computed using PBF
     -solute cavity energy will not be included
     -surface area terms will not be included
   Vibrational frequencies and related properties will be computed
      from analytic second derivatives
   IR intensities will be computed
   Thermochemical properties will be computed
   Maximum number of geometry steps: 100
   Scaling standard convergence criteria by a factor of   5.00
   Solvent: benzene                                                         
   Internal dielectric constant:    1.000
   Continuum dielectric constant:   2.283
   Solvent probe molecule radius:   2.600
  
 Non-default print settings:
     11=  2
  
 Temporary integer options set:
     21= -1  73=  2
  
  atom       vdw   vdw2    cov     mass  grid  daf  charge   basis
  P1        2.147  2.074  1.060   30.974    Y    Y      Y    ps_6-31g*
  Pd2       1.450  1.450  1.280  105.903    Y    Y      Y    lacv3p*
  N3        1.831  1.600  0.750   14.003    Y    Y      Y    ps_6-31g*
  C4        1.949  1.900  0.770   12.000    Y    Y      Y    ps_6-31g*
  C5        1.949  1.900  0.770   12.000    Y    Y      Y    ps_6-31g*
  C6        1.949  1.900  0.770   12.000    Y    Y      Y    ps_6-31g*
  C7        1.949  1.900  0.770   12.000    Y    Y      Y    ps_6-31g*
  C8        1.949  1.900  0.770   12.000    Y    Y      Y    ps_6-31g*
  C9        1.949  1.900  0.770   12.000    Y    Y      Y    ps_6-31g*
  F10       1.736  1.682  0.720   18.998    Y    Y      Y    ps_6-31g*
  H11       1.597  1.150  0.320    1.008    Y    Y      Y    ps_6-31g*
  H12       1.597  1.150  0.320    1.008    Y    Y      Y    ps_6-31g*
  H13       1.597  1.150  0.320    1.008    Y    Y      Y    ps_6-31g*
  H14       1.597  1.150  0.320    1.008    Y    Y      Y    ps_6-31g*
  H15       1.597  1.150  0.320    1.008    Y    Y      Y    ps_6-31g*
  C16       1.949  1.900  0.770   12.000    Y    Y      Y    ps_6-31g*
  C17       1.949  1.900  0.770   12.000    Y    Y      Y    ps_6-31g*
  C18       1.949  1.900  0.770   12.000    Y    Y      Y    ps_6-31g*
  C19       1.949  1.900  0.770   12.000    Y    Y      Y    ps_6-31g*
  C20       1.949  1.900  0.770   12.000    Y    Y      Y    ps_6-31g*
  C21       1.949  1.900  0.770   12.000    Y    Y      Y    ps_6-31g*
  H22       1.597  1.150  0.320    1.008    Y    Y      Y    ps_6-31g*
  H23       1.597  1.150  0.320    1.008    Y    Y      Y    ps_6-31g*
  H24       1.597  1.150  0.320    1.008    Y    Y      Y    ps_6-31g*
  H25       1.597  1.150  0.320    1.008    Y    Y      Y    ps_6-31g*
  H26       1.597  1.150  0.320    1.008    Y    Y      Y    ps_6-31g*
  C27       1.949  1.900  0.770   12.000    Y    Y      Y    ps_6-31g*
  C28       1.949  1.900  0.770   12.000    Y    Y      Y    ps_6-31g*
  C29       1.949  1.900  0.770   12.000    Y    Y      Y    ps_6-31g*
  C30       1.949  1.900  0.770   12.000    Y    Y      Y    ps_6-31g*
  C31       1.949  1.900  0.770   12.000    Y    Y      Y    ps_6-31g*
  C32       1.949  1.900  0.770   12.000    Y    Y      Y    ps_6-31g*
  C33       1.949  1.900  0.770   12.000    Y    Y      Y    ps_6-31g*
  C34       1.949  1.900  0.770   12.000    Y    Y      Y    ps_6-31g*
  C35       1.949  1.900  0.770   12.000    Y    Y      Y    ps_6-31g*
  C36       1.949  1.900  0.770   12.000    Y    Y      Y    ps_6-31g*
  C37       1.949  1.900  0.770   12.000    Y    Y      Y    ps_6-31g*
  C38       1.949  1.900  0.770   12.000    Y    Y      Y    ps_6-31g*
  C39       1.949  1.900  0.770   12.000    Y    Y      Y    ps_6-31g*
  C40       1.949  1.900  0.770   12.000    Y    Y      Y    ps_6-31g*
  C41       1.949  1.900  0.770   12.000    Y    Y      Y    ps_6-31g*
  C42       1.949  1.900  0.770   12.000    Y    Y      Y    ps_6-31g*
  C43       1.949  1.900  0.770   12.000    Y    Y      Y    ps_6-31g*
  C44       1.949  1.900  0.770   12.000    Y    Y      Y    ps_6-31g*
  C45       1.949  1.900  0.770   12.000    Y    Y      Y    ps_6-31g*
  C46       1.949  1.900  0.770   12.000    Y    Y      Y    ps_6-31g*
  C47       1.949  1.900  0.770   12.000    Y    Y      Y    ps_6-31g*
  H48       1.597  1.150  0.320    1.008    Y    Y      Y    ps_6-31g*
  H49       1.597  1.150  0.320    1.008    Y    Y      Y    ps_6-31g*
  H50       1.597  1.150  0.320    1.008    Y    Y      Y    ps_6-31g*
  H51       1.597  1.150  0.320    1.008    Y    Y      Y    ps_6-31g*
  H52       1.597  1.150  0.320    1.008    Y    Y      Y    ps_6-31g*
  H53       1.597  1.150  0.320    1.008    Y    Y      Y    ps_6-31g*
  H54       1.597  1.150  0.320    1.008    Y    Y      Y    ps_6-31g*
  H55       1.597  1.150  0.320    1.008    Y    Y      Y    ps_6-31g*
  H56       1.597  1.150  0.320    1.008    Y    Y      Y    ps_6-31g*
  H57       1.597  1.150  0.320    1.008    Y    Y      Y    ps_6-31g*
  H58       1.597  1.150  0.320    1.008    Y    Y      Y    ps_6-31g*
  H59       1.597  1.150  0.320    1.008    Y    Y      Y    ps_6-31g*
  H60       1.597  1.150  0.320    1.008    Y    Y      Y    ps_6-31g*
  H61       1.597  1.150  0.320    1.008    Y    Y      Y    ps_6-31g*
  H62       1.597  1.150  0.320    1.008    Y    Y      Y    ps_6-31g*
  H63       1.597  1.150  0.320    1.008    Y    Y      Y    ps_6-31g*
  H64       1.597  1.150  0.320    1.008    Y    Y      Y    ps_6-31g*
  H65       1.597  1.150  0.320    1.008    Y    Y      Y    ps_6-31g*
  H66       1.597  1.150  0.320    1.008    Y    Y      Y    ps_6-31g*
  H67       1.597  1.150  0.320    1.008    Y    Y      Y    ps_6-31g*
  H68       1.597  1.150  0.320    1.008    Y    Y      Y    ps_6-31g*
  H69       1.597  1.150  0.320    1.008    Y    Y      Y    ps_6-31g*
  H70       1.597  1.150  0.320    1.008    Y    Y      Y    ps_6-31g*
  H71       1.597  1.150  0.320    1.008    Y    Y      Y    ps_6-31g*
  H72       1.597  1.150  0.320    1.008    Y    Y      Y    ps_6-31g*
  H73       1.597  1.150  0.320    1.008    Y    Y      Y    ps_6-31g*
  H74       1.597  1.150  0.320    1.008    Y    Y      Y    ps_6-31g*
  H75       1.597  1.150  0.320    1.008    Y    Y      Y    ps_6-31g*
  H76       1.597  1.150  0.320    1.008    Y    Y      Y    ps_6-31g*
  X         0.529  0.529  0.529    0.000    N    N      N    
 
  atom      formal  2spin      esp    mulk    frag
  P1           0       0        Y    0.000       0
  Pd2          0       0        Y    0.000       0
  N3           0       0        Y    0.000       0
  X                          0.000   0.000       0
  
  end of program pre
   
 Time(pre)  user:       1.072  user+sys:       1.072  wallclock:       1.047
  
  start of program onee
  
  smallest eigenvalue of S:    3.887E-04
  number of canonical orbitals.....          613
  end of program onee
   
 Time(onee)  user:       4.765  user+sys:       4.765  wallclock:       3.917
  
  start of program hfig
  
  initial wavefunction generated automatically from atomic wavefunctions
  Only one possible d-orb occupation 
  Skip d-d repulsion considerations 
 
  Irreducible     Total no   No of occupied orbitals 
  representation  orbitals   Shell_1  Shell_2    ...
  No Symm          613        143
  ------------------------
  Orbital occupation/shell    1.000
 
  end of program hfig
   
 Time(hfig)  user:       1.163  user+sys:       1.163  wallclock:       1.329
  
  start of program probe
  
  end of program probe
   
 Time(probe)  user:       0.637  user+sys:       0.637  wallclock:       0.592
  
  start of program grid
  
   grid     grid set  grid #  grid sym
  ------    --------  ------  --------
  coarse        0        0        1
  medium        2        1        1
  fine          0        0        1
  ultrafine     4        2        1
  charge       -1        3        1
  gradient      4        2        1
  density       0        0        1
  DFT-fine    -11        4        1
  DFT-med.    -10        5        1
  DFT-grad    -12        6        1
  DFT-der2     -8        7        1
  DFT-cphf     -9        8        1
  LMP2-enrg     4        2        1
  LMP2-grad     2        1        1
  DFT-cphf2   -15        9        1
  PBF-dens      0        0        1
  plotting      0        0        1
  Rel-grad    -17        0        1
  
  number of gridpoints: 
     atom           P1         Pd2          N3          C4          C5          C6          C7
  grid # 1         610         363         106          85          93          95          95
  grid # 2         427         329         336         329         326         325         350
  grid # 3           6         249          25          31          32          30          28
  grid # 4        8714        8714        8714        8714        8714        8714        8714
  grid # 5        1192        1192        1192        1192        1192        1192        1192
  grid # 6        9132        9132        5922        5922        5922        5922        5922
  grid # 7       23034       32968       13958       13950       13950       13950       13950
  grid # 8         722        1150         756         748         748         748         748
  grid # 9         366        2198         406         394         394         394         394
   
  number of gridpoints: 
     atom           C8          C9         F10         H11         H12         H13         H14
  grid # 1          94          91         577         115         113         109         110
  grid # 2         325         324         558         463         449         445         453
  grid # 3          19          19         246         378         254         243         244
  grid # 4        8714        8714        8714        8714        8714        8714        8714
  grid # 5        1192        1192        1192        1192        1192        1192        1192
  grid # 6        5922        5922        5922        5922        5922        5922        5922
  grid # 7       13950       13950       23190       15206       15206       15206       15206
  grid # 8         748         748         770         786         786         786         786
  grid # 9         394         394         420         420         420         420         420
   
  number of gridpoints: 
     atom          H15         C16         C17         C18         C19         C20         C21
  grid # 1         111          96          96          95          93          96          96
  grid # 2         426         324         323         322         348         326         325
  grid # 3         208          40          33          21          21          36          42
  grid # 4        8714        8714        8714        8714        8714        8714        8714
  grid # 5        1192        1192        1192        1192        1192        1192        1192
  grid # 6        5922        5922        5922        5922        5922        5922        5922
  grid # 7       15206       13950       13950       13950       13950       13950       13950
  grid # 8         786         748         748         748         748         748         748
  grid # 9         420         394         394         394         394         394         394
   
  number of gridpoints: 
     atom          H22         H23         H24         H25         H26         C27         C28
  grid # 1         118         115         102         116         118          93          88
  grid # 2         466         456         425         458         467         381         362
  grid # 3         423         297          56         348         418           9           6
  grid # 4        8714        8714        8714        8714        8714        8714        8714
  grid # 5        1192        1192        1192        1192        1192        1192        1192
  grid # 6        5922        5922        5922        5922        5922        5922        5922
  grid # 7       15206       15206       15206       15206       15206       13950       13950
  grid # 8         786         786         786         786         786         748         748
  grid # 9         420         420         420         420         420         394         394
   
  number of gridpoints: 
     atom          C29         C30         C31         C32         C33         C34         C35
  grid # 1          89          96          97          95          95          95          95
  grid # 2         364         354         356         325         321         322         325
  grid # 3           6           7          14          26          29          27          16
  grid # 4        8714        8714        8714        8714        8714        8714        8714
  grid # 5        1192        1192        1192        1192        1192        1192        1192
  grid # 6        5922        5922        5922        5922        5922        5922        5922
  grid # 7       13950       13950       13950       13950       13950       13950       13950
  grid # 8         748         748         748         748         748         748         748
  grid # 9         394         394         394         394         394         394         394
   
  number of gridpoints: 
     atom          C36         C37         C38         C39         C40         C41         C42
  grid # 1          98          95          96          95          93          79          79
  grid # 2         359         324         324         324         324         238         240
  grid # 3          10          22          39          32          12           6           6
  grid # 4        8714        8714        8714        8714        8714        8714        8714
  grid # 5        1192        1192        1192        1192        1192        1192        1192
  grid # 6        5922        5922        5922        5922        5922        5922        5922
  grid # 7       13950       13950       13950       13950       13950       13950       13950
  grid # 8         748         748         748         748         748         748         748
  grid # 9         394         394         394         394         394         394         394
   
  number of gridpoints: 
     atom          C43         C44         C45         C46         C47         H48         H49
  grid # 1          81          80          81          80          81         110         113
  grid # 2         235         240         233         239         234         441         452
  grid # 3           6           6           6           6           6         209         286
  grid # 4        8714        8714        8714        8714        8714        8714        8714
  grid # 5        1192        1192        1192        1192        1192        1192        1192
  grid # 6        5922        5922        5922        5922        5922        5922        5922
  grid # 7       13950       13950       13950       13950       13950       15206       15206
  grid # 8         748         748         748         748         748         786         786
  grid # 9         394         394         394         394         394         420         420
   
  number of gridpoints: 
     atom          H50         H51         H52         H53         H54         H55         H56
  grid # 1         115         109         116         118         118         102          99
  grid # 2         460         441         457         466         465         422         429
  grid # 3         345         201         317         423         416         100          89
  grid # 4        8714        8714        8714        8714        8714        8714        8714
  grid # 5        1192        1192        1192        1192        1192        1192        1192
  grid # 6        5922        5922        5922        5922        5922        5922        5922
  grid # 7       15206       15206       15206       15206       15206       15206       15206
  grid # 8         786         786         786         786         786         786         786
  grid # 9         420         420         420         420         420         420         420
   
  number of gridpoints: 
     atom          H57         H58         H59         H60         H61         H62         H63
  grid # 1         108         102         102         101         108         103         109
  grid # 2         447         430         433         430         446         425         446
  grid # 3         267         160         115         142         272         157         273
  grid # 4        8714        8714        8714        8714        8714        8714        8714
  grid # 5        1192        1192        1192        1192        1192        1192        1192
  grid # 6        5922        5922        5922        5922        5922        5922        5922
  grid # 7       15206       15206       15206       15206       15206       15206       15206
  grid # 8         786         786         786         786         786         786         786
  grid # 9         420         420         420         420         420         420         420
   
  number of gridpoints: 
     atom          H64         H65         H66         H67         H68         H69         H70
  grid # 1         104         105         102         109         100         109         101
  grid # 2         434         440         428         446         426         446         428
  grid # 3         187         195          97         269         158         270         159
  grid # 4        8714        8714        8714        8714        8714        8714        8714
  grid # 5        1192        1192        1192        1192        1192        1192        1192
  grid # 6        5922        5922        5922        5922        5922        5922        5922
  grid # 7       15206       15206       15206       15206       15206       15206       15206
  grid # 8         786         786         786         786         786         786         786
  grid # 9         420         420         420         420         420         420         420
   
  number of gridpoints: 
     atom          H71         H72         H73         H74         H75         H76           X
  grid # 1         102         104         107         108         100         105           0
  grid # 2         433         431         444         447         426         436           0
  grid # 3         129         154         271         284          89         172           0
  grid # 4        8714        8714        8714        8714        8714        8714           0
  grid # 5        1192        1192        1192        1192        1192        1192           0
  grid # 6        5922        5922        5922        5922        5922        5922           0
  grid # 7       15206       15206       15206       15206       15206       15206           0
  grid # 8         786         786         786         786         786         786           0
  grid # 9         420         420         420         420         420         420           0
   
  number of gridpoints: 
     atom        total
  grid # 1        8878
  grid # 2       29284
  grid # 3       10250
  grid # 4      662264
  grid # 5       90592
  grid # 6      456492
  grid # 7     1146534
  grid # 8       58736
  grid # 9       32772
   
  end of program grid
   
 Time(grid)  user:     323.011  user+sys:     323.011  wallclock:     204.925
  
  start of program rwr
  
  end of program rwr
   
 Time(rwr)  user:      20.463  user+sys:      20.463  wallclock:      36.748
  
  start of program scf
  
 number of electrons..........        286
 number of alpha electrons....        143
 number of beta electrons.....        143
 number of orbitals, total....        613
 number of doubly-occ'd orbs..        143
 number of open shell orbs....          0
 number of occupied orbitals..        143
 number of virtual orbitals...        470
 number of hamiltonians.......          1
 number of shells.............          1
 SCF type: DFT=Becke_3_Parameter/HF+Slater+Becke88+PW91+PW-GGAIIC (B3PW91-D3)
 Energy computed using pseudospectral method.
 Convergence Criterion:
    Energy (econv):       1.00E-05
    RMS density (dconv):  5.00E-06
  
       i  u  d  i  g                   
       t  p  i  c  r                                 RMS    maximum
       e  d  i  u  i                       energy  density   DIIS  
       r  t  s  t  d       total energy    change  change    error 
  
etot    1  N  N  5  M   -1898.79043746621           2.0E-03  1.6E-01
etot    2  Y  Y  6  M   -1901.93518140533  3.1E+00  3.0E-03  1.3E-01
etot    3  Y  Y  6  M   -1902.67053827233  7.4E-01  1.5E-03  6.6E-02
etot    4  N  Y  2  U   -1903.04262242564  3.7E-01  8.4E-04  4.9E-02
etot    5  Y  Y  6  M   -1903.15174387713  1.1E-01  4.4E-04  2.9E-02
etot    6  N  Y  2  U   -1903.16212854355  1.0E-02  5.2E-04  1.6E-02
etot    7  Y  Y  6  M   -1903.16478299831  2.7E-03  1.2E-04  3.9E-03
etot    8  Y  Y  6  M   -1903.16919833093  4.4E-03  2.8E-05  1.1E-03
etot    9  N  Y  2  U   -1903.17065528043  1.5E-03  8.3E-06  2.7E-04
etot   10  N  Y  2  U   -1903.17066618298  1.1E-05  4.4E-06  9.8E-05
etot   11  N  N  2  U   -1903.17066917788  3.0E-06  0.0E+00  0.0E+00
 
  Computing the dispersion energy correction and its gradients...
  
  
 Energy components, in hartrees:
   (A)  Nuclear repulsion............    4970.60647506509
   (E)  Total one-electron terms.....  -12546.30509287509
   (F)    Electron-nuclear...........  -14359.04780959189
   (H)    Kinetic....................    1812.74271671679
   (I)  Total two-electron terms.....    5672.52794863212
   (J)    Coulomb....................    5919.34624035507
   (K)    Exchange+Correlation.......    -246.81829172295
   (L)  Electronic energy............   -6873.77714424297  (E+I)
   (N0) D3 correction................      -0.14304927846
   (N)  Total energy.................   -1903.31371845634  (A+L+N0)
   (O)  Gas phase energy.............   -1903.31371845634
  
 SCFE: SCF energy: DFT(b3pw91-d3)     -1903.31371845634 hartrees   iterations:  11
  
 
 HOMO energy:    -0.15775
 LUMO energy:    -0.02778
 
  Orbital energies (hartrees): 
   -77.05229   -24.67432   -14.34759   -10.23637   -10.21510   -10.21473
   -10.19201   -10.18931   -10.18793   -10.18409   -10.17891   -10.17824
   -10.17816   -10.17807   -10.17657   -10.17515   -10.17420   -10.17324
   -10.16951   -10.16755   -10.16711   -10.16466   -10.16365   -10.16245
   -10.16211   -10.16128   -10.16065   -10.16028   -10.15982   -10.15799
   -10.15338   -10.15158   -10.14974   -10.14924   -10.14887   -10.14715
    -6.55264    -4.71082    -4.71028    -4.70695    -3.26382    -1.99907
    -1.98550    -1.97681    -1.20542    -0.95778    -0.87267    -0.85709
    -0.84820    -0.83746    -0.82259    -0.80559    -0.77910    -0.76205
    -0.75897    -0.75485    -0.75253    -0.74332    -0.72305    -0.71151
    -0.69386    -0.68744    -0.68109    -0.67993    -0.67758    -0.64559
    -0.63217    -0.62362    -0.61841    -0.60282    -0.59870    -0.58483
    -0.58335    -0.56763    -0.54735    -0.53514    -0.53141    -0.52801
    -0.52344    -0.50505    -0.48910    -0.48680    -0.46961    -0.46636
    -0.46172    -0.45923    -0.45538    -0.45241    -0.44875    -0.44603
    -0.44176    -0.43925    -0.43385    -0.43354    -0.43105    -0.42694
    -0.42422    -0.42131    -0.41787    -0.41393    -0.40693    -0.40161
    -0.39851    -0.39790    -0.39559    -0.38923    -0.38274    -0.38202
    -0.38013    -0.37545    -0.37497    -0.36924    -0.36613    -0.36470
    -0.35941    -0.35719    -0.35500    -0.34569    -0.34149    -0.34012
    -0.33793    -0.33538    -0.33146    -0.32595    -0.32416    -0.32218
    -0.31881    -0.30562    -0.29480    -0.29154    -0.27392    -0.25467
    -0.25374    -0.25081    -0.25026    -0.24311    -0.23510    -0.21509
    -0.20353    -0.19721    -0.18968    -0.18188    -0.15775    -0.02778
    -0.01183    -0.01103    -0.00439    -0.00263     0.00579     0.01205
     0.03352     0.03883     0.05144
 
  end of program scf
   
 Time(scf)  user:     486.486  user+sys:     486.486  wallclock:     345.696
  
  start of program der1a
  
  end of program der1a
   
 Time(der1a)  user:      13.984  user+sys:      13.984  wallclock:       8.959
  
  start of program rwr
  
  end of program rwr
   
 Time(rwr)  user:      21.857  user+sys:      21.857  wallclock:      38.965
  
  start of program der1b
  
   
  forces (hartrees/bohr) : total     
   
 atom  label           x              y              z
 ---- --------   -------------  -------------  -------------
    1 P1          1.824011E-04   3.615460E-04  -4.426388E-04
    2 Pd2        -1.494685E-04  -6.884220E-04   8.050880E-04
    3 N3         -1.818802E-04  -3.112758E-04  -4.784704E-04
    4 C4         -9.488208E-05   1.877313E-04  -2.533120E-04
    5 C5          1.751024E-04  -1.206543E-03  -9.244085E-05
    6 C6          4.129092E-05   1.570040E-04   1.358619E-05
    7 C7          1.955175E-04  -8.360197E-05  -3.244417E-05
    8 C8         -5.484757E-04   5.787506E-04   6.935812E-04
    9 C9         -3.822356E-04   3.774910E-05   2.053356E-04
   10 F10         3.592060E-04  -1.908539E-04   2.339741E-04
   11 H11        -1.883192E-05  -1.504732E-04  -8.549083E-05
   12 H12        -1.450552E-04  -8.317066E-05  -2.144961E-04
   13 H13         1.090124E-05  -1.829000E-05  -1.390642E-04
   14 H14         3.969389E-05   7.773444E-05   4.692613E-05
   15 H15        -2.203001E-05   7.068022E-05   2.118221E-05
   16 C16         1.145094E-05   1.385796E-04   1.389382E-04
   17 C17        -2.759486E-04  -1.620812E-04  -3.211002E-05
   18 C18        -1.701048E-04   8.142489E-05   1.691276E-04
   19 C19        -1.954280E-04   3.296670E-05   1.427318E-05
   20 C20        -3.927810E-05   8.850041E-05  -3.409658E-05
   21 C21        -3.545491E-05  -6.298491E-05  -1.253690E-04
   22 H22        -1.105777E-04   3.888790E-05  -1.597235E-05
   23 H23        -1.373986E-04   1.131332E-04   5.647060E-05
   24 H24        -3.817314E-04   2.320502E-04  -2.465057E-04
   25 H25        -4.294561E-05  -2.357336E-05  -1.509673E-04
   26 H26        -7.346584E-05   3.842241E-05  -1.277815E-04
   27 C27         6.480057E-05   4.499518E-05   1.237632E-04
   28 C28         7.417465E-05   1.018946E-06  -7.532832E-05
   29 C29         5.928630E-05  -9.308077E-05   1.180561E-04
   30 C30         4.215849E-05  -9.332607E-05   6.989783E-05
   31 C31         8.403360E-05   1.154326E-04  -1.436055E-05
   32 C32        -1.258746E-05   1.012070E-04  -1.013299E-04
   33 C33         1.980974E-04  -3.668657E-04  -1.584949E-03
   34 C34         3.846908E-05  -1.377045E-04   1.393354E-04
   35 C35        -7.661029E-05   1.911753E-07   3.710621E-05
   36 C36         7.714706E-05   8.818048E-05   1.570541E-05
   37 C37        -1.393933E-04  -8.810209E-06   8.680520E-05
   38 C38        -1.060325E-03  -2.381209E-05   6.999837E-04
   39 C39        -6.729238E-05   4.081266E-05   8.216024E-08
   40 C40        -1.083099E-05  -5.578545E-05   6.916267E-05
   41 C41        -7.275998E-05  -7.669047E-05   8.173838E-05
   42 C42         4.320173E-05  -6.771845E-05   9.591282E-05
   43 C43         1.577249E-06   3.281039E-06   2.777847E-05
   44 C44        -2.244293E-05   1.041751E-04  -4.734686E-05
   45 C45         7.052976E-05  -2.926846E-05  -4.850874E-05
   46 C46         1.734174E-04  -5.803650E-05  -6.456949E-05
   47 C47        -6.908291E-05  -4.495969E-05   3.216614E-05
   48 H48        -3.202410E-05  -3.875709E-05  -5.246703E-06
   49 H49        -2.026905E-05  -6.232575E-05   6.588907E-05
   50 H50         3.903801E-05  -1.153242E-05   4.819396E-05
   51 H51         1.744542E-05   2.640769E-05   1.457416E-05
   52 H52         3.387884E-05   2.684179E-05   5.734759E-05
   53 H53         4.264009E-05   9.100486E-05  -6.605913E-06
   54 H54        -2.640629E-05   1.041062E-04   7.677118E-06
   55 H55         1.931851E-05   3.809579E-05  -1.377487E-05
   56 H56        -1.633931E-06  -4.212710E-05   5.773406E-05
   57 H57        -1.060810E-05  -6.342541E-05   6.424404E-05
   58 H58         1.832050E-05  -8.027143E-05   1.972019E-05
   59 H59        -2.005434E-05  -6.123278E-05   5.787668E-05
   60 H60        -5.959042E-06   1.630977E-05   7.840969E-05
   61 H61        -3.132276E-05  -4.613256E-05   1.019422E-04
   62 H62        -8.011346E-07   3.790965E-05   4.545103E-05
   63 H63        -8.331298E-06   2.327235E-05   8.638420E-05
   64 H64        -4.707038E-05   7.746220E-05   5.746516E-05
   65 H65         7.075771E-05   1.836874E-05  -1.149071E-04
   66 H66         5.345708E-05  -6.724588E-05  -5.832489E-05
   67 H67         4.530473E-05  -7.050157E-05  -9.509048E-05
   68 H68         2.042893E-05   2.426730E-05  -5.149424E-05
   69 H69         4.187915E-05  -4.211263E-07  -6.861203E-05
   70 H70         1.924880E-05  -3.302795E-05   2.225840E-05
   71 H71         5.299246E-05  -8.203793E-05   4.301641E-05
   72 H72         2.135099E-05  -5.778411E-05  -1.957871E-05
   73 H73         7.717409E-05  -7.535340E-05  -3.028555E-05
   74 H74         2.575841E-04  -1.239175E-04  -1.058122E-04
   75 H75        -1.732009E-04  -7.023217E-05  -8.541615E-05
   76 H76         9.137984E-05  -2.626825E-04   7.700037E-05
   77 X           0.000000E+00   0.000000E+00   0.000000E+00
 -------------   -------------  -------------  -------------
     total       -2.049543E-03  -2.067835E-03  -1.615401E-04
   
  end of program der1b
   
 Time(der1b)  user:     168.298  user+sys:     168.298  wallclock:     100.646
  
  start of program geopt
  
 ----------------------------------------------------------------------------
  Geometry optimization step  1
  Total energy:     -1903.31371845634 hartrees
 ----------------------------------------------------------------------------
  
  gradient maximum:        7.6494E-03 .  (  2.2500E-03 )
  gradient rms:            9.8704E-04 *  (  1.5000E-03 )
  displacement maximum:    1.6329E-01 .  (  9.0000E-03 )
  displacement rms:        1.7421E-02 .  (  6.0000E-03 )
  
  predicted energy change:  -8.6288E-04
  step size:     0.28413
  trust radius:  0.30000
  
  molecular structure not yet converged...
  
  center of mass moved by:
     x:    -1.5504E-02     y:     3.8352E-02     z:     4.9150E-04
  
  new geometry: 
                                   angstroms
  atom               x                 y                 z
  P1            0.3488916481     -0.3623146897      0.3218748033 
  Pd2           0.6713369279      0.1933028901      2.5152825095 
  N3            2.2237656576      0.7422294331      6.0481304892 
  C4           -1.0625292484      2.1500673032      3.8709806555 
  C5           -0.1826890115      3.0393683739      4.4446381294 
  C6            0.9328885384      2.5568309605      5.1456928283 
  C7            1.1493359855      1.1859339201      5.2895476975 
  C8            0.2282854002      0.2723603244      4.7071914104 
  C9           -0.8957120931      0.7544613806      3.9786118775 
  F10          -2.1351502810      2.6079271135      3.1879111018 
  H11          -0.3538116476      4.1058124419      4.3355103278 
  H12           1.6363644002      3.2628153820      5.5808175157 
  H13           0.2376671470     -0.7650046729      5.0284902577 
  H14          -1.7382642428      0.1071686909      3.7526532619 
  H15           2.6569762630      1.4478413923      6.6250893012 
  C16           4.1671376920     -2.9798514760      6.3153840251 
  C17           3.3107479166     -2.7221004526      5.2466457467 
  C18           2.6471449876     -1.5051791912      5.1283255344 
  C19           2.8221267098     -0.5114478528      6.1054355999 
  C20           3.6908131805     -0.7727607315      7.1798079530 
  C21           4.3575243170     -1.9868881322      7.2765877841 
  H22           4.6804013913     -3.9339908814      6.3971277928 
  H23           3.1627314381     -3.4720840028      4.4727428021 
  H24           2.0359733518     -1.3114370666      4.2509103063 
  H25           3.8371372533     -0.0110783166      7.9446223077 
  H26           5.0252614305     -2.1598208803      8.1174263469 
  C27           1.8488360376     -0.2292386305     -0.7545224416 
  C28          -0.8829468472      0.7895469272     -0.5708596917 
  C29          -0.2204344590     -2.1879174193      0.2083501520 
  C30           3.2607212566      0.8571960071      1.1407852499 
  C31           3.9626854540      0.0257690522      2.0432178103 
  C32           4.3963927504      0.5654272774      3.2567668136 
  C33           4.1442685661      1.8926454586      3.5896753705 
  C34           3.4577570410      2.7118067326      2.6986770396 
  C35           3.0350114261      2.1984480140      1.4773055705 
  C36           3.0253245352      0.3746904338     -0.2580836921 
  C37           4.1266672411      0.5237277918     -1.1154527212 
  C38           4.1045425338      0.0673063688     -2.4267701252 
  C39           2.9584160750     -0.5566956436     -2.9109639287 
  C40           1.8515995697     -0.6901874420     -2.0818667924 
  C41          -2.2658724619      0.6092083975      0.0694841185 
  C42          -0.3907182053      2.2128850807     -0.2627202231 
  C43          -0.9800097564      0.6442771119     -2.0944254279 
  C44           1.0526098321     -3.0350656200      0.3599411218 
  C45          -0.9900361382     -2.6320557937     -1.0415476165 
  C46          -1.1117767600     -2.4602025553      1.4358564479 
  C47           4.2804788343     -1.4006450144      1.6799993883 
  H48           4.9325796598     -0.0750333815      3.9520852900 
  H49           4.4924569530      2.2868120395      4.5410076623 
  H50           3.2517820015      3.7491959430      2.9494569836 
  H51           2.5257241650      2.8419146931      0.7674685955 
  H52           5.0215078330      1.0006634576     -0.7216905161 
  H53           4.9774540785      0.1929228630     -3.0627614678 
  H54           2.9202711542     -0.9313439798     -3.9311696744 
  H55           0.9612265595     -1.1605815990     -2.4817733980 
  H56          -2.2160416675      0.7099328377      1.1592593471 
  H57          -2.9436393247      1.3873087078     -0.3074986561 
  H58          -2.7148414225     -0.3587830252     -0.1771500317 
  H59          -0.3091464858      2.3857650290      0.8160744273 
  H60           0.5865598743      2.4002339798     -0.7219302199 
  H61          -1.0991975963      2.9423769238     -0.6783978490 
  H62          -1.3155621338     -0.3451007024     -2.4134348769 
  H63          -1.7089780572      1.3737621597     -2.4743879838 
  H64          -0.0239850428      0.8581754242     -2.5824446104 
  H65           1.7302908053     -2.9268603272     -0.4932558134 
  H66           1.5974354541     -2.7536725098      1.2696288206 
  H67           0.7806817832     -4.0957120777      0.4469900203 
  H68          -0.4242027065     -2.5042561438     -1.9682478908 
  H69          -1.2209570563     -3.7030772951     -0.9552495299 
  H70          -1.9435059116     -2.1054600815     -1.1439649995 
  H71          -0.5790511641     -2.2230024272      2.3637039803 
  H72          -2.0339108085     -1.8717623083      1.4233564363 
  H73          -1.3919824272     -3.5229689365      1.4509364361 
  H74           4.9697593011     -1.4501457301      0.8276098740 
  H75           3.3734765531     -1.9385070493      1.3827287668 
  H76           4.7320823876     -1.9303597743      2.5232005431 
  X            -0.2911324780      0.4390321351      4.3581390996 
   
  Z-matrix: (angstroms and degrees) 
 P1             0.3488916481            -0.3623146897             0.3218748033 
 Pd2            0.6713369279             0.1933028901             2.5152825095 
 N3             2.2237656576             0.7422294331             6.0481304892 
 C4            -1.0625292484             2.1500673032             3.8709806555 
 C5            -0.1826890115             3.0393683739             4.4446381294 
 C6             0.9328885384             2.5568309605             5.1456928283 
 C7             1.1493359855             1.1859339201             5.2895476975 
 C8             0.2282854002             0.2723603244             4.7071914104 
 C9            -0.8957120931             0.7544613806             3.9786118775 
 F10           -2.1351502810             2.6079271135             3.1879111018 
 H11           -0.3538116476             4.1058124419             4.3355103278 
 H12            1.6363644002             3.2628153820             5.5808175157 
 H13            0.2376671470            -0.7650046729             5.0284902577 
 H14           -1.7382642428             0.1071686909             3.7526532619 
 H15            2.6569762630             1.4478413923             6.6250893012 
 C16            4.1671376920            -2.9798514760             6.3153840251 
 C17            3.3107479166            -2.7221004526             5.2466457467 
 C18            2.6471449876            -1.5051791912             5.1283255344 
 C19            2.8221267098            -0.5114478528             6.1054355999 
 C20            3.6908131805            -0.7727607315             7.1798079530 
 C21            4.3575243170            -1.9868881322             7.2765877841 
 H22            4.6804013913            -3.9339908814             6.3971277928 
 H23            3.1627314381            -3.4720840028             4.4727428021 
 H24            2.0359733518            -1.3114370666             4.2509103063 
 H25            3.8371372533            -0.0110783166             7.9446223077 
 H26            5.0252614305            -2.1598208803             8.1174263469 
 C27            1.8488360376            -0.2292386305            -0.7545224416 
 C28           -0.8829468472             0.7895469272            -0.5708596917 
 C29           -0.2204344590            -2.1879174193             0.2083501520 
 C30            3.2607212566             0.8571960071             1.1407852499 
 C31            3.9626854540             0.0257690522             2.0432178103 
 C32            4.3963927504             0.5654272774             3.2567668136 
 C33            4.1442685661             1.8926454586             3.5896753705 
 C34            3.4577570410             2.7118067326             2.6986770396 
 C35            3.0350114261             2.1984480140             1.4773055705 
 C36            3.0253245352             0.3746904338            -0.2580836921 
 C37            4.1266672411             0.5237277918            -1.1154527212 
 C38            4.1045425338             0.0673063688            -2.4267701252 
 C39            2.9584160750            -0.5566956436            -2.9109639287 
 C40            1.8515995697            -0.6901874420            -2.0818667924 
 C41           -2.2658724619             0.6092083975             0.0694841185 
 C42           -0.3907182053             2.2128850807            -0.2627202231 
 C43           -0.9800097564             0.6442771119            -2.0944254279 
 C44            1.0526098321            -3.0350656200             0.3599411218 
 C45           -0.9900361382            -2.6320557937            -1.0415476165 
 C46           -1.1117767600            -2.4602025553             1.4358564479 
 C47            4.2804788343            -1.4006450144             1.6799993883 
 H48            4.9325796598            -0.0750333815             3.9520852900 
 H49            4.4924569530             2.2868120395             4.5410076623 
 H50            3.2517820015             3.7491959430             2.9494569836 
 H51            2.5257241650             2.8419146931             0.7674685955 
 H52            5.0215078330             1.0006634576            -0.7216905161 
 H53            4.9774540785             0.1929228630            -3.0627614678 
 H54            2.9202711542            -0.9313439798            -3.9311696744 
 H55            0.9612265595            -1.1605815990            -2.4817733980 
 H56           -2.2160416675             0.7099328377             1.1592593471 
 H57           -2.9436393247             1.3873087078            -0.3074986561 
 H58           -2.7148414225            -0.3587830252            -0.1771500317 
 H59           -0.3091464858             2.3857650290             0.8160744273 
 H60            0.5865598743             2.4002339798            -0.7219302199 
 H61           -1.0991975963             2.9423769238            -0.6783978490 
 H62           -1.3155621338            -0.3451007024            -2.4134348769 
 H63           -1.7089780572             1.3737621597            -2.4743879838 
 H64           -0.0239850428             0.8581754242            -2.5824446104 
 H65            1.7302908053            -2.9268603272            -0.4932558134 
 H66            1.5974354541            -2.7536725098             1.2696288206 
 H67            0.7806817832            -4.0957120777             0.4469900203 
 H68           -0.4242027065            -2.5042561438            -1.9682478908 
 H69           -1.2209570563            -3.7030772951            -0.9552495299 
 H70           -1.9435059116            -2.1054600815            -1.1439649995 
 H71           -0.5790511641            -2.2230024272             2.3637039803 
 H72           -2.0339108085            -1.8717623083             1.4233564363 
 H73           -1.3919824272            -3.5229689365             1.4509364361 
 H74            4.9697593011            -1.4501457301             0.8276098740 
 H75            3.3734765531            -1.9385070493             1.3827287668 
 H76            4.7320823876            -1.9303597743             2.5232005431 
 X             -0.2911324780#            0.4390321351#            4.3581390996#
  
 
  bond lengths (angstroms):
 
 P1      -Pd2     :   2.285546      P1      -C27     :   1.850993
 P1      -C28     :   1.908189      P1      -C29     :   1.915684
 Pd2     -C8      :   2.237635      Pd2     -C9      :   2.216275
 Pd2     -X       :   2.093526      N3      -C7      :   1.388064
 N3      -H15     :   1.009178      N3      -C19     :   1.390333
 C4      -C5      :   1.376248      C4      -C9      :   1.409655
 C4      -F10     :   1.351568      C5      -C6      :   1.403151
 C5      -H11     :   1.085585      C6      -C7      :   1.395314
 C6      -H12     :   1.087486      C7      -C8      :   1.422002
 C8      -C9      :   1.423594      C8      -H13     :   1.086024
 C8      -X       :   0.647620      C9      -H14     :   1.086250
 C9      -X       :   0.780418      C16     -C17     :   1.393571
 C16     -C21     :   1.395040      C16     -H22     :   1.086510
[...]
    H23      Z     0.25391  -0.04841  -0.00672  -0.00115  -0.00020   0.00056
    H24      X     0.03529  -0.07257  -0.01141  -0.00040  -0.00019  -0.00051
    H24      Y    -0.01180   0.02012   0.00318   0.00016   0.00009   0.00001
    H24      Z     0.04916  -0.10056  -0.01570  -0.00065  -0.00027  -0.00079
    H25      X    -0.01023   0.00065   0.00016  -0.00012   0.00000   0.00029
    H25      Y    -0.07491   0.00534   0.00135  -0.00078   0.00004  -0.00259
    H25      Z    -0.07360   0.00518   0.00130  -0.00080   0.00003  -0.00018
    H26      X    -0.24207   0.02596   0.00384  -0.00076   0.00020  -0.00034
    H26      Y     0.05668  -0.00609  -0.00095   0.00018  -0.00005  -0.00003
    H26      Z    -0.31297   0.03370   0.00496  -0.00097   0.00026  -0.00032
    C27      X     0.00001   0.00001  -0.00001   0.00002   0.00036   0.00000
    C27      Y     0.00001   0.00000   0.00001   0.00003  -0.00081   0.00000
    C27      Z     0.00001  -0.00001   0.00001   0.00013  -0.00245   0.00001
    C28      X    -0.00000   0.00001   0.00001   0.00003  -0.00004   0.00000
    C28      Y     0.00001   0.00000  -0.00000   0.00003  -0.00001   0.00000
    C28      Z     0.00001   0.00001  -0.00000  -0.00005   0.00010   0.00001
    C29      X     0.00000   0.00001  -0.00000   0.00001  -0.00022   0.00000
    C29      Y    -0.00000   0.00000   0.00000  -0.00000  -0.00001  -0.00000
    C29      Z     0.00001   0.00001  -0.00000   0.00000   0.00010   0.00001
    C30      X    -0.00000  -0.00003   0.00001   0.00018   0.00002   0.00001
    C30      Y     0.00002   0.00006  -0.00035  -0.00258   0.00001   0.00000
    C30      Z     0.00000   0.00001  -0.00015  -0.00107  -0.00005   0.00000
    C31      X     0.00000  -0.00003   0.00002   0.00010  -0.00000   0.00000
    C31      Y    -0.00002  -0.00001  -0.00008  -0.00069   0.00003  -0.00000
    C31      Z    -0.00002   0.00001   0.00001  -0.00019   0.00002  -0.00001
    C32      X     0.00008  -0.00001   0.00093   0.00752  -0.00004  -0.00001
    C32      Y    -0.00011  -0.00001  -0.00118  -0.00984   0.00005   0.00001
    C32      Z     0.00015  -0.00002   0.00136   0.01092  -0.00006  -0.00001
    C33      X     0.00002   0.00016   0.00055   0.00678  -0.00002  -0.00004
    C33      Y     0.00004   0.00027   0.00068   0.00838  -0.00003  -0.00005
    C33      Z     0.00009   0.00052   0.00171   0.02051  -0.00007  -0.00007
    C34      X    -0.00002  -0.00002  -0.00066  -0.00702   0.00002  -0.00001
    C34      Y     0.00006  -0.00003   0.00367   0.03764  -0.00011   0.00001
    C34      Z    -0.00000  -0.00007   0.00086   0.00768  -0.00002  -0.00001
    C35      X     0.00006   0.00072  -0.00423  -0.03008   0.00009  -0.00000
    C35      Y    -0.00009  -0.00092   0.00530   0.03722  -0.00009   0.00001
    C35      Z     0.00011   0.00120  -0.00706  -0.05043   0.00015   0.00000
    C36      X    -0.00001   0.00000  -0.00001  -0.00004  -0.00057  -0.00000
    C36      Y    -0.00000  -0.00001   0.00003   0.00019  -0.00033  -0.00000
    C36      Z     0.00000  -0.00000  -0.00002  -0.00007  -0.00023   0.00000
    C37      X     0.00017  -0.00008   0.00008   0.00084  -0.00128   0.00000
    C37      Y     0.00010  -0.00005   0.00005   0.00052  -0.00082   0.00000
    C37      Z     0.00009  -0.00004   0.00007   0.00057  -0.00076   0.00001
    C38      X     0.00029  -0.00003   0.00008   0.00067  -0.00259   0.00000
    C38      Y     0.00004  -0.00000   0.00001   0.00006  -0.00077   0.00000
    C38      Z    -0.00021   0.00003  -0.00006  -0.00054   0.00081   0.00000
    C39      X    -0.00002   0.00000  -0.00000  -0.00005  -0.00183   0.00000
    C39      Y    -0.00009  -0.00000  -0.00001  -0.00009   0.00460  -0.00000
    C39      Z    -0.00020  -0.00001  -0.00001  -0.00019   0.01377   0.00000
    C40      X     0.00006  -0.00002   0.00000   0.00027   0.06651  -0.00000
    C40      Y     0.00004  -0.00001  -0.00000   0.00014   0.03705  -0.00000
    C40      Z     0.00004  -0.00001  -0.00000   0.00011   0.02859   0.00000
    C41      X    -0.00003  -0.00007  -0.00001  -0.00001   0.00003  -0.00000
    C41      Y    -0.00002  -0.00003  -0.00003   0.00007   0.00002   0.00000
    C41      Z    -0.00005  -0.00013  -0.00003   0.00003   0.00010  -0.00000
    C42      X    -0.00000  -0.00005   0.00026   0.00159   0.00003  -0.00000
    C42      Y     0.00001   0.00001  -0.00002  -0.00008  -0.00003   0.00000
    C42      Z    -0.00005  -0.00002  -0.00022  -0.00061   0.00010  -0.00000
    C43      X    -0.00000  -0.00000   0.00000   0.00005  -0.00117   0.00000
    C43      Y    -0.00002   0.00001  -0.00001   0.00009   0.00002  -0.00000
    C43      Z    -0.00002  -0.00000   0.00000  -0.00000   0.00051  -0.00000
    C44      X     0.00000  -0.00001  -0.00001  -0.00005  -0.00018   0.00000
    C44      Y    -0.00002  -0.00001  -0.00000  -0.00004  -0.00004  -0.00000
    C44      Z    -0.00001   0.00000   0.00002  -0.00000   0.00035   0.00000
    C45      X    -0.00000  -0.00001  -0.00001  -0.00005  -0.00275   0.00000
    C45      Y    -0.00002  -0.00001  -0.00000   0.00001   0.00001   0.00000
    C45      Z    -0.00000   0.00001   0.00001   0.00002   0.00332   0.00000
    C46      X    -0.00002  -0.00020  -0.00005  -0.00000   0.00016  -0.00000
    C46      Y    -0.00004   0.00006   0.00003  -0.00000   0.00003  -0.00000
    C46      Z    -0.00002  -0.00014  -0.00003   0.00001   0.00020   0.00000
    C47      X     0.00013  -0.00006  -0.00000   0.00011  -0.00005   0.00000
    C47      Y    -0.00008   0.00003  -0.00003  -0.00017  -0.00001   0.00001
    C47      Z     0.00031  -0.00014   0.00002   0.00010  -0.00004  -0.00000
    H48      X    -0.00096   0.00027  -0.01025  -0.08208   0.00049   0.00015
    H48      Y     0.00145  -0.00021   0.01251   0.10089  -0.00056  -0.00005
    H48      Z    -0.00189   0.00037  -0.01564  -0.12582   0.00078   0.00007
    H49      X    -0.00026  -0.00196  -0.00543  -0.06813   0.00023   0.00048
    H49      Y    -0.00039  -0.00291  -0.00805  -0.10067   0.00034   0.00072
    H49      Z    -0.00090  -0.00607  -0.01744  -0.21720   0.00073   0.00128
    H50      X     0.00015  -0.00004   0.00796   0.08121  -0.00024   0.00004
    H50      Y    -0.00065   0.00002  -0.03892  -0.40541   0.00121  -0.00008
    H50      Z    -0.00010   0.00015  -0.00698  -0.07033   0.00025   0.00002
    H51      X    -0.00080  -0.00837   0.04863   0.34392  -0.00079   0.00002
    H51      Y     0.00105   0.01055  -0.06108  -0.43132   0.00100  -0.00001
    H51      Z    -0.00132  -0.01363   0.07921   0.56104  -0.00135   0.00002
    H52      X    -0.00191   0.00089  -0.00095  -0.00982   0.01346  -0.00001
    H52      Y    -0.00112   0.00052  -0.00052  -0.00537   0.00787  -0.00000
    H52      Z    -0.00085   0.00039  -0.00045  -0.00450   0.00606  -0.00001
    H53      X    -0.00320   0.00035  -0.00088  -0.00778   0.02070  -0.00003
    H53      Y    -0.00044   0.00004  -0.00011  -0.00100   0.00335  -0.00000
    H53      Z     0.00233  -0.00026   0.00066   0.00580  -0.01350   0.00003
    H54      X     0.00008  -0.00000   0.00002   0.00012  -0.00075  -0.00000
    H54      Y     0.00092   0.00003   0.00003   0.00091  -0.05190   0.00001
    H54      Z     0.00230   0.00008   0.00006   0.00219  -0.13351   0.00004
    H55      X    -0.00090   0.00025   0.00007  -0.00287  -0.76886   0.00003
    H55      Y    -0.00052   0.00013   0.00005  -0.00155  -0.42972   0.00001
    H55      Z    -0.00041   0.00010   0.00006  -0.00109  -0.33008   0.00001
    H56      X    -0.00004  -0.00001   0.00003  -0.00006   0.00008  -0.00002
    H56      Y     0.00001   0.00005  -0.00005   0.00002  -0.00009  -0.00002
    H56      Z     0.00035   0.00083   0.00032  -0.00017  -0.00170  -0.00000
    H57      X     0.00013   0.00026  -0.00014   0.00035  -0.00055   0.00002
    H57      Y    -0.00018  -0.00033   0.00015  -0.00042   0.00050  -0.00003
    H57      Z     0.00009   0.00018  -0.00011   0.00019  -0.00012   0.00001
    H58      X     0.00021   0.00039   0.00018  -0.00032  -0.00014   0.00001
    H58      Y     0.00041   0.00077   0.00035  -0.00059  -0.00030   0.00003
    H58      Z     0.00014   0.00031   0.00012  -0.00016  -0.00001   0.00002
    H59      X     0.00002   0.00001   0.00036   0.00122  -0.00005   0.00001
    H59      Y     0.00012   0.00009  -0.00000  -0.00001  -0.00023   0.00002
    H59      Z     0.00042   0.00043   0.00137  -0.00114  -0.00114  -0.00000
    H60      X    -0.00018   0.00049  -0.00346  -0.02122   0.00036  -0.00003
    H60      Y    -0.00001   0.00011  -0.00064  -0.00410  -0.00000   0.00001
    H60      Z     0.00008  -0.00025   0.00151   0.00916  -0.00001   0.00002
    H61      X     0.00020   0.00025  -0.00060  -0.00319  -0.00055   0.00004
    H61      Y    -0.00021  -0.00026   0.00064   0.00331   0.00057  -0.00004
    H61      Z     0.00013   0.00016  -0.00048  -0.00212  -0.00025   0.00003
    H62      X     0.00010  -0.00003   0.00005  -0.00048  -0.00090   0.00001
    H62      Y     0.00026  -0.00009   0.00012  -0.00110  -0.00312   0.00003
    H62      Z     0.00009  -0.00005   0.00006  -0.00043  -0.00057   0.00001
    H63      X     0.00008   0.00008  -0.00009   0.00034   0.00386   0.00003
    H63      Y    -0.00009  -0.00007   0.00009  -0.00029  -0.00359  -0.00003
    H63      Z     0.00006   0.00003  -0.00006   0.00018   0.00058   0.00003
    H64      X    -0.00009  -0.00013   0.00001  -0.00053   0.01328  -0.00002
    H64      Y    -0.00001  -0.00002   0.00000   0.00002   0.00392   0.00000
    H64      Z     0.00004   0.00009   0.00001   0.00035  -0.00686   0.00001
    H65      X    -0.00009   0.00008   0.00013   0.00026   0.00287  -0.00001
    H65      Y    -0.00003   0.00000   0.00001   0.00000  -0.00013  -0.00000
    H65      Z     0.00011  -0.00011  -0.00017  -0.00038  -0.00171   0.00003
    H66      X     0.00005  -0.00003  -0.00007   0.00010  -0.00055   0.00003
    H66      Y    -0.00002   0.00003   0.00000   0.00004  -0.00029  -0.00001
    H66      Z     0.00007   0.00004  -0.00006   0.00038  -0.00200   0.00003
    H67      X     0.00009   0.00001   0.00001   0.00015   0.00020   0.00002
    H67      Y     0.00031   0.00003   0.00003   0.00032   0.00036   0.00004
    H67      Z    -0.00000   0.00000  -0.00000   0.00000  -0.00003   0.00001
    H68      X    -0.00001   0.00008   0.00010   0.00022   0.03659  -0.00002
    H68      Y    -0.00001   0.00001   0.00002   0.00006   0.01106  -0.00001
    H68      Z     0.00002  -0.00011  -0.00016  -0.00035  -0.04889   0.00003
    H69      X     0.00010   0.00003  -0.00001   0.00002   0.00016   0.00002
    H69      Y     0.00031   0.00015   0.00001   0.00008   0.00402   0.00004
    H69      Z     0.00001  -0.00001  -0.00000   0.00001   0.00073   0.00001
    H70      X    -0.00005   0.00002  -0.00001   0.00036   0.00828   0.00002
    H70      Y     0.00001  -0.00003  -0.00000  -0.00023  -0.00655  -0.00002
    H70      Z    -0.00001   0.00000   0.00001   0.00005   0.00214   0.00001
    H71      X     0.00011   0.00090   0.00013  -0.00003  -0.00130   0.00000
    H71      Y    -0.00005   0.00036   0.00011  -0.00004  -0.00044  -0.00002
    H71      Z     0.00019   0.00148   0.00031  -0.00005  -0.00195   0.00004
    H72      X    -0.00013   0.00150   0.00046   0.00001  -0.00001   0.00001
    H72      Y     0.00006  -0.00108  -0.00031  -0.00001   0.00013  -0.00001
    H72      Z    -0.00001   0.00016   0.00007  -0.00002  -0.00010   0.00001
    H73      X     0.00016  -0.00009  -0.00004   0.00003  -0.00017   0.00002
    H73      Y     0.00049  -0.00026  -0.00012   0.00011  -0.00038   0.00006
    H73      Z     0.00004  -0.00005  -0.00002   0.00000  -0.00006   0.00002
    H74      X     0.00040  -0.00025  -0.00006  -0.00105   0.00005  -0.00006
    H74      Y     0.00003  -0.00003   0.00009   0.00062  -0.00006  -0.00001
    H74      Z    -0.00036   0.00031   0.00006   0.00103  -0.00011   0.00010
    H75      X    -0.00064   0.00043   0.00016   0.00045   0.00047  -0.00004
    H75      Y    -0.00045   0.00025   0.00022   0.00090   0.00034  -0.00003
    H75      Z    -0.00015   0.00009   0.00009   0.00026   0.00013  -0.00004
    H76      X    -0.00134   0.00066  -0.00018  -0.00120   0.00020   0.00008
    H76      Y     0.00142  -0.00067   0.00033   0.00221  -0.00022  -0.00003
    H76      Z    -0.00316   0.00127  -0.00034  -0.00240   0.00045   0.00005
    X        X     0.00000   0.00000   0.00000   0.00000   0.00000   0.00000
    X        Y     0.00000   0.00000   0.00000   0.00000   0.00000   0.00000
    X        Z     0.00000   0.00000   0.00000   0.00000   0.00000   0.00000
  
  Number of imaginary frequencies:   0
   
  Writing vibrational animation data to red_elim_complex_L1_PL154_2.vib
  Writing IR vibrational spectrum data to red_elim_complex_L1_PL154_2_vib.spm
  rotational symmetry number:  1

  rotational temperatures (K):      0.006592      0.004143      0.003603
   
  The Quasi-Harmonic approximation will be applied to compute
  vibrational constributions to thermodynamic properties.
  Frequencies will be adjusted to a minimum value of  100.00 cm^-1.

  vibrational temperatures:
       mode:      1        2        3        4        5        6
  temp. (K):   143.88   143.88   143.88   143.88   143.88   143.88
   
       mode:      7        8        9       10       11       12
  temp. (K):   143.88   143.88   143.88   143.88   143.88   143.88
   
       mode:     13       14       15       16       17       18
  temp. (K):   143.88   156.24   165.93   174.63   182.75   197.36
   
       mode:     19       20       21       22       23       24
  temp. (K):   220.26   224.29   237.46   246.69   289.20   303.50
   
       mode:     25       26       27       28       29       30
  temp. (K):   330.84   343.09   360.05   364.78   373.30   382.01
   
       mode:     31       32       33       34       35       36
  temp. (K):   392.56   393.70   413.45   425.30   433.27   443.66
   
       mode:     37       38       39       40       41       42
  temp. (K):   454.40   463.86   478.19   487.14   499.88   522.43
   
       mode:     43       44       45       46       47       48
  temp. (K):   541.63   558.56   581.05   585.22   593.56   595.63
   
       mode:     49       50       51       52       53       54
  temp. (K):   603.44   611.16   624.51   634.00   664.78   674.40
   
       mode:     55       56       57       58       59       60
  temp. (K):   697.68   730.25   743.07   746.89   759.89   778.89
   
       mode:     61       62       63       64       65       66
  temp. (K):   798.93   818.18   834.35   846.50   875.87   878.82
   
       mode:     67       68       69       70       71       72
  temp. (K):   902.17   911.51   942.83   991.44  1003.86  1028.92
   
       mode:     73       74       75       76       77       78
  temp. (K):  1063.40  1084.49  1103.92  1109.32  1116.82  1129.59
   
       mode:     79       80       81       82       83       84
  temp. (K):  1138.71  1161.02  1184.75  1185.94  1199.83  1200.62
   
       mode:     85       86       87       88       89       90
  temp. (K):  1219.71  1228.28  1278.74  1290.64  1302.22  1304.97
   
       mode:     91       92       93       94       95       96
  temp. (K):  1314.96  1351.69  1372.22  1379.61  1383.99  1387.22
   
       mode:     97       98       99      100      101      102
  temp. (K):  1392.34  1411.21  1418.66  1419.20  1422.08  1436.82
   
       mode:    103      104      105      106      107      108
  temp. (K):  1448.17  1455.94  1462.35  1470.90  1475.12  1476.70
   
       mode:    109      110      111      112      113      114
  temp. (K):  1503.02  1513.48  1517.37  1523.84  1535.40  1536.75
   
       mode:    115      116      117      118      119      120
  temp. (K):  1539.94  1566.03  1596.35  1605.88  1634.99  1665.38
   
       mode:    121      122      123      124      125      126
  temp. (K):  1679.25  1699.36  1731.99  1735.18  1739.66  1746.77
   
       mode:    127      128      129      130      131      132
  temp. (K):  1753.74  1770.70  1772.94  1778.26  1780.09  1799.11
   
       mode:    133      134      135      136      137      138
  temp. (K):  1800.01  1810.36  1823.18  1851.64  1867.49  1878.30
   
       mode:    139      140      141      142      143      144
  temp. (K):  1902.47  1920.76  1941.59  1963.08  1973.08  2000.36
   
       mode:    145      146      147      148      149      150
  temp. (K):  2009.19  2040.95  2043.65  2045.73  2050.99  2052.14
   
       mode:    151      152      153      154      155      156
  temp. (K):  2066.21  2089.47  2101.09  2119.12  2138.36  2153.39
   
       mode:    157      158      159      160      161      162
  temp. (K):  2153.66  2159.55  2169.62  2170.99  2174.09  2176.59
   
       mode:    163      164      165      166      167      168
  temp. (K):  2179.40  2181.77  2189.52  2194.78  2201.60  2210.07
   
       mode:    169      170      171      172      173      174
  temp. (K):  2213.37  2216.78  2220.16  2227.51  2229.58  2233.91
   
       mode:    175      176      177      178      179      180
  temp. (K):  2272.24  2339.87  2346.62  2358.75  2367.67  2383.23
   
       mode:    181      182      183      184      185      186
  temp. (K):  2387.63  2405.92  2413.63  4362.23  4367.90  4370.26
   
       mode:    187      188      189      190      191      192
  temp. (K):  4373.97  4379.46  4382.41  4390.33  4468.67  4473.42
   
       mode:    193      194      195      196      197      198
  temp. (K):  4475.34  4478.75  4486.54  4490.93  4491.94  4516.09
   
       mode:    199      200      201      202      203      204
  temp. (K):  4518.92  4525.66  4531.09  4538.12  4543.16  4552.35
   
       mode:    205      206      207      208      209      210
  temp. (K):  4562.27  4571.26  4579.78  4582.94  4588.85  4592.77
   
       mode:    211      212      213      214      215      216
  temp. (K):  4594.87  4598.53  4603.12  4608.52  4615.78  4620.27
   
       mode:    217      218      219      220      221      222
  temp. (K):  4623.36  4626.00  4631.18  4633.77  4677.33  5192.14
   
   
  Thermodynamic properties calculated assuming an ideal gas

  In the table below, the units for temperature
  are kelvins, the units for U, H, and G are
  kcal/mol and the units for Cv and S are cal/(mol K)

  The zero point energy (ZPE):    403.937 kcal/mol
  is not included in U, H, or G in the table below
  
 
  =============================================================================
  Thermodynamic properties for P = 1.00E+00 atm, calculated at   1 temperatures


  T =   298.15 K, P = 1.00E+00 atm
   
                  U         Cv          S          H          G        ln(Q)
              =========  =========  =========  =========  =========  =========
  trans.          0.889      2.981     45.085      1.481    -11.961   20.18742
  rot.            0.889      2.981     37.133      0.889    -10.182   17.18584
  vib.           21.196    141.235    127.945     21.196    -16.951   28.60917
  elec.           0.000      0.000      0.000      0.000      0.000    0.00000
  ----------------------------------------------------------------------------
  total          22.974    147.196    210.162     23.566    -39.094   65.98243
   
   Total internal energy, Utot(SCFE + ZPE + U):   -1902.641085 hartrees
   Total enthalpy, Htot (Utot + nRT), with n=1:   -1902.640141 hartrees
    Total Gibbs free energy, Gtot (Htot - T*S):   -1902.739995 hartrees
   
  end of program freq
   
 Time(freq)  user:       0.426  user+sys:       0.426  wallclock:       0.508
  
  start of program post
  
  Writing input files for PBF
  end of program post
   
 Time(post)  user:       0.246  user+sys:       0.246  wallclock:       0.292

 Total cpu seconds     user:   71597.208   user+sys:   71597.208
  
 Total elapsed time:    48494 seconds

Job red_elim_complex_L1_PL154_2 completed on bp1-compute050.data.bp.acrc.priv at Fri May  2 05:44:27 2025
