Job enc_comp_L1_PL274 started on bp1-compute154.data.bp.acrc.priv at Fri Mar 22 17:22:29 2024
jobid: bp1-compute154-0-65fdbe52

  +--------------------------------------------------------------------+
  |  Jaguar version 11.4, release 135                                  |
  |                                                                    |
  |  Copyright Schrodinger, Inc.                                       |
  |  All Rights Reserved.                                              |
  |                                                                    |
  |  The following have contributed to Jaguar (listed alphabetically): |
  |  Mike Beachy, Art Bochevarov, Dale Braden, Yixiang Cao,            |
  |  Alan Chien, Chris Cortis, Rich Friesner, Bill Goddard,            |
  |  Hod Greeley, Tom Hughes, Leif Jacobson, Jean-Marc Langlois,       |
  |  Daniel Levine, Daniel Mainz, Rob Murphy, Dean Philipp,            |
  |  Tom Pollard, Murco Ringnalda, Mark Watson, Haoyu Yu.              |
  |                                                                    |
  |  Use of this program should be acknowledged in publications as:    |
  |                                                                    |
  |  Jaguar, version 11.4, Schrodinger, Inc., New York, NY, 2021.      |
  |                                                                    |
  |  A. D. Bochevarov, E. Harder, T. F. Hughes, J. R. Greenwood,       |
  |  D. A. Braden, D. M. Philipp, D. Rinaldo, M. D. Halls,             |
  |  J. Zhang, R. A. Friesner, "Jaguar: A High-Performance Quantum     |
  |  Chemistry Software Program with Strengths in Life and Materials   |
  |  Sciences", Int. J. Quantum Chem., 2013, 113(18), 2110-2142.       |
  +--------------------------------------------------------------------+
  
  start of program pre
  
  Job name: enc_comp_L1_PL274
  Executables used: /sw/apps/schrodinger2021-4/jaguar-v11.4/bin/Linux-x86_64
  Temporary files : /tmp/ar21627/enc_comp_L1_PL274
  Maestro file (input):  enc_comp_L1_PL274.mae
  Maestro file (output): enc_comp_L1_PL274.01.mae
  
 Contents of input file: &gen section only
 ----------------Contents start----------------
&gen
dftname=b3pw91-d3
basis=6-31G*
numd=5
ip11=2
iaccg=3
isolv=2
igeopt=1
solvent=benzene
ifreq=1
&
 -----------------Contents end-----------------
 
  basis set:             non_standard                    
  net molecular charge:    0
  multiplicity:            1
  
  This run will use ECP on            2  atoms
  number of basis functions....          660
  
  input atom labels were not unique
  original atom labels:
 P1       Pd2      Br3      C4       C5       C6       C7       C8      
 C9       F10      H11      H12      H13      H14      C3       C4      
 C5       C6       C7       C8       C9       C10      C11      C12     
 C13      C14      C15      C16      C17      C18      C19      C20     
 C21      C22      C23      C24      C25      C26      C27      C28     
 C29      H30      H31      H32      H33      H34      H35      H36     
 H37      H38      H39      H40      H41      H42      H43      H44     
 H45      H46      H47      H48      H49      H50      H51      H52     
 H53      H54      H55      H56      H57      H58      H59      H60     
 H61      H62      H63      H64      C65      H66      H67      H68     
 C69      H70      H71      H72      H73      H74      H75      H76     
  new atom labels:
 P1       Pd2      Br3      C4       C5       C6       C7       C8      
 C9       F10      H11      H12      H13      H14      C15      C16     
 C17      C18      C19      C20      C21      C22      C23      C24     
 C25      C26      C27      C28      C29      C30      C31      C32     
 C33      C34      C35      C36      C37      C38      C39      C40     
 C41      H42      H43      H44      H45      H46      H47      H48     
 H49      H50      H51      H52      H53      H54      H55      H56     
 H57      H58      H59      H60      H61      H62      H63      H64     
 H65      H66      H67      H68      H69      H70      H71      H72     
 H73      H74      H75      H76      C77      H78      H79      H80     
 C81      H82      H83      H84      H85      H86      H87      H88     
 
  
 Input geometry:
                                   angstroms
  atom               x                 y                 z
  P1            0.0000000000      0.0000000000      0.0000000000 
  Pd2           0.0000000000      0.0000000000      2.3304135331 
  Br3           3.8542814242      0.0000000000      5.4292064860 
  C4           -0.4549197086      1.3497693940      4.0153359349 
  C5           -0.2669344836      0.0058806450      4.4490366009 
  C6            1.0407983309     -0.3826452052      4.8592552538 
  C7            2.0537516852      0.5613053264      4.8924840041 
  C8            1.8506734706      1.9005134066      4.5247241645 
  C9            0.5965376026      2.2939392222      4.0848657340 
  F10          -1.7240847964      1.8372913075      3.9128173605 
  H11          -1.1259178029     -0.6226753472      4.6805948296 
  H12           1.2142790067     -1.4018616494      5.1904970608 
  H13           2.6689545036      2.6135377646      4.5613194024 
  H14           0.3946228406      3.3233536154      3.8042291155 
  C15           1.7831463244      0.0000000000     -0.8473727461 
  C16          -0.9886469542     -1.5695736595     -0.6867421696 
  C17          -0.7901183997      1.5049379058     -0.8479766882 
  C18           1.8652236082      0.0548153147     -2.3939977476 
  C19           2.5239751135     -1.2700843094     -0.3645010905 
  C20          -0.7983231708     -2.6816138379      0.3763485688 
  C21          -2.4878216583     -1.2112625211     -0.8064495247 
  C22          -0.8892394008      1.4114160136     -2.2607084982 
  C23          -1.2546226733      2.4840588565     -3.0851574536 
  C24          -1.5207952457      3.7270633661     -2.4988050521 
  C25          -1.4998965492      3.8273578633     -1.1029466553 
  C26          -1.1937791729      2.7411469086     -0.2403429206 
  C27          -1.4955600723      3.0253394478      1.2179072042 
  C28          -2.8573804410      2.9258007927      1.6427194187 
  C29          -3.1835632123      3.2671285981      2.9669664830 
  C30          -2.2184617792      3.7066195558      3.8875966319 
  C31          -0.9059156283      3.8714990162      3.4252879495 
  C32          -0.5242988337      3.5606149275      2.1076927210 
  C33           0.8903072400      3.9069269557      1.6394151962 
  C34           0.9383018438      5.3645307443      1.1161004170 
  C35          -3.9942841535      2.5263893501      0.6865304301 
  C36          -5.0420068080      1.5792654208      1.3115151138 
  C37          -2.5643922096      3.9623566972      5.3522129059 
  C38           1.9790472741      3.6993159789      2.7112369243 
  C39          -4.7121107901      3.7857371286      0.1384320570 
  C40          -2.9590991633      2.6441334860      6.0577614421 
  C41          -3.6562524435      5.0419270943      5.5212642682 
  H42           1.3657093114     -0.7799130754     -2.9078132675 
  H43           1.4803630968      1.0048275598     -2.7998800482 
  H44           2.5173147849     -1.3496627875      0.7346946624 
  H45           2.1017488047     -2.1910767731     -0.8041808148 
  H46           0.2645501696     -2.9543819690      0.5016635869 
  H47          -1.1954620983     -2.3739848413      1.3566866633 
  H48          -2.8745272637     -0.7967271580      0.1378559733 
  H49          -2.6761453324     -0.4931763301     -1.6243074748 
  H50          -0.6668554910      0.4562132947     -2.7391918417 
  H51          -1.3132346546      2.3437192186     -4.1713334739 
  H52          -1.7763881926      4.5999501479     -3.1116595861 
  H53          -1.7717165211      4.7780348876     -0.6311032179 
  H54          -4.2228968831      3.1519016141      3.2973832778 
  H55          -0.1458421643      4.2343620195      4.1269936111 
  H56           1.1276614546      3.2434762284      0.7909457083 
  H57           0.6687945106      6.0742005961      1.9214661099 
  H58           0.2397811224      5.5249556070      0.2757633575 
  H59           1.9575479326      5.6181635074      0.7655036563 
  H60          -3.5450204230      1.9943108666     -0.1710626328 
  H61          -5.6529166403      2.0898430086      2.0802255420 
  H62          -5.7393517058      1.2241094154      0.5284041644 
  H63          -4.5530067634      0.7093391717      1.7781370610 
  H64          -1.6429003120      4.3395922896      5.8404978839 
  H65           1.8882160219      4.4345826098      3.5337800204 
  H66           2.9783958680      3.8431453967      2.2586305933 
  H67           1.9404016142      2.6824878981      3.1362898761 
  H68          -5.1559012677      4.3676159368      0.9685996882 
  H69          -5.5306303802      3.4995242068     -0.5507058279 
  H70          -4.0239116191      4.4517581053     -0.4098786963 
  H71          -3.9048202190      2.2454047989      5.6452470654 
  H72          -3.1042172200      2.8097039111      7.1433702254 
  H73          -2.1833050044      1.8725387701      5.9080647365 
  H74          -4.6088031266      4.7234831349      5.0576118387 
  H75          -3.3573436749      5.9970890541      5.0511848065 
  H76          -3.8569602758      5.2325977594      6.5931467838 
  C77          -0.5441708763     -2.1598303215     -2.0464615814 
  H78          -1.1856029942     -3.0417664424     -2.2477001319 
  H79          -0.6839976165     -1.4712621932     -2.8981229103 
  H80           0.4993445642     -2.5142764624     -2.0464974490 
  C81           2.5160792963      1.2658499196     -0.3495850975 
  H82           3.5592243218      1.2394134262     -0.7263030562 
  H83           2.0423449106      2.1774381524     -0.7572142958 
  H84           2.5500876307      1.3151497824      0.7482272982 
  H85           2.9402802330      0.0025088778     -2.6612312077 
  H86           3.5817627609     -1.2058906194     -0.6913890209 
  H87          -1.3445468212     -3.5877674888      0.0425532017 
  H88          -3.0522249256     -2.1385459761     -1.0343750224 
   
  principal moments of inertia:
        amu*angstrom^2:     5625.76636     6889.06967     9375.76400
                g*cm^2: 9.34180366E-37 1.14395679E-36 1.55688205E-36
   
  rotational constants:
               cm^(-1):      0.00299650      0.00244701      0.00179800
                   GHz:      0.08983292      0.07335954      0.05390270
   
  Molecular weight:     704.18 amu
   
  Stoichiometry: PdC35PH49BrF
  Molecular Point Group: C1      
  Point Group used: C1
  
 
Number of optimization coordinates:   290
Number of independent coordinates:    290
Number of non-redundant coordinates:  258
Number of frozen coordinates:           0
Number of harmonic constraints:         0
 
Number of geometric degrees of freedom:   258
Maximum geometric degrees of freedom:     258
 " " " " " excluding dummy atoms:         258
 
 
  bond lengths (angstroms):
 
 P1      -Pd2     :   2.330414      P1      -C15     :   1.974247
 P1      -C16     :   1.978029      P1      -C17     :   1.899524
 Pd2     -C4      :   2.206308      Pd2     -C5      :   2.135381
 Br3     -C7      :   1.960878      C4      -C5      :   1.424595
 C4      -C9      :   1.414869      C4      -F10     :   1.363440
 C5      -C6      :   1.424569      C5      -H11     :   1.089291
 C6      -C7      :   1.384999      C6      -H12     :   1.085642
 C7      -C8      :   1.403555      C8      -C9      :   1.386043
 C8      -H13     :   1.085968      C9      -H14     :   1.085919
 C15     -C18     :   1.549771      C15     -C19     :   1.547613
 C15     -C81     :   1.545108      C16     -C20     :   1.550167
 C16     -C21     :   1.546041      C16     -C77     :   1.547514
 C17     -C22     :   1.419289      C17     -C26     :   1.435400
 C18     -H42     :   1.100133      C18     -H43     :   1.102443
 C18     -H85     :   1.109007      C19     -H44     :   1.102093
 C19     -H45     :   1.104455      C19     -H86     :   1.109005
 C20     -H46     :   1.104448      C20     -H47     :   1.101552
 C20     -H87     :   1.109457      C21     -H48     :   1.101405
 C21     -H49     :   1.104538      C21     -H88     :   1.109214
 C22     -C23     :   1.401351      C22     -H50     :   1.091244
 C23     -C24     :   1.399899      C23     -H51     :   1.096772
 C24     -C25     :   1.399613      C24     -H52     :   1.096745
 C25     -C26     :   1.420439      C25     -H53     :   1.095586
 C26     -C27     :   1.516025      C27     -C28     :   1.430010
 C27     -C32     :   1.421825      C28     -C29     :   1.405891
 C28     -C35     :   1.538303      C29     -C30     :   1.404327
 C29     -H54     :   1.096662      C30     -C31     :   1.401318
 C30     -C37     :   1.526489      C31     -C32     :   1.406534
 C31     -H55     :   1.096254      C32     -C33     :   1.529812
 C33     -C34     :   1.549442      C33     -C38     :   1.541836
 C33     -H56     :   1.102907      C34     -H57     :   1.106743
 C34     -H58     :   1.104461      C34     -H59     :   1.107299
 C35     -C36     :   1.544465      C35     -C39     :   1.549724
 C35     -H60     :   1.104722      C36     -H61     :   1.106714
 C36     -H62     :   1.107108      C36     -H63     :   1.101648
 C37     -C40     :   1.546384      C37     -C41     :   1.544736
 C37     -H64     :   1.108998      C38     -H65     :   1.106998
 C38     -H66     :   1.106452      C38     -H67     :   1.102771
 C39     -H68     :   1.106667      C39     -H69     :   1.107611
 C39     -H70     :   1.103561      C40     -H71     :   1.106138
 C40     -H72     :   1.107709      C40     -H73     :   1.104366
 C41     -H74     :   1.106225      C41     -H75     :   1.105738
 C41     -H76     :   1.107055      C77     -H78     :   1.108938
 C77     -H79     :   1.104085      C77     -H80     :   1.102069
 C81     -H82     :   1.109399      C81     -H83     :   1.105251
 C81     -H84     :   1.099445
 
  bond angles:
 
 C15     -P1      -Pd2     : 115.417634  C16     -P1      -Pd2     : 110.315238
 C16     -P1      -C15     : 107.602855  C17     -P1      -Pd2     : 116.513936
 C17     -P1      -C15     : 100.607821  C17     -P1      -C16     : 105.413350
 C4      -Pd2     -P1      : 139.790083  C5      -Pd2     -P1      : 172.817172
 C5      -Pd2     -C4      :  38.265372  C5      -C4      -Pd2     :  68.171301
 C9      -C4      -Pd2     : 107.010697  C9      -C4      -C5      : 121.097117
 F10     -C4      -Pd2     : 110.687033  F10     -C4      -C5      : 118.883777
 F10     -C4      -C9      : 117.183816  C4      -C5      -Pd2     :  73.563328
 C6      -C5      -Pd2     :  99.799198  C6      -C5      -C4      : 117.780247
 H11     -C5      -Pd2     : 107.932450  H11     -C5      -C4      : 120.331435
 H11     -C5      -C6      : 120.351769  C7      -C6      -C5      : 119.499655
 H12     -C6      -C5      : 119.379668  H12     -C6      -C7      : 121.041683
 C6      -C7      -Br3     : 118.884051  C8      -C7      -Br3     : 118.535581
 C8      -C7      -C6      : 122.561140  C9      -C8      -C7      : 119.006271
 H13     -C8      -C7      : 120.572301  H13     -C8      -C9      : 120.405679
 C8      -C9      -C4      : 119.907542  H14     -C9      -C4      : 118.797547
 H14     -C9      -C8      : 121.287651  C18     -C15     -P1      : 118.435966
 C19     -C15     -P1      : 107.363714  C19     -C15     -C18     : 108.363978
 C81     -C15     -P1      : 106.867607  C81     -C15     -C18     : 105.510586
 C81     -C15     -C19     : 110.166900  C20     -C16     -P1      : 105.650726
 C21     -C16     -P1      : 109.125727  C21     -C16     -C20     : 109.780136
 C77     -C16     -P1      : 117.655696  C77     -C16     -C20     : 107.078681
 C77     -C16     -C21     : 107.390303  C22     -C17     -P1      : 114.910189
 C26     -C17     -P1      : 127.613023  C26     -C17     -C22     : 117.288667
 H42     -C18     -C15     : 114.532958  H43     -C18     -C15     : 112.297122
 H43     -C18     -H42     : 108.867652  H85     -C18     -C15     : 106.866856
 H85     -C18     -H42     : 106.966915  H85     -C18     -H43     : 106.878241
 H44     -C19     -C15     : 111.564943  H45     -C19     -C15     : 112.156573
 H45     -C19     -H44     : 109.543807  H86     -C19     -C15     : 108.488385
 H86     -C19     -H44     : 107.693622  H86     -C19     -H45     : 107.191431
 H46     -C20     -C16     : 111.909222  H47     -C20     -C16     : 111.452173
 H47     -C20     -H46     : 108.357701  H87     -C20     -C16     : 108.610725
 H87     -C20     -H46     : 107.831746  H87     -C20     -H47     : 108.563238
 H48     -C21     -C16     : 111.180188  H49     -C21     -C16     : 111.921524
 H49     -C21     -H48     : 109.286245  H88     -C21     -C16     : 108.395216
 H88     -C21     -H48     : 108.189506  H88     -C21     -H49     : 107.733199
 C23     -C22     -C17     : 123.599104  H50     -C22     -C17     : 118.678591
 H50     -C22     -C23     : 117.721925  C24     -C23     -C22     : 118.868590
 H51     -C23     -C22     : 119.909520  H51     -C23     -C24     : 121.215735
 C25     -C24     -C23     : 118.588670  H52     -C24     -C23     : 121.127678
 H52     -C24     -C25     : 120.247906  C26     -C25     -C24     : 123.646751
 H53     -C25     -C24     : 119.209043  H53     -C25     -C26     : 117.096095
 C25     -C26     -C17     : 117.523625  C27     -C26     -C17     : 128.653754
 C27     -C26     -C25     : 113.446166  C28     -C27     -C26     : 117.533585
 C32     -C27     -C26     : 122.449022  C32     -C27     -C28     : 119.395310
 C29     -C28     -C27     : 118.938223  C35     -C28     -C27     : 122.495958
 C35     -C28     -C29     : 118.493284  C30     -C29     -C28     : 122.278192
 H54     -C29     -C28     : 118.565936  H54     -C29     -C30     : 119.122180
 C31     -C30     -C29     : 117.661255  C37     -C30     -C29     : 121.714388
 C37     -C30     -C31     : 120.603101  C32     -C31     -C30     : 122.491344
 H55     -C31     -C30     : 118.501880  H55     -C31     -C32     : 118.990609
 C31     -C32     -C27     : 118.953890  C33     -C32     -C27     : 121.690431
 C33     -C32     -C31     : 119.182645  C34     -C33     -C32     : 110.180843
 C38     -C33     -C32     : 114.184988  C38     -C33     -C34     : 109.851523
 H56     -C33     -C32     : 107.356126  H56     -C33     -C34     : 107.421500
 H56     -C33     -C38     : 107.567152  H57     -C34     -C33     : 110.481288
 H58     -C34     -C33     : 111.964181  H58     -C34     -H57     : 107.849514
 H59     -C34     -C33     : 110.544137  H59     -C34     -H57     : 107.919333
 H59     -C34     -H58     : 107.937853  C36     -C35     -C28     : 114.145295
 C39     -C35     -C28     : 110.559343  C39     -C35     -C36     : 109.100865
 H60     -C35     -C28     : 107.880461  H60     -C35     -C36     : 107.136859
 H60     -C35     -C39     : 107.770660  H61     -C36     -C35     : 111.877424
 H62     -C36     -C35     : 109.741743  H62     -C36     -H61     : 106.954839
 H63     -C36     -C35     : 110.764840  H63     -C36     -H61     : 108.368321
 H63     -C36     -H62     : 109.018969  C40     -C37     -C30     : 110.658205
 C41     -C37     -C30     : 112.474040  C41     -C37     -C40     : 111.432837
 H64     -C37     -C30     : 106.925793  H64     -C37     -C40     : 107.528017
 H64     -C37     -C41     : 107.542121  H65     -C38     -C33     : 111.663558
 H66     -C38     -C33     : 109.628065  H66     -C38     -H65     : 106.960803
 H67     -C38     -C33     : 111.552585  H67     -C38     -H65     : 108.854276
 H67     -C38     -H66     : 108.009914  H68     -C39     -C35     : 110.347547
 H69     -C39     -C35     : 110.631940  H69     -C39     -H68     : 107.833481
 H70     -C39     -C35     : 112.166850  H70     -C39     -H68     : 107.786441
 H70     -C39     -H69     : 107.918693  H71     -C40     -C37     : 110.815466
 H72     -C40     -C37     : 110.681673  H72     -C40     -H71     : 107.900400
 H73     -C40     -C37     : 110.759160  H73     -C40     -H71     : 107.349544
 H73     -C40     -H72     : 109.226744  H74     -C41     -C37     : 111.197675
 H75     -C41     -C37     : 111.475475  H75     -C41     -H74     : 107.653118
 H76     -C41     -C37     : 110.761272  H76     -C41     -H74     : 107.414399
 H76     -C41     -H75     : 108.170877  H78     -C77     -C16     : 107.257040
 H79     -C77     -C16     : 113.798039  H79     -C77     -H78     : 106.424803
 H80     -C77     -C16     : 113.244804  H80     -C77     -H78     : 106.971719
 H80     -C77     -H79     : 108.691356  H82     -C81     -C15     : 108.488016
 H83     -C81     -C15     : 110.705930  H83     -C81     -H82     : 107.303973
 H84     -C81     -C15     : 111.906990  H84     -C81     -H82     : 108.122439
 H84     -C81     -H83     : 110.153626
 
  torsional angles:
 
 P1      -Pd2     -C4      -C5      : 169.055599
 P1      -Pd2     -C4      -C9      : -73.602749
 P1      -Pd2     -C4      -F10     :  55.167448
 P1      -Pd2     -C5      -C4      : -78.600628
 P1      -Pd2     -C5      -C6      : 165.156178
 P1      -Pd2     -C5      -H11     :  38.653112
 P1      -C15     -C18     -H42     : -59.388644
 P1      -C15     -C18     -H43     :  65.456959
 P1      -C15     -C18     -H85     :-177.655655
 P1      -C15     -C19     -H44     : -52.264827
 P1      -C15     -C19     -H45     :  71.055768
 P1      -C15     -C19     -H86     :-170.737358
 P1      -C15     -C81     -H82     : 174.235630
 P1      -C15     -C81     -H83     : -68.269516
 P1      -C15     -C81     -H84     :  55.028918
 P1      -C16     -C20     -H46     : -61.587682
 P1      -C16     -C20     -H47     :  59.930593
 P1      -C16     -C20     -H87     : 179.484556
 P1      -C16     -C21     -H48     : -52.261846
 P1      -C16     -C21     -H49     :  70.269199
 P1      -C16     -C21     -H88     :-171.055930
 P1      -C16     -C77     -H78     : 178.243253
 P1      -C16     -C77     -H79     : -64.331096
 P1      -C16     -C77     -H80     :  60.462339
 P1      -C17     -C22     -C23     :-170.210970
 P1      -C17     -C22     -H50     :   9.559426
 P1      -C17     -C26     -C25     : 167.022163
 P1      -C17     -C26     -C27     : -20.537445
 Pd2     -P1      -C15     -C18     :-177.694779
 Pd2     -P1      -C15     -C19     :  59.300540
 Pd2     -P1      -C15     -C81     : -58.880810
 Pd2     -P1      -C16     -C20     : -30.327343
 Pd2     -P1      -C16     -C21     :  87.650420
 Pd2     -P1      -C16     -C77     :-149.743031
 Pd2     -P1      -C17     -C22     :-174.148580
 Pd2     -P1      -C17     -C26     :  11.014824
 Pd2     -C4      -C5      -C6      :  92.587904
 Pd2     -C4      -C5      -H11     :-101.496949
 Pd2     -C4      -C9      -C8      : -71.447828
 Pd2     -C4      -C9      -H14     : 109.519591
 Pd2     -C5      -C4      -C9      : -97.263592
 Pd2     -C5      -C4      -F10     : 102.336045
 Pd2     -C5      -C6      -C7      :  79.957824
 Pd2     -C5      -C6      -H12     :-103.239758
 Br3     -C7      -C6      -C5      :-178.920910
 Br3     -C7      -C6      -H12     :   4.331201
 Br3     -C7      -C8      -C9      : 177.060737
 Br3     -C7      -C8      -H13     :  -1.501514
 C4      -Pd2     -P1      -C15     : 108.625624
 C4      -Pd2     -P1      -C16     :-129.168268
 C4      -Pd2     -P1      -C17     :  -9.074625
 C4      -Pd2     -C5      -C6      :-116.243194
 C4      -Pd2     -C5      -H11     : 117.253740
 C4      -C5      -C6      -C7      :   3.464907
 C4      -C5      -C6      -H12     :-179.732674
 C4      -C9      -C8      -C7      :   0.134173
 C4      -C9      -C8      -H13     : 178.698884
 C5      -Pd2     -P1      -C15     : 178.737961
 C5      -Pd2     -P1      -C16     : -59.055931
 C5      -Pd2     -P1      -C17     :  61.037713
 C5      -Pd2     -C4      -C9      : 117.341652
 C5      -Pd2     -C4      -F10     :-113.888151
 C5      -C4      -C9      -C8      :   2.913388
 C5      -C4      -C9      -H14     :-176.119193
 C5      -C6      -C7      -C8      :  -0.540470
 C6      -C5      -C4      -C9      :  -4.675688
 C6      -C5      -C4      -F10     :-165.076052
 C6      -C7      -C8      -C9      :  -1.325091
 C6      -C7      -C8      -H13     :-179.887342
 C7      -C6      -C5      -H11     :-162.447253
 C7      -C8      -C9      -H14     : 179.142122
 C8      -C7      -C6      -H12     :-177.288359
 C8      -C9      -C4      -F10     : 163.633244
 C9      -C4      -C5      -H11     : 161.239459
 F10     -C4      -C5      -H11     :   0.839096
 F10     -C4      -C9      -H14     : -15.399337
 H11     -C5      -C6      -H12     :  14.355165
 H13     -C8      -C9      -H14     :  -2.293167
 C15     -P1      -C16     -C20     :  96.372645
 C15     -P1      -C16     -C21     :-145.649592
 C15     -P1      -C16     -C77     : -23.043043
 C15     -P1      -C17     -C22     :  60.299866
 C15     -P1      -C17     -C26     :-114.536731
 C16     -P1      -C15     -C18     :  58.660020
 C16     -P1      -C15     -C19     : -64.344660
 C16     -P1      -C15     -C81     : 177.473990
 C16     -P1      -C17     -C22     : -51.464389
 C16     -P1      -C17     -C26     : 133.699014
 C17     -P1      -C15     -C18     : -51.406213
 C17     -P1      -C15     -C19     :-174.410894
 C17     -P1      -C15     -C81     :  67.407756
 C17     -P1      -C16     -C20     :-156.900754
 C17     -P1      -C16     -C21     : -38.922990
 C17     -P1      -C16     -C77     :  83.683559
 C17     -C22     -C23     -C24     :   0.953559
 C17     -C22     -C23     -H51     :-179.937772
 C17     -C26     -C25     -C24     :   4.722829
 C17     -C26     -C25     -H53     :-177.825264
 C17     -C26     -C27     -C28     : -93.715753
 C17     -C26     -C27     -C32     :  95.390191
 C18     -C15     -C19     -H44     : 178.723324
 C18     -C15     -C19     -H45     : -57.956081
 C18     -C15     -C19     -H86     :  60.250793
 C18     -C15     -C81     -H82     : -58.856036
 C18     -C15     -C81     -H83     :  58.638818
 C18     -C15     -C81     -H84     :-178.062748
 C19     -C15     -C18     -H42     :  63.114911
 C19     -C15     -C18     -H43     :-172.039486
 C19     -C15     -C18     -H85     : -55.152100
 C19     -C15     -C81     -H82     :  57.903115
 C19     -C15     -C81     -H83     : 175.397970
 C19     -C15     -C81     -H84     : -61.303596
 C20     -C16     -C21     -H48     :  63.088416
 C20     -C16     -C21     -H49     :-174.380539
 C20     -C16     -C21     -H88     : -55.705669
 C20     -C16     -C77     -H78     :  59.582873
 C20     -C16     -C77     -H79     : 177.008524
 C20     -C16     -C77     -H80     : -58.198041
 C21     -C16     -C20     -H46     :-179.126282
 C21     -C16     -C20     -H47     : -57.608007
 C21     -C16     -C20     -H87     :  61.945956
 C21     -C16     -C77     -H78     : -58.270103
 C21     -C16     -C77     -H79     :  59.155548
 C21     -C16     -C77     -H80     :-176.051017
 C22     -C17     -C26     -C25     :  -7.708039
 C22     -C17     -C26     -C27     : 164.732353
 C22     -C23     -C24     -C25     :  -4.274707
 C22     -C23     -C24     -H52     : 177.894943
 C23     -C22     -C17     -C26     :   5.187907
 C23     -C24     -C25     -C26     :   1.431251
 C23     -C24     -C25     -H53     :-175.969829
 C24     -C23     -C22     -H50     :-178.818884
 C24     -C25     -C26     -C27     :-168.847479
 C25     -C24     -C23     -H51     : 176.628706
 C25     -C26     -C27     -C28     :  78.978297
 C25     -C26     -C27     -C32     : -91.915759
 C26     -C17     -C22     -H50     :-175.041697
 C26     -C25     -C24     -H52     : 179.281292
 C26     -C27     -C28     -C29     :-175.914414
 C26     -C27     -C28     -C35     :   0.939794
 C26     -C27     -C32     -C31     : 176.192814
 C26     -C27     -C32     -C33     :   1.014125
 C27     -C26     -C25     -H53     :   8.604428
 C27     -C28     -C29     -C30     :   0.183632
 C27     -C28     -C29     -H54     :-177.685208
 C27     -C28     -C35     -C36     : 139.952085
 C27     -C28     -C35     -C39     : -96.603289
 C27     -C28     -C35     -H60     :  21.010825
 C27     -C32     -C31     -C30     :  -1.707070
 C27     -C32     -C31     -H55     : 176.807429
 C27     -C32     -C33     -C34     :  88.760506
 C27     -C32     -C33     -C38     :-147.067892
 C27     -C32     -C33     -H56     : -27.923640
 C28     -C27     -C32     -C31     :   5.462025
 C28     -C27     -C32     -C33     :-169.716664
 C28     -C29     -C30     -C31     :   3.524270
 C28     -C29     -C30     -C37     :-174.807659
 C28     -C35     -C36     -H61     :  69.540809
 C28     -C35     -C36     -H62     :-171.905979
 C28     -C35     -C36     -H63     : -51.484648
 C28     -C35     -C39     -H68     : -60.781100
 C28     -C35     -C39     -H69     : 179.967050
 C28     -C35     -C39     -H70     :  59.410583
 C29     -C28     -C27     -C32     :  -4.731826
 C29     -C28     -C35     -C36     : -43.180339
 C29     -C28     -C35     -C39     :  80.264287
 C29     -C28     -C35     -H60     :-162.121598
 C29     -C30     -C31     -C32     :  -2.756369
 C29     -C30     -C31     -H55     : 178.722196
 C29     -C30     -C37     -C40     :  65.622100
 C29     -C30     -C37     -C41     : -59.729306
 C29     -C30     -C37     -H64     :-177.558553
 C30     -C29     -C28     -C35     :-176.797561
 C30     -C31     -C32     -C33     : 173.594331
 C30     -C37     -C40     -H71     : -66.423954
 C30     -C37     -C40     -H72     : 173.906791
 C30     -C37     -C40     -H73     :  52.606652
 C30     -C37     -C41     -H74     :  62.826165
 C30     -C37     -C41     -H75     : -57.313194
 C30     -C37     -C41     -H76     :-177.812649
 C31     -C30     -C29     -H54     :-178.618321
 C31     -C30     -C37     -C40     :-112.661377
 C31     -C30     -C37     -C41     : 121.987217
 C31     -C30     -C37     -H64     :   4.157970
 C31     -C32     -C33     -C34     : -86.407446
 C31     -C32     -C33     -C38     :  37.764157
 C31     -C32     -C33     -H56     : 156.908408
 C32     -C27     -C28     -C35     : 172.122382
 C32     -C31     -C30     -C37     : 175.595014
 C32     -C33     -C34     -H57     :  61.208828
 C32     -C33     -C34     -H58     : -59.019453
 C32     -C33     -C34     -H59     :-179.402937
 C32     -C33     -C38     -H65     : -68.972886
 C32     -C33     -C38     -H66     : 172.673467
 C32     -C33     -C38     -H67     :  53.083269
 C33     -C32     -C31     -H55     :  -7.891170
 C34     -C33     -C38     -H65     :  55.374850
 C34     -C33     -C38     -H66     : -62.978797
 C34     -C33     -C38     -H67     : 177.431004
 C35     -C28     -C29     -H54     :   5.333599
 C36     -C35     -C39     -H68     :  65.533300
 C36     -C35     -C39     -H69     : -53.718550
 C36     -C35     -C39     -H70     :-174.275017
 C37     -C30     -C29     -H54     :   3.049750
 C37     -C30     -C31     -H55     :  -2.926422
 C38     -C33     -C34     -H57     : -65.429060
 C38     -C33     -C34     -H58     : 174.342659
 C38     -C33     -C34     -H59     :  53.959175
 C39     -C35     -C36     -H61     : -54.688409
 C39     -C35     -C36     -H62     :  63.864803
 C39     -C35     -C36     -H63     :-175.713866
 C40     -C37     -C41     -H74     : -62.101764
 C40     -C37     -C41     -H75     : 177.758876
 C40     -C37     -C41     -H76     :  57.259421
 C41     -C37     -C40     -H71     :  59.512729
 C41     -C37     -C40     -H72     : -60.156527
 C41     -C37     -C40     -H73     : 178.543335
 H42     -C18     -C15     -C81     :-178.908522
 H43     -C18     -C15     -C81     : -54.062920
 H44     -C19     -C15     -C81     :  63.756901
 H45     -C19     -C15     -C81     :-172.922504
 H46     -C20     -C16     -C77     :  64.593465
 H47     -C20     -C16     -C77     :-173.888260
 H48     -C21     -C16     -C77     : 179.172054
 H49     -C21     -C16     -C77     : -58.296901
 H50     -C22     -C23     -H51     :   0.289786
 H51     -C23     -C24     -H52     :  -1.201644
 H52     -C24     -C25     -H53     :   1.880213
 H56     -C33     -C34     -H57     : 177.852204
 H56     -C33     -C34     -H58     :  57.623923
 H56     -C33     -C34     -H59     : -62.759561
 H56     -C33     -C38     -H65     : 172.002201
 H56     -C33     -C38     -H66     :  53.648554
 H56     -C33     -C38     -H67     : -65.941644
 H60     -C35     -C36     -H61     :-171.097361
 H60     -C35     -C36     -H62     : -52.544149
 H60     -C35     -C36     -H63     :  67.877182
 H60     -C35     -C39     -H68     :-178.462614
 H60     -C35     -C39     -H69     :  62.285537
 H60     -C35     -C39     -H70     : -58.270930
 H64     -C37     -C40     -H71     : 177.129053
 H64     -C37     -C40     -H72     :  57.459798
 H64     -C37     -C40     -H73     : -63.840341
 H64     -C37     -C41     -H74     :-179.709569
 H64     -C37     -C41     -H75     :  60.151072
 H64     -C37     -C41     -H76     : -60.348383
 C77     -C16     -C20     -H87     : -54.334297
 C77     -C16     -C21     -H88     :  60.377970
 C81     -C15     -C18     -H85     :  62.824467
 C81     -C15     -C19     -H86     : -54.715630
 
  nuclear repulsion energy.......    5664.724707521 hartrees
  
  Detected an organometallic with only one TM atom. 
  
  
 
  Will use High-Quality Initial guess for organometallics
       including d-d repulsion (iguess=30)
 
 Non-default options chosen:
   SCF calculation type: DFT(b3pw91-d3)              
   DFT=Becke_3_Parameter/HF+Slater+Becke88+PW91+PW-GGAIIC (B3PW91-D3)
   Geometry will be optimized in redundant internal coordinates
   Solvation energy will be computed using PBF
     -solute cavity energy will not be included
     -surface area terms will not be included
   Vibrational frequencies and related properties will be computed
      from analytic second derivatives
   IR intensities will be computed
   Thermochemical properties will be computed
   Scaling standard convergence criteria by a factor of   5.00
   Solvent: benzene                                                         
   Internal dielectric constant:    1.000
   Continuum dielectric constant:   2.283
   Solvent probe molecule radius:   2.600
  
 Non-default print settings:
     11=  2
  
 Temporary integer options set:
     21= -1  73=  2
  
  atom       vdw   vdw2    cov     mass  grid  daf  charge   basis
  P1        2.147  2.074  1.060   30.974    Y    Y      Y    6-31g*
  Pd2       1.450  1.450  1.280  105.903    Y    Y      Y    lacv3p*
  Br3       2.095  2.095  1.140   78.918    Y    Y      Y    lav3p*
  C4        1.949  1.900  0.770   12.000    Y    Y      Y    6-31g*
  C5        1.949  1.900  0.770   12.000    Y    Y      Y    6-31g*
  C6        1.949  1.900  0.770   12.000    Y    Y      Y    6-31g*
  C7        1.949  1.900  0.770   12.000    Y    Y      Y    6-31g*
  C8        1.949  1.900  0.770   12.000    Y    Y      Y    6-31g*
  C9        1.949  1.900  0.770   12.000    Y    Y      Y    6-31g*
  F10       1.736  1.682  0.720   18.998    Y    Y      Y    6-31g*
  H11       1.597  1.150  0.320    1.008    Y    Y      Y    6-31g*
  H12       1.597  1.150  0.320    1.008    Y    Y      Y    6-31g*
  H13       1.597  1.150  0.320    1.008    Y    Y      Y    6-31g*
  H14       1.597  1.150  0.320    1.008    Y    Y      Y    6-31g*
  C15       1.949  1.900  0.770   12.000    Y    Y      Y    6-31g*
  C16       1.949  1.900  0.770   12.000    Y    Y      Y    6-31g*
  C17       1.949  1.900  0.770   12.000    Y    Y      Y    6-31g*
  C18       1.949  1.900  0.770   12.000    Y    Y      Y    6-31g*
  C19       1.949  1.900  0.770   12.000    Y    Y      Y    6-31g*
  C20       1.949  1.900  0.770   12.000    Y    Y      Y    6-31g*
  C21       1.949  1.900  0.770   12.000    Y    Y      Y    6-31g*
  C22       1.949  1.900  0.770   12.000    Y    Y      Y    6-31g*
  C23       1.949  1.900  0.770   12.000    Y    Y      Y    6-31g*
  C24       1.949  1.900  0.770   12.000    Y    Y      Y    6-31g*
  C25       1.949  1.900  0.770   12.000    Y    Y      Y    6-31g*
  C26       1.949  1.900  0.770   12.000    Y    Y      Y    6-31g*
  C27       1.949  1.900  0.770   12.000    Y    Y      Y    6-31g*
  C28       1.949  1.900  0.770   12.000    Y    Y      Y    6-31g*
  C29       1.949  1.900  0.770   12.000    Y    Y      Y    6-31g*
  C30       1.949  1.900  0.770   12.000    Y    Y      Y    6-31g*
  C31       1.949  1.900  0.770   12.000    Y    Y      Y    6-31g*
  C32       1.949  1.900  0.770   12.000    Y    Y      Y    6-31g*
  C33       1.949  1.900  0.770   12.000    Y    Y      Y    6-31g*
  C34       1.949  1.900  0.770   12.000    Y    Y      Y    6-31g*
  C35       1.949  1.900  0.770   12.000    Y    Y      Y    6-31g*
  C36       1.949  1.900  0.770   12.000    Y    Y      Y    6-31g*
  C37       1.949  1.900  0.770   12.000    Y    Y      Y    6-31g*
  C38       1.949  1.900  0.770   12.000    Y    Y      Y    6-31g*
  C39       1.949  1.900  0.770   12.000    Y    Y      Y    6-31g*
  C40       1.949  1.900  0.770   12.000    Y    Y      Y    6-31g*
  C41       1.949  1.900  0.770   12.000    Y    Y      Y    6-31g*
  H42       1.597  1.150  0.320    1.008    Y    Y      Y    6-31g*
  H43       1.597  1.150  0.320    1.008    Y    Y      Y    6-31g*
  H44       1.597  1.150  0.320    1.008    Y    Y      Y    6-31g*
  H45       1.597  1.150  0.320    1.008    Y    Y      Y    6-31g*
  H46       1.597  1.150  0.320    1.008    Y    Y      Y    6-31g*
  H47       1.597  1.150  0.320    1.008    Y    Y      Y    6-31g*
  H48       1.597  1.150  0.320    1.008    Y    Y      Y    6-31g*
  H49       1.597  1.150  0.320    1.008    Y    Y      Y    6-31g*
  H50       1.597  1.150  0.320    1.008    Y    Y      Y    6-31g*
  H51       1.597  1.150  0.320    1.008    Y    Y      Y    6-31g*
  H52       1.597  1.150  0.320    1.008    Y    Y      Y    6-31g*
  H53       1.597  1.150  0.320    1.008    Y    Y      Y    6-31g*
  H54       1.597  1.150  0.320    1.008    Y    Y      Y    6-31g*
  H55       1.597  1.150  0.320    1.008    Y    Y      Y    6-31g*
  H56       1.597  1.150  0.320    1.008    Y    Y      Y    6-31g*
  H57       1.597  1.150  0.320    1.008    Y    Y      Y    6-31g*
  H58       1.597  1.150  0.320    1.008    Y    Y      Y    6-31g*
  H59       1.597  1.150  0.320    1.008    Y    Y      Y    6-31g*
  H60       1.597  1.150  0.320    1.008    Y    Y      Y    6-31g*
  H61       1.597  1.150  0.320    1.008    Y    Y      Y    6-31g*
  H62       1.597  1.150  0.320    1.008    Y    Y      Y    6-31g*
  H63       1.597  1.150  0.320    1.008    Y    Y      Y    6-31g*
  H64       1.597  1.150  0.320    1.008    Y    Y      Y    6-31g*
  H65       1.597  1.150  0.320    1.008    Y    Y      Y    6-31g*
  H66       1.597  1.150  0.320    1.008    Y    Y      Y    6-31g*
  H67       1.597  1.150  0.320    1.008    Y    Y      Y    6-31g*
  H68       1.597  1.150  0.320    1.008    Y    Y      Y    6-31g*
  H69       1.597  1.150  0.320    1.008    Y    Y      Y    6-31g*
  H70       1.597  1.150  0.320    1.008    Y    Y      Y    6-31g*
  H71       1.597  1.150  0.320    1.008    Y    Y      Y    6-31g*
  H72       1.597  1.150  0.320    1.008    Y    Y      Y    6-31g*
  H73       1.597  1.150  0.320    1.008    Y    Y      Y    6-31g*
  H74       1.597  1.150  0.320    1.008    Y    Y      Y    6-31g*
  H75       1.597  1.150  0.320    1.008    Y    Y      Y    6-31g*
  H76       1.597  1.150  0.320    1.008    Y    Y      Y    6-31g*
  C77       1.949  1.900  0.770   12.000    Y    Y      Y    6-31g*
  H78       1.597  1.150  0.320    1.008    Y    Y      Y    6-31g*
  H79       1.597  1.150  0.320    1.008    Y    Y      Y    6-31g*
  H80       1.597  1.150  0.320    1.008    Y    Y      Y    6-31g*
  C81       1.949  1.900  0.770   12.000    Y    Y      Y    6-31g*
  H82       1.597  1.150  0.320    1.008    Y    Y      Y    6-31g*
  H83       1.597  1.150  0.320    1.008    Y    Y      Y    6-31g*
  H84       1.597  1.150  0.320    1.008    Y    Y      Y    6-31g*
  H85       1.597  1.150  0.320    1.008    Y    Y      Y    6-31g*
  H86       1.597  1.150  0.320    1.008    Y    Y      Y    6-31g*
  H87       1.597  1.150  0.320    1.008    Y    Y      Y    6-31g*
  H88       1.597  1.150  0.320    1.008    Y    Y      Y    6-31g*
 
  atom      formal  2spin      esp    mulk    frag
  P1           0       0        Y    0.000       0
  Pd2          0       0        Y    0.000       0
  Br3          0       0        Y    0.000       0
  
  end of program pre
   
 Time(pre)  user:        2.1  user+sys:        2.1  wallclock:        2.3
  
  start of program onee
  
  smallest eigenvalue of S:    2.984E-04
  number of canonical orbitals.....          657
  end of program onee
   
 Time(onee)  user:        3.1  user+sys:        3.1  wallclock:        3.1
  
  start of program hfig
  
  initial wavefunction generated automatically from atomic wavefunctions
  Only one possible d-orb occupation 
  Skip d-d repulsion considerations 
 
  Irreducible     Total no   No of occupied orbitals 
  representation  orbitals   Shell_1  Shell_2    ...
  No Symm          657        154
  ------------------------
  Orbital occupation/shell    1.000
 
  end of program hfig
   
 Time(hfig)  user:        0.6  user+sys:        0.6  wallclock:        0.7
  
  start of program probe
  
  end of program probe
   
 Time(probe)  user:        0.3  user+sys:        0.3  wallclock:        0.3
  
  start of program grid
  
   grid     grid set  grid #  grid sym
  ------    --------  ------  --------
  coarse        0        0        1
  medium        2        1        1
  fine          0        0        1
  ultrafine     4        2        1
  charge       -1        3        1
  gradient      4        2        1
  density       0        0        1
  DFT-fine    -11        4        1
  DFT-med.    -10        5        1
  DFT-grad    -12        6        1
  DFT-der2     -8        7        1
  DFT-cphf     -9        8        1
  LMP2-enrg     4        2        1
  LMP2-grad     2        1        1
  DFT-cphf2   -15        9        1
  PBF-dens      0        0        1
  plotting      0        0        1
  Rel-grad    -17        0        1
  
  number of gridpoints: 
     atom        P1      Pd2      Br3       C4       C5       C6       C7
  grid # 1      619      370      515       79       91       95       93
  grid # 2      439      337      485      329      323      323      392
  grid # 3        8      290      457        9       12       24       40
  grid # 4     8714     8714     8714     8714     8714     8714     8714
  grid # 5     1192     1192     1192     1192     1192     1192     1192
  grid # 6     9132     9132     9132     5922     5922     5922     5922
  grid # 7    23034    32968    11582    13950    13950    13950    13950
  grid # 8      722     1150      694      748      748      748      748
  grid # 9      366     2198      358      394      394      394      394
   
  number of gridpoints: 
     atom        C8       C9      F10      H11      H12      H13      H14
  grid # 1       93       91      544      113      117      105       79
  grid # 2      305      308      508      461      467      439      345
  grid # 3       27       17       26      300      354      224       18
  grid # 4     8714     8714     8714     8714     8714     8714     8714
  grid # 5     1192     1192     1192     1192     1192     1192     1192
  grid # 6     5922     5922     5922     5922     5922     5922     5922
  grid # 7    13950    13950    23190    15206    15206    15206    15206
  grid # 8      748      748      770      786      786      786      786
  grid # 9      394      394      420      420      420      420      420
   
  number of gridpoints: 
     atom       C15      C16      C17      C18      C19      C20      C21
  grid # 1       87       90       92       81       81       80       81
  grid # 2      372      371      388      237      241      238      240
  grid # 3        6        6        8        6        6        6        6
  grid # 4     8714     8714     8714     8714     8714     8714     8714
  grid # 5     1192     1192     1192     1192     1192     1192     1192
  grid # 6     5922     5922     5922     5922     5922     5922     5922
  grid # 7    13950    13950    13950    13950    13950    13950    13950
  grid # 8      748      748      748      748      748      748      748
  grid # 9      394      394      394      394      394      394      394
   
  number of gridpoints: 
     atom       C22      C23      C24      C25      C26      C27      C28
  grid # 1       93       95       96       94      100       98       97
  grid # 2      323      324      322      324      353      357      361
  grid # 3       11       27       31       13        8        7       11
  grid # 4     8714     8714     8714     8714     8714     8714     8714
  grid # 5     1192     1192     1192     1192     1192     1192     1192
  grid # 6     5922     5922     5922     5922     5922     5922     5922
  grid # 7    13950    13950    13950    13950    13950    13950    13950
  grid # 8      748      748      748      748      748      748      748
  grid # 9      394      394      394      394      394      394      394
   
  number of gridpoints: 
     atom       C29      C30      C31      C32      C33      C34      C35
  grid # 1       93       93       89       97       92       81       91
  grid # 2      322      340      309      353      309      241      306
  grid # 3       18       16       16       12        6        6        6
  grid # 4     8714     8714     8714     8714     8714     8714     8714
  grid # 5     1192     1192     1192     1192     1192     1192     1192
  grid # 6     5922     5922     5922     5922     5922     5922     5922
  grid # 7    13950    13950    13950    13950    13950    13950    13950
  grid # 8      748      748      748      748      748      748      748
  grid # 9      394      394      394      394      394      394      394
   
  number of gridpoints: 
     atom       C36      C37      C38      C39      C40      C41      H42
  grid # 1       81       90       80       82       82       79      100
  grid # 2      239      305      243      239      239      247      421
  grid # 3        6        6        6        6        6        6      150
  grid # 4     8714     8714     8714     8714     8714     8714     8714
  grid # 5     1192     1192     1192     1192     1192     1192     1192
  grid # 6     5922     5922     5922     5922     5922     5922     5922
  grid # 7    13950    13950    13950    13950    13950    13950    15206
  grid # 8      748      748      748      748      748      748      786
  grid # 9      394      394      394      394      394      394      420
   
  number of gridpoints: 
     atom       H43      H44      H45      H46      H47      H48      H49
  grid # 1      104      104      101      106      106      104      105
  grid # 2      428      443      425      440      447      438      437
  grid # 3      179      174      157      179      185      121      177
  grid # 4     8714     8714     8714     8714     8714     8714     8714
  grid # 5     1192     1192     1192     1192     1192     1192     1192
  grid # 6     5922     5922     5922     5922     5922     5922     5922
  grid # 7    15206    15206    15206    15206    15206    15206    15206
  grid # 8      786      786      786      786      786      786      786
  grid # 9      420      420      420      420      420      420      420
   
  number of gridpoints: 
     atom       H50      H51      H52      H53      H54      H55      H56
  grid # 1      101      117      117      107      104       93      100
  grid # 2      415      469      468      436      428      386      414
  grid # 3       66      406      411      146       87      119       37
  grid # 4     8714     8714     8714     8714     8714     8714     8714
  grid # 5     1192     1192     1192     1192     1192     1192     1192
  grid # 6     5922     5922     5922     5922     5922     5922     5922
  grid # 7    15206    15206    15206    15206    15206    15206    15206
  grid # 8      786      786      786      786      786      786      786
  grid # 9      420      420      420      420      420      420      420
   
  number of gridpoints: 
     atom       H57      H58      H59      H60      H61      H62      H63
  grid # 1      110      106      110      105      106      108      108
  grid # 2      453      441      451      427      442      450      448
  grid # 3      288      191      309      107      230      307      230
  grid # 4     8714     8714     8714     8714     8714     8714     8714
  grid # 5     1192     1192     1192     1192     1192     1192     1192
  grid # 6     5922     5922     5922     5922     5922     5922     5922
  grid # 7    15206    15206    15206    15206    15206    15206    15206
  grid # 8      786      786      786      786      786      786      786
  grid # 9      420      420      420      420      420      420      420
   
  number of gridpoints: 
     atom       H64      H65      H66      H67      H68      H69      H70
  grid # 1      110      104      109       92      108      110      107
  grid # 2      444      425      445      390      451      452      439
  grid # 3      217      185      248       30      265      319      188
  grid # 4     8714     8714     8714     8714     8714     8714     8714
  grid # 5     1192     1192     1192     1192     1192     1192     1192
  grid # 6     5922     5922     5922     5922     5922     5922     5922
  grid # 7    15206    15206    15206    15206    15206    15206    15206
  grid # 8      786      786      786      786      786      786      786
  grid # 9      420      420      420      420      420      420      420
   
  number of gridpoints: 
     atom       H71      H72      H73      H74      H75      H76      C77
  grid # 1      107      109       98      108      111      109       82
  grid # 2      447      455      429      446      460      457      239
  grid # 3      242      328      172      243      347      325        6
  grid # 4     8714     8714     8714     8714     8714     8714     8714
  grid # 5     1192     1192     1192     1192     1192     1192     1192
  grid # 6     5922     5922     5922     5922     5922     5922     5922
  grid # 7    15206    15206    15206    15206    15206    15206    13950
  grid # 8      786      786      786      786      786      786      748
  grid # 9      420      420      420      420      420      420      394
   
  number of gridpoints: 
     atom       H78      H79      H80      C81      H82      H83      H84
  grid # 1      108       99      100       79      108      103      101
  grid # 2      445      425      425      241      446      424      431
  grid # 3      257      167      152        6      260      143      101
  grid # 4     8714     8714     8714     8714     8714     8714     8714
  grid # 5     1192     1192     1192     1192     1192     1192     1192
  grid # 6     5922     5922     5922     5922     5922     5922     5922
  grid # 7    15206    15206    15206    13950    15206    15206    15206
  grid # 8      786      786      786      748      786      786      786
  grid # 9      420      420      420      394      420      420      420
   
  number of gridpoints: 
     atom       H85      H86      H87      H88    total
  grid # 1      109      109      109      108    10318
  grid # 2      445      447      447      447    33813
  grid # 3      257      270      270      268    11596
  grid # 4     8714     8714     8714     8714   766832
  grid # 5     1192     1192     1192     1192   104896
  grid # 6     5922     5922     5922     5922   530766
  grid # 7    15206    15206    15206    15206  1324118
  grid # 8      786      786      786      786    68030
  grid # 9      420      420      420      420    37712
   
  end of program grid
   
 Time(grid)  user:      269.1  user+sys:      269.1  wallclock:      269.8
  
  start of program rwr
  
  end of program rwr
   
 Time(rwr)  user:       10.7  user+sys:       10.7  wallclock:       12.3
  
  start of program scf
  
 number of electrons..........        308
 number of alpha electrons....        154
 number of beta electrons.....        154
 number of orbitals, total....        657
 number of doubly-occ'd orbs..        154
 number of open shell orbs....          0
 number of occupied orbitals..        154
 number of virtual orbitals...        503
 number of hamiltonians.......          1
 number of shells.............          1
 SCF type: DFT=Becke_3_Parameter/HF+Slater+Becke88+PW91+PW-GGAIIC (B3PW91-D3)
 Energy computed with NOPS off.
 Convergence Criterion:
    Energy (econv):       1.00E-05
    RMS density (dconv):  5.00E-06
  
       i  u  d  i  g                   
       t  p  i  c  r                                 RMS    maximum
       e  d  i  u  i                       energy  density   DIIS  
       r  t  s  t  d       total energy    change  change    error 
  
etot    1  N  N  5  M   -1938.99050731749           2.1E-03  2.0E-01
etot    2  Y  Y  6  M   -1942.25057722440  3.3E+00  2.9E-03  1.2E-01
etot    3  Y  Y  6  M   -1942.83664398067  5.9E-01  1.6E-03  5.4E-02
etot    4  N  Y  2  U   -1943.44177481349  6.1E-01  9.5E-04  3.4E-02
etot    5  Y  Y  6  M   -1943.56188363450  1.2E-01  5.4E-04  1.9E-02
etot    6  N  Y  2  U   -1943.57103995330  9.2E-03  3.7E-04  8.6E-03
etot    7  Y  Y  6  M   -1943.57348407844  2.4E-03  1.2E-04  2.6E-03
etot    8  Y  Y  6  M   -1943.57715707393  3.7E-03  2.4E-05  7.3E-04
etot    9  N  Y  2  U   -1943.57817174108  1.0E-03  7.5E-06  2.0E-04
etot   10  N  Y  2  U   -1943.57817839987  6.7E-06  3.4E-06  8.4E-05
etot   11  N  N  2  U   -1943.57818049215  2.1E-06  0.0E+00  0.0E+00
 
  Computing the dispersion energy correction and its gradients...
  
  
 Energy components, in hartrees:
   (A)  Nuclear repulsion............    5664.72470752072
   (E)  Total one-electron terms.....  -13988.25239068222
   (F)    Electron-nuclear...........  -15832.35711312171
   (H)    Kinetic....................    1844.10472243949
   (I)  Total two-electron terms.....    6379.94950266935
   (J)    Coulomb....................    6636.93288874208
   (K)    Exchange+Correlation.......    -256.98338607273
   (L)  Electronic energy............   -7608.30288801286  (E+I)
   (N0) D3 correction................      -0.16664664224
   (N)  Total energy.................   -1943.74482713439  (A+L+N0)
   (O)  Gas phase energy.............   -1943.74482713439
  
 SCFE: SCF energy: DFT(b3pw91-d3)     -1943.74482713439 hartrees   iterations:  11
  
 
 HOMO energy:    -0.18496
 LUMO energy:    -0.04072
 
  Orbital energies (hartrees): 
   -77.07040   -24.68515   -10.26427   -10.22684   -10.20542   -10.20213
   -10.19868   -10.19714   -10.19359   -10.19188   -10.18408   -10.18363
   -10.18236   -10.18148   -10.17854   -10.17659   -10.17465   -10.17335
   -10.17291   -10.17108   -10.16995   -10.16931   -10.16907   -10.16235
   -10.16201   -10.16133   -10.16132   -10.16015   -10.15805   -10.15785
   -10.15472   -10.15139   -10.15114   -10.14987   -10.14953   -10.14844
   -10.13490    -6.56847    -4.72673    -4.72619    -4.72299    -3.27751
    -2.01630    -1.99606    -1.99020    -1.23176    -0.88648    -0.87259
    -0.85747    -0.82241    -0.82021    -0.80899    -0.80703    -0.79447
    -0.78256    -0.76807    -0.76385    -0.75402    -0.73755    -0.71818
    -0.70725    -0.69467    -0.69105    -0.68624    -0.68322    -0.68162
    -0.67858    -0.67412    -0.64920    -0.64683    -0.62699    -0.62141
    -0.61063    -0.60069    -0.58799    -0.58496    -0.56802    -0.54884
    -0.54573    -0.53698    -0.53054    -0.51760    -0.50413    -0.49534
    -0.48964    -0.47728    -0.47199    -0.46512    -0.46434    -0.45956
    -0.45713    -0.45298    -0.45186    -0.44732    -0.44323    -0.44056
    -0.43714    -0.43246    -0.43000    -0.42891    -0.42510    -0.41741
    -0.41282    -0.40933    -0.40410    -0.40063    -0.39738    -0.39382
    -0.39248    -0.39076    -0.38550    -0.38401    -0.38070    -0.37774
    -0.37667    -0.37557    -0.37403    -0.37160    -0.36979    -0.36768
    -0.36451    -0.36238    -0.35601    -0.35004    -0.34637    -0.34275
    -0.33849    -0.33640    -0.33514    -0.33308    -0.33190    -0.32997
    -0.32881    -0.32639    -0.31974    -0.31722    -0.31093    -0.30548
    -0.29975    -0.29633    -0.28923    -0.28536    -0.28228    -0.26704
    -0.25342    -0.25010    -0.24622    -0.22330    -0.22097    -0.21181
    -0.20628    -0.19889    -0.19181    -0.18496    -0.04072    -0.02905
    -0.02383    -0.01457    -0.00379     0.00964     0.01569     0.02147
     0.03209     0.05050
 
FATAL MAE_GET_COORDS(): TOO MANY ATOMS IN CT BLOCK
  end of program scf
   
 Time(scf)  user:      287.0  user+sys:      287.0  wallclock:      291.2
  
  start of program der1a
  
  end of program der1a
   
 Time(der1a)  user:       10.6  user+sys:       10.6  wallclock:       10.7
  
  start of program rwr
  
  end of program rwr
   
 Time(rwr)  user:       12.3  user+sys:       12.3  wallclock:       13.7
  
  start of program der1b
  
   
  forces (hartrees/bohr) : total     
   
 atom  label           x              y              z
 ---- --------   -------------  -------------  -------------
    1 P1         -1.775880E-03   4.464097E-03  -1.215293E-02
    2 Pd2         3.788746E-05   1.873984E-04  -1.580532E-02
    3 Br3        -1.240038E-03   1.555084E-04   4.674634E-05
    4 C4          9.015333E-03  -3.840692E-03   1.724286E-02
    5 C5          1.369844E-03  -4.650297E-04   5.117095E-03
    6 C6         -5.464395E-03  -1.690619E-03  -1.446491E-03
    7 C7          4.077243E-03   5.469366E-03   1.181777E-03
    8 C8         -4.505654E-03  -3.885369E-02   4.237597E-02
    9 C9          3.966486E-03  -5.934418E-02   4.422232E-02
   10 F10         2.914168E-02  -1.089218E-01   6.239047E-03
   11 H11         5.094396E-04   9.116108E-05  -1.331425E-03
   12 H12         2.971340E-04   5.749256E-04  -8.184220E-04
   13 H13        -1.164150E-04  -6.845820E-03   1.114528E-02
   14 H14         4.338875E-02  -6.875449E-02   2.306897E-02
   15 C15        -4.350352E-03  -6.050316E-04  -2.281691E-03
   16 C16         3.597939E-03   3.136690E-03  -2.147302E-03
   17 C17        -6.325778E-04   1.445242E-03  -4.850789E-03
   18 C18         2.834568E-03  -2.074175E-04  -2.961964E-04
   19 C19         1.321618E-03   4.094547E-03  -2.171964E-04
   20 C20        -1.430999E-03   1.860303E-04  -3.351751E-03
   21 C21         2.660627E-03  -1.699235E-03   2.061679E-03
   22 C22        -1.469097E-03   3.916569E-03   1.098175E-03
   23 C23         6.166473E-04  -7.052772E-04   5.130247E-03
   24 C24         6.867430E-04  -4.229093E-03   3.662875E-03
   25 C25         5.383365E-04  -3.384420E-03   2.911497E-04
   26 C26         9.529239E-04   5.712083E-04  -6.069158E-03
   27 C27         1.729245E-03   4.214440E-04   5.434763E-03
   28 C28        -8.112533E-04   2.067254E-03   5.543292E-03
   29 C29        -9.460190E-03   1.711437E-02  -1.193640E-02
   30 C30        -1.202938E-02   5.500932E-02  -9.525985E-03
   31 C31        -5.848747E-02   8.136360E-02  -3.366228E-02
   32 C32        -1.542548E-02   1.440079E-02  -1.684368E-02
   33 C33         1.490847E-03   1.030964E-03  -5.864231E-03
   34 C34        -1.145532E-03   1.449396E-03   2.353244E-04
   35 C35         1.853486E-03   1.066201E-03  -2.364066E-03
   36 C36         1.309343E-03   1.034251E-03  -2.410892E-04
   37 C37         1.670228E-03   1.667112E-03  -2.253873E-04
   38 C38         2.342574E-02   1.627007E-02  -3.982609E-02
   39 C39        -6.359556E-04   6.229690E-04   4.443354E-05
   40 C40        -1.242177E-03  -4.370962E-04   6.327828E-03
   41 C41        -1.090718E-03   2.646083E-04  -1.430156E-04
   42 H42         3.213947E-03   5.222695E-03   3.544549E-03
   43 H43         2.118035E-03  -5.360412E-03   2.796369E-03
   44 H44        -1.223178E-03  -7.233599E-04  -3.659733E-03
   45 H45         2.207772E-03   5.329658E-03   4.289651E-03
   46 H46        -5.864882E-03   1.912288E-03  -1.930638E-05
   47 H47         1.684843E-03  -8.589935E-04  -2.877657E-03
   48 H48         3.210523E-04   1.869887E-04  -3.675249E-03
   49 H49         7.898726E-04  -3.248578E-03   6.476400E-03
   50 H50        -1.405599E-03   5.669792E-03   2.874846E-03
   51 H51         4.039194E-04   9.359505E-04   6.429845E-03
   52 H52         1.559405E-03  -5.229958E-03   3.762108E-03
   53 H53         1.575346E-03  -5.251286E-03  -2.387187E-03
   54 H54         6.607581E-03   1.753254E-03  -1.161086E-03
   55 H55        -3.713251E-02   4.458318E-02  -2.710433E-03
   56 H56        -1.767910E-03   3.179596E-03   5.731424E-03
   57 H57         1.230793E-03  -4.222855E-03  -4.219971E-03
   58 H58         3.638016E-03  -1.708915E-03   5.063288E-03
   59 H59        -5.692443E-03  -2.266497E-03   2.199782E-03
   60 H60        -1.949224E-03   2.528042E-03   3.945264E-03
   61 H61         3.986722E-03  -3.418428E-03  -4.065957E-03
   62 H62         4.703450E-03   1.294568E-03   4.965299E-03
   63 H63        -2.752253E-03   2.418552E-03  -1.471067E-03
   64 H64        -4.802375E-03  -1.951133E-03  -2.081580E-03
   65 H65         3.163342E-03  -2.543498E-03  -2.346560E-03
   66 H66        -4.946012E-03   5.172668E-03  -9.653011E-04
   67 H67         1.981480E-02   3.664889E-02  -5.246776E-02
   68 H68         2.819029E-03  -3.452622E-03  -4.135620E-03
   69 H69         4.966943E-03   1.385932E-03   3.818212E-03
   70 H70        -3.616339E-03  -4.428141E-03   3.401513E-03
   71 H71         5.104345E-03   2.360706E-03   1.735579E-03
   72 H72         5.125209E-04  -4.841473E-04  -6.989270E-03
   73 H73        -8.538616E-03   7.538192E-03   8.283953E-03
   74 H74         5.584162E-03   1.374172E-03   2.375082E-03
   75 H75        -1.101725E-03  -6.221476E-03   2.457773E-03
   76 H76         1.637774E-03  -1.484640E-03  -6.135675E-03
   77 C77        -1.932655E-03  -1.768855E-03  -3.184304E-04
   78 H78         4.061180E-03   4.584584E-03   2.655076E-04
   79 H79         7.006954E-04  -3.822904E-03   5.816202E-03
   80 H80        -5.989747E-03   2.324452E-03   3.939176E-04
   81 C81         7.356217E-04  -3.931109E-03  -5.119724E-04
   82 H82        -5.962725E-03   7.373840E-04   3.079070E-03
   83 H83         2.194721E-03  -5.059892E-03   4.325200E-03
   84 H84        -1.085298E-03   1.329113E-03  -2.295644E-03
   85 H85        -6.034422E-03   2.501569E-04   3.924988E-04
   86 H86        -6.001796E-03  -1.129590E-03   2.363927E-03
   87 H87         3.185669E-03   4.812536E-03   3.191489E-03
   88 H88         2.413043E-03   5.941025E-03   2.207484E-03
 -------------   -------------  -------------  -------------
     total       -1.686562E-03  -1.001748E-03   7.597010E-04
   
  end of program der1b
   
 Time(der1b)  user:      114.2  user+sys:      114.2  wallclock:      114.7
  
  start of program geopt
  
 ----------------------------------------------------------------------------
  Geometry optimization step   1
  Total energy:     -1943.74482713439 hartrees
 ----------------------------------------------------------------------------
  
  
  Level shifts adjusted to satisfy step-size constraints
   Step size:    0.3007507
   Cos(theta):   0.4201733
   Final level shift:  -4.5325590E-01
  
  gradient maximum:        1.6145E+00 .  (  2.2500E-03 )
  gradient rms:            1.9070E-01 .  (  1.5000E-03 )
  displacement maximum:    1.2088E-01 .  (  9.0000E-03 )
  displacement rms:        1.7655E-02 .  (  6.0000E-03 )
  
  predicted energy change:  -2.2566E-01
  step size:     0.30065
  trust radius:  0.30000
  
  molecular structure not yet converged...
  
  center of mass moved by:
     x:     3.1068E-02     y:    -2.1082E-01     z:    -2.0954E-02
  
  new geometry: 
                                   angstroms
  atom               x                 y                 z
  P1           -0.0120878677      0.1006365415      0.0041326965 
  Pd2          -0.0125645137     -0.1044679771      2.3199147822 
  Br3           3.9210814453     -0.4040403964      5.3084453820 
  C4           -0.4273260649      1.0369397936      4.1628249736 
  C5           -0.2266796588     -0.3436799879      4.4343959299 
  C6            1.0953866118     -0.7600002465      4.7638138108 
  C7            2.1036613532      0.1906449954      4.8789429443 
  C8            1.8769597983      1.5541132113      4.6571793029 
  C9            0.6037977486      1.9655708808      4.3032821892 
  F10          -1.6729666445      1.5943546670      4.1144991070 
  H11          -1.0773658931     -1.0001286075      4.6099136174 
  H12           1.2886015951     -1.8075859760      4.9705578001 
  H13           2.6910409140      2.2593158939      4.7733397737 
  H14           0.3042678708      2.9897702703      4.1404626366 
  C15           1.7994961408      0.1156958572     -0.7474025406 
  C16          -1.0594478518     -1.3798070921     -0.7515564782 
  C17          -0.7716749981      1.6334768488     -0.8009624267 
  C18           1.9785892458      0.3052732816     -2.2700937720 
  C19           2.4657644174     -1.2075389177     -0.3195130405 
  C20          -0.8658816222     -2.5563443673      0.2308890626 
  C21          -2.5419270239     -0.9589279232     -0.7632706871 
  C22          -0.8619832408      1.5479809914     -2.2085876251 
  C23          -1.2279418128      2.6097496272     -3.0315782120 
  C24          -1.5145478292      3.8390719805     -2.4482327201 
  C25          -1.5021078664      3.9332691559     -1.0604883082 
  C26          -1.1836844744      2.8598393603     -0.1982994929 
  C27          -1.5009961051      3.1758308743      1.2404691179 
  C28          -2.8415903504      3.0085939406      1.6818907464 
  C29          -3.1753831377      3.4003601100      2.9808558576 
  C30          -2.2302179989      3.9353110661      3.8587306097 
  C31          -0.9475981116      4.1766442714      3.3645741618 
  C32          -0.5633400834      3.8270462924      2.0685834921 
  C33           0.8168801107      4.2094014590      1.5411881880 
  C34           0.7462745396      5.5992789513      0.8730867613 
  C35          -3.9414277415      2.4800328631      0.7579631483 
  C36          -4.8958015496      1.4859691135      1.4450955309 
  C37          -2.5899515124      4.3215434531      5.2927893563 
  C38           1.9401772485      4.2235423837      2.5968793704 
  C39          -4.7571138814      3.6481968126      0.1634066062 
  C40          -2.9963957080      3.1171375934      6.1688558415 
  C41          -3.6812600941      5.4050349621      5.3408940547 
  H42           1.4889319657     -0.4591217603     -2.8831412163 
  H43           1.6484698824      1.2971218616     -2.6065168207 
  H44           2.3921794444     -1.3642726573      0.7664177983 
  H45           2.0397489006     -2.0765024769     -0.8417270973 
  H46           0.1887061937     -2.8617950985      0.3032981582 
  H47          -1.2201564222     -2.3002565956      1.2394661160 
  H48          -2.8653925628     -0.6063593255      0.2263737984 
  H49          -2.7412431518     -0.1719728152     -1.5051541625 
  H50          -0.6475233353      0.5957953363     -2.6868009368 
  H51          -1.2766099334      2.4693514453     -4.1138251231 
  H52          -1.7741503366      4.7072817258     -3.0580821301 
  H53          -1.7894986025      4.8746528294     -0.5885354855 
  H54          -4.1973825997      3.2424200726      3.3318601934 
  H55          -0.2382498442      4.6655850427      4.0238698090 
  H56           1.0778159229      3.4883648892      0.7547864087 
  H57           0.4383454171      6.3634324578      1.6058670332 
  H58           0.0257133364      5.6175153044      0.0419880752 
  H59           1.7343709587      5.8859351396      0.4757445872 
  H60          -3.4569952500      1.9394988145     -0.0702600989 
  H61          -5.5353433066      1.9803014462      2.1943969132 
  H62          -5.5666280785      1.0340170492      0.6960901520 
  H63          -4.3344668007      0.6848466723      1.9462787486 
  H64          -1.6803330052      4.7560498292      5.7458574962 
  H65           1.8359534206      5.0736213121      3.2940779635 
  H66           2.9120894687      4.3485915296      2.0880537257 
  H67           1.9562415185      3.3088689182      3.2221040502 
  H68          -5.2397123684      4.2258090923      0.9690465950 
  H69          -5.5494058540      3.2682234159     -0.5037035528 
  H70          -4.1277583677      4.3380376228     -0.4162173455 
  H71          -3.9303069559      2.6630639712      5.7996821926 
  H72          -3.1654803260      3.4372414568      7.2106862921 
  H73          -2.2233250923      2.3399469555      6.1633278221 
  H74          -4.6225256892      5.0405125397      4.8987098434 
  H75          -3.3762729391      6.3055953791      4.7854200444 
  H76          -3.8947511337      5.6965812871      6.3826224836 
  C77          -0.6843872835     -1.8877366908     -2.1586695348 
  H78          -1.3549640287     -2.7332153173     -2.3954302881 
  H79          -0.8338029592     -1.1412118121     -2.9517341601 
  H80           0.3437058252     -2.2674707883     -2.2207962078 
  C81           2.5252972646      1.2929426636     -0.0689923685 
  H82           3.5854879428      1.2817212395     -0.3797340924 
  H83           2.0976297714      2.2541461423     -0.3926207311 
  H84           2.4886849353      1.2224670062      1.0260324370 
  H85           3.0614642356      0.2398693761     -2.4798563190 
  H86           3.5385435257     -1.1630061643     -0.5789123592 
  H87          -1.4444352515     -3.4244228740     -0.1334921852 
  H88          -3.1553732201     -1.8385520031     -1.0282522720 
   
 
  bond lengths (angstroms):
 
 P1      -Pd2     :   2.324847      P1      -C15     :   1.961344
 P1      -C16     :   1.964623      P1      -C17     :   1.890701
 Pd2     -C4      :   2.207070      Pd2     -C5      :   2.138714
 Br3     -C7      :   1.959882      C4      -C5      :   1.421310
 C4      -C9      :   1.394740      C4      -F10     :   1.365528
 C5      -C6      :   1.424675      C5      -H11     :   1.088760
 C6      -C7      :   1.390539      C6      -H12     :   1.085132
 C7      -C8      :   1.399864      C8      -C9      :   1.384009
 C8      -H13     :   1.083297      C9      -H14     :   1.079450
 C15     -C18     :   1.544863      C15     -C19     :   1.542061
 C15     -C81     :   1.540434      C16     -C20     :   1.544962
 C16     -C21     :   1.541110      C16     -C77     :   1.542281
 C17     -C22     :   1.413108      C17     -C26     :   1.427207
 C18     -H42     :   1.095395      C18     -H43     :   1.098145
 C18     -H85     :   1.104942      C19     -H44     :   1.099648
 C19     -H45     :   1.099679      C19     -H86     :   1.104593
 C20     -H46     :   1.100318      C20     -H47     :   1.099236
 C20     -H87     :   1.105015      C21     -H48     :   1.099241
 C21     -H49     :   1.099735      C21     -H88     :   1.104658
 C22     -C23     :   1.392333      C22     -H50     :   1.086894
 C23     -C24     :   1.390564      C23     -H51     :   1.092400
 C24     -C25     :   1.390993      C24     -H52     :   1.092290
 C25     -C26     :   1.413158      C25     -H53     :   1.091575
 C26     -C27     :   1.506849      C27     -C28     :   1.421272
 C27     -C32     :   1.410338      C28     -C29     :   1.397215
 C28     -C35     :   1.530575      C29     -C30     :   1.396486
 C29     -H54     :   1.092077      C30     -C31     :   1.395545
 C30     -C37     :   1.528106      C31     -C32     :   1.396232
 C31     -H55     :   1.084854      C32     -C33     :   1.526221
 C33     -C34     :   1.543731      C33     -C38     :   1.541584
 C33     -H56     :   1.098367      C34     -H57     :   1.102596
 C34     -H58     :   1.100121      C34     -H59     :   1.102899
 C35     -C36     :   1.539852      C35     -C39     :   1.543842
 C35     -H60     :   1.101275      C36     -H61     :   1.102194
 C36     -H62     :   1.102396      C36     -H63     :   1.099126
 C37     -C40     :   1.543788      C37     -C41     :   1.538578
 C37     -H64     :   1.105202      C38     -H65     :   1.104347
 C38     -H66     :   1.104153      C38     -H67     :   1.108058
 C39     -H68     :   1.102539      C39     -H69     :   1.103242
 C39     -H70     :   1.099060      C40     -H71     :   1.102117
 C40     -H72     :   1.102936      C40     -H73     :   1.096218
 C41     -H74     :   1.101991      C41     -H75     :   1.101171
 C41     -H76     :   1.102622      C77     -H78     :   1.104791
 C77     -H79     :   1.099353      C77     -H80     :   1.097740
 C81     -H82     :   1.104849      C81     -H83     :   1.100703
 C81     -H84     :   1.097901
 
  bond angles:
 
 C15     -P1      -Pd2     : 112.491498  C16     -P1      -Pd2     : 108.454953
 C16     -P1      -C15     : 110.536419  C17     -P1      -Pd2     : 119.709329
 C17     -P1      -C15     : 101.635568  C17     -P1      -C16     : 103.471206
 C4      -Pd2     -P1      : 141.828139  C5      -Pd2     -P1      : 174.099768
 C5      -Pd2     -C4      :  38.139235  C5      -C4      -Pd2     :  68.325155
 C9      -C4      -Pd2     : 106.827278  C9      -C4      -C5      : 121.543132
 F10     -C4      -Pd2     : 110.669786  F10     -C4      -C5      : 122.144497
 F10     -C4      -C9      : 113.964159  C4      -C5      -Pd2     :  73.535610
 C6      -C5      -Pd2     :  99.693893  C6      -C5      -C4      : 117.325062
 H11     -C5      -Pd2     : 107.760680  H11     -C5      -C4      : 120.409222
 H11     -C5      -C6      : 120.770230  C7      -C6      -C5      : 119.487880
 H12     -C6      -C5      : 119.432416  H12     -C6      -C7      : 121.005140
 C6      -C7      -Br3     : 118.887658  C8      -C7      -Br3     : 118.713542
 C8      -C7      -C6      : 122.366675  C9      -C8      -C7      : 118.623224
 H13     -C8      -C7      : 119.693938  H13     -C8      -C9      : 121.680641
 C8      -C9      -C4      : 120.523578  H14     -C9      -C4      : 114.292706
 H14     -C9      -C8      : 125.163117  C18     -C15     -P1      : 119.057880
 C19     -C15     -P1      : 106.628309  C19     -C15     -C18     : 109.190438
 C81     -C15     -P1      : 105.801638  C81     -C15     -C18     : 106.599347
 C81     -C15     -C19     : 109.269146  C20     -C16     -P1      : 105.216157
 C21     -C16     -P1      : 108.056577  C21     -C16     -C20     : 109.471075
 C77     -C16     -P1      : 117.999551  C77     -C16     -C20     : 107.391706
 C77     -C16     -C21     : 108.478030  C22     -C17     -P1      : 113.627603
 C26     -C17     -P1      : 129.257359  C26     -C17     -C22     : 117.011409
 H42     -C18     -C15     : 114.467141  H43     -C18     -C15     : 112.206475
 H43     -C18     -H42     : 108.931931  H85     -C18     -C15     : 107.065511
 H85     -C18     -H42     : 106.890004  H85     -C18     -H43     : 106.852911
 H44     -C19     -C15     : 111.555986  H45     -C19     -C15     : 112.266437
 H45     -C19     -H44     : 109.293283  H86     -C19     -C15     : 108.654582
 H86     -C19     -H44     : 107.616437  H86     -C19     -H45     : 107.252341
 H46     -C20     -C16     : 111.921241  H47     -C20     -C16     : 111.448478
 H47     -C20     -H46     : 108.251580  H87     -C20     -C16     : 108.841824
 H87     -C20     -H46     : 107.784160  H87     -C20     -H47     : 108.471291
 H48     -C21     -C16     : 111.334870  H49     -C21     -C16     : 112.018147
 H49     -C21     -H48     : 108.934980  H88     -C21     -C16     : 108.575619
 H88     -C21     -H48     : 107.935602  H88     -C21     -H49     : 107.899163
 C23     -C22     -C17     : 124.018021  H50     -C22     -C17     : 118.598448
 H50     -C22     -C23     : 117.378268  C24     -C23     -C22     : 118.709433
 H51     -C23     -C22     : 119.953315  H51     -C23     -C24     : 121.335011
 C25     -C24     -C23     : 118.460104  H52     -C24     -C23     : 121.161614
 H52     -C24     -C25     : 120.352353  C26     -C25     -C24     : 124.005040
 H53     -C25     -C24     : 119.169624  H53     -C25     -C26     : 116.783342
 C25     -C26     -C17     : 117.394750  C27     -C26     -C17     : 130.103683
 C27     -C26     -C25     : 112.074408  C28     -C27     -C26     : 118.066815
 C32     -C27     -C26     : 121.162845  C32     -C27     -C28     : 119.938590
 C29     -C28     -C27     : 118.756454  C35     -C28     -C27     : 122.069025
 C35     -C28     -C29     : 119.101699  C30     -C29     -C28     : 122.015284
 H54     -C29     -C28     : 118.804773  H54     -C29     -C30     : 119.126443
 C31     -C30     -C29     : 117.755458  C37     -C30     -C29     : 121.832202
 C37     -C30     -C31     : 120.328454  C32     -C31     -C30     : 122.569006
 H55     -C31     -C30     : 117.626205  H55     -C31     -C32     : 119.801316
 C31     -C32     -C27     : 118.532730  C33     -C32     -C27     : 120.932045
 C33     -C32     -C31     : 120.457767  C34     -C33     -C32     : 109.496278
 C38     -C33     -C32     : 115.126429  C38     -C33     -C34     : 108.750185
 H56     -C33     -C32     : 107.324960  H56     -C33     -C34     : 106.980202
 H56     -C33     -C38     : 108.857814  H57     -C34     -C33     : 110.433812
 H58     -C34     -C33     : 111.828699  H58     -C34     -H57     : 107.918635
 H59     -C34     -C33     : 110.423164  H59     -C34     -H57     : 108.029626
 H59     -C34     -H58     : 108.078890  C36     -C35     -C28     : 113.511226
 C39     -C35     -C28     : 110.538185  C39     -C35     -C36     : 109.442330
 H60     -C35     -C28     : 107.901831  H60     -C35     -C36     : 106.939934
 H60     -C35     -C39     : 108.310777  H61     -C36     -C35     : 111.928856
 H62     -C36     -C35     : 109.793034  H62     -C36     -H61     : 107.018552
 H63     -C36     -C35     : 110.945189  H63     -C36     -H61     : 108.254891
 H63     -C36     -H62     : 108.769913  C40     -C37     -C30     : 113.412205
 C41     -C37     -C30     : 111.981689  C41     -C37     -C40     : 110.176839
 H64     -C37     -C30     : 106.877639  H64     -C37     -C40     : 106.904130
 H64     -C37     -C41     : 107.103449  H65     -C38     -C33     : 111.754343
 H66     -C38     -C33     : 109.077903  H66     -C38     -H65     : 106.668064
 H67     -C38     -C33     : 112.917024  H67     -C38     -H65     : 106.293505
 H67     -C38     -H66     : 109.922607  H68     -C39     -C35     : 110.259121
 H69     -C39     -C35     : 110.591284  H69     -C39     -H68     : 107.935170
 H70     -C39     -C35     : 112.054157  H70     -C39     -H68     : 107.889678
 H70     -C39     -H69     : 107.969668  H71     -C40     -C37     : 110.758918
 H72     -C40     -C37     : 110.485754  H72     -C40     -H71     : 107.823010
 H73     -C40     -C37     : 111.382128  H73     -C40     -H71     : 107.685861
 H73     -C40     -H72     : 108.580755  H74     -C41     -C37     : 111.122053
 H75     -C41     -C37     : 111.327577  H75     -C41     -H74     : 107.739074
 H76     -C41     -C37     : 110.675632  H76     -C41     -H74     : 107.528565
 H76     -C41     -H75     : 108.298410  H78     -C77     -C16     : 107.454661
 H79     -C77     -C16     : 113.670590  H79     -C77     -H78     : 106.414283
 H80     -C77     -C16     : 113.161042  H80     -C77     -H78     : 106.953990
 H80     -C77     -H79     : 108.745464  H82     -C81     -C15     : 108.692914
 H83     -C81     -C15     : 110.782436  H83     -C81     -H82     : 107.398211
 H84     -C81     -C15     : 111.992115  H84     -C81     -H82     : 108.171578
 H84     -C81     -H83     : 109.654559
 
  torsional angles:
 
 P1      -Pd2     -C4      -C5      : 170.442875
 P1      -Pd2     -C4      -C9      : -71.657430
[...]
    C35      X    -0.00006 -0.00064  0.00001 -0.00001 -0.00001  0.00000
    C35      Y    -0.00000  0.00018  0.00001  0.00001  0.00001 -0.00001
    C35      Z     0.00011  0.00083  0.00001  0.00001  0.00002 -0.00001
    C36      X    -0.00005 -0.00163  0.00032 -0.00013 -0.00001  0.00002
    C36      Y     0.00008  0.00136 -0.00018  0.00009 -0.00003 -0.00002
    C36      Z     0.00022  0.00252  0.00003  0.00001 -0.00002 -0.00000
    C37      X    -0.00004 -0.00044 -0.00003  0.00012  0.00000 -0.00022
    C37      Y    -0.00000 -0.00006  0.00000  0.00000 -0.00000 -0.00002
    C37      Z     0.00001  0.00018 -0.00004  0.00010  0.00001 -0.00017
    C38      X    -0.00002  0.00005  0.00005  0.00022  0.00003  0.00007
    C38      Y    -0.00013 -0.00007  0.00006  0.00042  0.00001  0.00008
    C38      Z     0.00001 -0.00010 -0.00009 -0.00033 -0.00001 -0.00013
    C39      X    -0.00045 -0.00080  0.00003 -0.00001 -0.00001 -0.00001
    C39      Y    -0.00057  0.00029  0.00002 -0.00000  0.00002 -0.00001
    C39      Z     0.00072  0.00191 -0.00001  0.00001 -0.00003 -0.00000
    C40      X    -0.00012 -0.00161 -0.00000  0.00006 -0.00000 -0.00007
    C40      Y     0.00001  0.00041 -0.00003 -0.00016  0.00001  0.00021
    C40      Z    -0.00013 -0.00149 -0.00002  0.00001  0.00001  0.00003
    C41      X    -0.00004 -0.00052 -0.00001 -0.00002 -0.00001 -0.00003
    C41      Y    -0.00001 -0.00001 -0.00001 -0.00001  0.00001  0.00002
    C41      Z    -0.00001  0.00002 -0.00002  0.00002  0.00002 -0.00000
    H42      X    -0.00236  0.00035  0.00004  0.00008 -0.00745 -0.00002
    H42      Y    -0.00387  0.00055  0.00012  0.00012 -0.01402 -0.00005
    H42      Z    -0.00302  0.00044  0.00012  0.00010 -0.01055 -0.00004
    H43      X     0.00244 -0.00025 -0.00002 -0.00002  0.01021 -0.00000
    H43      Y    -0.00819  0.00089  0.00005  0.00003 -0.03079  0.00006
    H43      Z     0.00342 -0.00038 -0.00003 -0.00001  0.01300 -0.00003
    H44      X    -0.00007  0.00002  0.00020 -0.00008 -0.00044  0.00009
    H44      Y    -0.00002 -0.00001  0.00039 -0.00011 -0.00035  0.00003
    H44      Z     0.00016 -0.00000 -0.00078  0.00020  0.00217 -0.00014
    H45      X    -0.00012  0.00010 -0.00023  0.00009  0.00019 -0.00007
    H45      Y    -0.00022  0.00022 -0.00053  0.00022  0.00040 -0.00014
    H45      Z    -0.00014  0.00014 -0.00043  0.00016  0.00023 -0.00011
    H46      X     0.00017  0.00016  0.00314 -0.00093 -0.00006 -0.00022
    H46      Y    -0.00004 -0.00007 -0.00104  0.00031 -0.00009  0.00007
    H46      Z     0.00003  0.00000  0.00017 -0.00005  0.00003 -0.00001
    H47      X    -0.00012  0.00000  0.00007 -0.00009 -0.00071  0.00005
    H47      Y     0.00014 -0.00007 -0.00000  0.00007  0.00060 -0.00004
    H47      Z     0.00034 -0.00012  0.00009  0.00024  0.00176 -0.00006
    H48      X    -0.00031 -0.00023 -0.00026  0.00003 -0.00112  0.00002
    H48      Y     0.00029  0.00009  0.00026 -0.00002  0.00074 -0.00003
    H48      Z     0.00095  0.00051  0.00064 -0.00009  0.00316 -0.00002
    H49      X     0.00040 -0.00011  0.00009  0.00000  0.00109 -0.00004
    H49      Y    -0.00055  0.00025 -0.00030 -0.00003 -0.00225  0.00012
    H49      Z     0.00054 -0.00031  0.00029  0.00004  0.00137 -0.00013
    H50      X    -0.06169  0.00553 -0.00006 -0.00026 -0.38035 -0.00064
    H50      Y     0.11036 -0.00989  0.00010  0.00047  0.68145  0.00115
    H50      Z     0.08377 -0.00742  0.00010  0.00035  0.49793  0.00085
    H51      X     0.00407 -0.00035  0.00000 -0.00000  0.00033  0.00000
    H51      Y     0.01303 -0.00102  0.00006  0.00000 -0.01105 -0.00003
    H51      Z    -0.42415  0.03347 -0.00122 -0.00001  0.21202  0.00050
    H52      X    -0.27502  0.02257 -0.00024 -0.00010  0.02164  0.00006
    H52      Y     0.51899 -0.04259  0.00044  0.00019 -0.04062 -0.00011
    H52      Z    -0.29810  0.02452 -0.00024 -0.00012  0.02147  0.00006
    H53      X    -0.21625  0.01715  0.00036 -0.00030  0.01247 -0.00006
    H53      Y     0.36947 -0.02949 -0.00063  0.00050 -0.02136  0.00011
    H53      Z     0.27842 -0.02230 -0.00047  0.00038 -0.01636  0.00007
    H54      X     0.06839  0.84574 -0.00352  0.00275  0.00128  0.00058
    H54      Y     0.01635  0.20132 -0.00083  0.00065  0.00028  0.00013
    H54      Z    -0.03090 -0.38303  0.00160 -0.00120 -0.00063 -0.00028
    H55      X     0.00131 -0.00430  0.00209  0.00209 -0.00055  0.00367
    H55      Y     0.00118 -0.00277  0.00176  0.00184 -0.00047  0.00310
    H55      Z     0.00120 -0.00177  0.00156  0.00170 -0.00048  0.00254
    H56      X    -0.00020 -0.00017 -0.00004 -0.00002  0.00015 -0.00004
    H56      Y     0.00037  0.00059  0.00019  0.00034 -0.00017  0.00017
    H56      Z     0.00048  0.00103  0.00032  0.00055 -0.00022  0.00029
    H57      X     0.00029 -0.00012 -0.00005 -0.00004  0.00001 -0.00002
    H57      Y    -0.00094  0.00046  0.00008  0.00005 -0.00001  0.00012
    H57      Z    -0.00141  0.00054  0.00009  0.00004 -0.00000  0.00012
    H58      X    -0.00433  0.00041  0.00040  0.00046  0.00027  0.00004
    H58      Y     0.00101 -0.00008 -0.00012 -0.00016 -0.00004 -0.00000
    H58      Z    -0.00418  0.00041  0.00039  0.00045  0.00025  0.00003
    H59      X    -0.00112 -0.00027  0.00029  0.00011 -0.00025 -0.00016
    H59      Y    -0.00022 -0.00005  0.00012  0.00007 -0.00011 -0.00006
    H59      Z     0.00036  0.00014 -0.00016 -0.00008  0.00013  0.00008
    H60      X     0.00066  0.00429  0.00004  0.00006  0.00007 -0.00005
    H60      Y    -0.00020 -0.00100 -0.00005 -0.00005 -0.00020  0.00006
    H60      Z    -0.00087 -0.00444 -0.00012 -0.00013 -0.00028  0.00015
    H61      X     0.00123  0.01715 -0.00038  0.00030 -0.00003 -0.00006
    H61      Y    -0.00078 -0.01083  0.00026 -0.00019  0.00004  0.00002
    H61      Z    -0.00232 -0.03286  0.00093 -0.00059  0.00003  0.00009
    H62      X    -0.00056 -0.00383 -0.00055  0.00012  0.00036  0.00006
    H62      Y    -0.00044 -0.00236 -0.00047  0.00010  0.00026  0.00007
    H62      Z    -0.00052 -0.00354 -0.00050  0.00011  0.00025  0.00004
    H63      X    -0.00024  0.00684 -0.00307  0.00123 -0.00011 -0.00020
    H63      Y     0.00029 -0.00511  0.00243 -0.00098  0.00004  0.00015
    H63      Z    -0.00008  0.00288 -0.00097  0.00040 -0.00007 -0.00004
    H64      X     0.00001 -0.00013  0.00027 -0.00206 -0.00004  0.00438
    H64      Y    -0.00008 -0.00090  0.00006  0.00035  0.00000 -0.00124
    H64      Z    -0.00009 -0.00175  0.00025 -0.00167 -0.00005  0.00386
    H65      X     0.00000  0.00007  0.00001  0.00009 -0.00001  0.00006
    H65      Y     0.00046  0.00071  0.00057  0.00111 -0.00004  0.00071
    H65      Z     0.00060  0.00075  0.00046  0.00062 -0.00010  0.00056
    H66      X     0.00029 -0.00065 -0.00060 -0.00243 -0.00038 -0.00087
    H66      Y    -0.00001 -0.00005 -0.00016 -0.00040 -0.00005 -0.00010
    H66      Z    -0.00016  0.00043  0.00045  0.00167  0.00020  0.00058
    H67      X    -0.00003  0.00002 -0.00001 -0.00018  0.00002 -0.00004
    H67      Y     0.00137  0.00005 -0.00103 -0.00567 -0.00013 -0.00163
    H67      Z    -0.00065 -0.00004  0.00010  0.00150  0.00004  0.00050
    H68      X     0.00199  0.01005 -0.00004  0.00007 -0.00000 -0.00002
    H68      Y    -0.00158 -0.00819  0.00006 -0.00006 -0.00002  0.00001
    H68      Z    -0.00397 -0.01819  0.00010 -0.00012  0.00001  0.00002
    H69      X     0.00077 -0.00171 -0.00028  0.00000  0.00023  0.00013
    H69      Y     0.00059 -0.00200 -0.00017  0.00000  0.00013  0.00007
    H69      Z     0.00059 -0.00156 -0.00020  0.00000  0.00016  0.00009
    H70      X     0.00298  0.00241 -0.00005  0.00003 -0.00013  0.00001
    H70      Y     0.00798  0.00611 -0.00019  0.00008 -0.00030  0.00006
    H70      Z    -0.00543 -0.00435  0.00014 -0.00006  0.00020 -0.00004
    H71      X     0.00167  0.02183  0.00012 -0.00051  0.00003  0.00051
    H71      Y    -0.00021 -0.00267 -0.00004  0.00014  0.00000 -0.00012
    H71      Z     0.00114  0.01493  0.00004 -0.00032  0.00003  0.00031
    H72      X    -0.00003  0.00007 -0.00005 -0.00005  0.00003  0.00015
    H72      Y     0.00051  0.00486  0.00011  0.00030 -0.00009 -0.00054
    H72      Z     0.00081  0.00712  0.00024  0.00047 -0.00018 -0.00087
    H73      X    -0.00002 -0.00010 -0.00005  0.00005 -0.00000 -0.00008
    H73      Y    -0.00005 -0.00355  0.00027  0.00145 -0.00004 -0.00200
    H73      Z    -0.00006 -0.00001 -0.00004 -0.00029  0.00002  0.00037
    H74      X     0.00022  0.00291  0.00016 -0.00009  0.00000  0.00026
    H74      Y    -0.00006 -0.00080 -0.00004  0.00008  0.00000 -0.00014
    H74      Z     0.00017  0.00239  0.00010 -0.00005  0.00002  0.00016
    H75      X     0.00031  0.00326  0.00001  0.00036  0.00003  0.00001
    H75      Y     0.00016  0.00181 -0.00000  0.00021  0.00003  0.00003
    H75      Z    -0.00017 -0.00170 -0.00002 -0.00021 -0.00001  0.00000
    H76      X    -0.00001  0.00039 -0.00005 -0.00001  0.00004  0.00006
    H76      Y     0.00005 -0.00139  0.00017 -0.00003 -0.00014 -0.00011
    H76      Z     0.00010 -0.00184  0.00024 -0.00004 -0.00023 -0.00018
    C77      X    -0.00034  0.00003 -0.00001  0.00001 -0.00095  0.00001
    C77      Y     0.00075 -0.00009  0.00005 -0.00000  0.00231 -0.00001
    C77      Z    -0.00059  0.00005 -0.00000 -0.00000 -0.00214  0.00000
    H78      X    -0.00102  0.00025 -0.00035  0.00003 -0.00208  0.00004
    H78      Y    -0.00120  0.00033 -0.00049  0.00004 -0.00202  0.00006
    H78      Z    -0.00046  0.00013 -0.00020  0.00002 -0.00102  0.00003
    H79      X     0.00067 -0.00008  0.00003 -0.00000  0.00175 -0.00001
    H79      Y    -0.00766  0.00074 -0.00013 -0.00001 -0.02913  0.00004
    H79      Z     0.00780 -0.00079  0.00015  0.00002  0.02830 -0.00006
    H80      X     0.00429 -0.00042  0.00023 -0.00005  0.01129 -0.00009
    H80      Y    -0.00134  0.00012 -0.00005  0.00001 -0.00345  0.00003
    H80      Z     0.00003 -0.00001  0.00002 -0.00000  0.00003  0.00001
    C81      X    -0.00003  0.00003 -0.00006  0.00003  0.00006  0.00004
    C81      Y     0.00003 -0.00002 -0.00001  0.00000  0.00010 -0.00002
    C81      Z    -0.00005  0.00001  0.00008 -0.00006 -0.00023 -0.00000
    H82      X     0.00045 -0.00028  0.00070 -0.00020 -0.00077 -0.00036
    H82      Y    -0.00003  0.00003 -0.00004  0.00002  0.00013  0.00002
    H82      Z    -0.00005  0.00003 -0.00012  0.00003  0.00002  0.00007
    H83      X     0.00006 -0.00004 -0.00004  0.00001  0.00054 -0.00009
    H83      Y    -0.00043  0.00024  0.00009 -0.00001 -0.00157  0.00033
    H83      Z     0.00010 -0.00012 -0.00005 -0.00002  0.00043 -0.00020
    H84      X    -0.00010  0.00002  0.00008 -0.00015 -0.00038  0.00003
    H84      Y    -0.00003 -0.00001 -0.00005 -0.00006 -0.00005 -0.00006
    H84      Z     0.00044 -0.00002 -0.00090  0.00066  0.00235  0.00022
    H85      X     0.00210 -0.00038  0.00079 -0.00003  0.00507 -0.00016
    H85      Y    -0.00023  0.00003 -0.00006 -0.00000 -0.00096  0.00001
    H85      Z    -0.00001  0.00004 -0.00015 -0.00000  0.00034  0.00006
    H86      X     0.00045 -0.00017  0.00097 -0.00015 -0.00073 -0.00023
    H86      Y    -0.00005  0.00001 -0.00003 -0.00000  0.00015  0.00002
    H86      Z    -0.00003  0.00001 -0.00007  0.00000 -0.00002  0.00004
    H87      X    -0.00026  0.00021  0.00042 -0.00010  0.00029 -0.00002
    H87      Y    -0.00044  0.00035  0.00047 -0.00011  0.00053 -0.00001
    H87      Z    -0.00010  0.00012  0.00025 -0.00005  0.00011 -0.00003
    H88      X    -0.00039  0.00035 -0.00013  0.00002  0.00019  0.00005
    H88      Y    -0.00066  0.00059 -0.00018  0.00002  0.00025  0.00007
    H88      Z    -0.00016  0.00020 -0.00008  0.00001  0.00001  0.00003
  
  Number of imaginary frequencies:   0
   
  Writing vibrational animation data to enc_comp_L1_PL274.vib
  Writing IR vibrational spectrum data to enc_comp_L1_PL274_vib.spm
  rotational symmetry number:  1

  rotational temperatures (K):      0.004420      0.004060      0.003047
   
  The Quasi-Harmonic approximation will be applied to compute
  vibrational constributions to thermodynamic properties.
  Frequencies will be adjusted to a minimum value of  100.00 cm^-1.

  vibrational temperatures:
       mode:      1        2        3        4        5        6
  temp. (K):   143.88   143.88   143.88   143.88   143.88   143.88
   
       mode:      7        8        9       10       11       12
  temp. (K):   143.88   143.88   143.88   143.88   143.88   143.88
   
       mode:     13       14       15       16       17       18
  temp. (K):   143.88   146.72   151.60   157.03   161.38   171.40
   
       mode:     19       20       21       22       23       24
  temp. (K):   176.75   188.29   190.99   217.72   221.89   225.23
   
       mode:     25       26       27       28       29       30
  temp. (K):   262.95   281.05   291.24   321.63   331.14   335.48
   
       mode:     31       32       33       34       35       36
  temp. (K):   355.42   365.98   368.29   374.75   379.95   384.89
   
       mode:     37       38       39       40       41       42
  temp. (K):   388.04   390.71   396.19   404.22   407.31   410.19
   
       mode:     43       44       45       46       47       48
  temp. (K):   416.88   420.71   430.77   436.26   443.64   467.68
   
       mode:     49       50       51       52       53       54
  temp. (K):   475.90   480.47   485.73   490.15   506.80   514.32
   
       mode:     55       56       57       58       59       60
  temp. (K):   538.20   548.88   562.21   577.55   587.06   597.60
   
       mode:     61       62       63       64       65       66
  temp. (K):   601.75   607.40   622.41   639.67   650.06   684.44
   
       mode:     67       68       69       70       71       72
  temp. (K):   698.99   716.95   733.35   744.24   756.98   793.23
   
       mode:     73       74       75       76       77       78
  temp. (K):   811.90   833.13   838.45   844.68   875.23   879.83
   
       mode:     79       80       81       82       83       84
  temp. (K):   888.31   909.76   935.44   947.05   966.44   979.23
   
       mode:     85       86       87       88       89       90
  temp. (K):  1073.51  1113.83  1116.54  1143.98  1144.36  1164.97
   
       mode:     91       92       93       94       95       96
  temp. (K):  1188.58  1201.31  1203.90  1215.06  1241.91  1297.68
   
       mode:     97       98       99      100      101      102
  temp. (K):  1301.82  1310.16  1312.27  1315.23  1323.44  1368.38
   
       mode:    103      104      105      106      107      108
  temp. (K):  1369.97  1370.46  1377.38  1382.28  1386.04  1389.15
   
       mode:    109      110      111      112      113      114
  temp. (K):  1390.31  1402.90  1410.41  1414.05  1419.31  1420.86
   
       mode:    115      116      117      118      119      120
  temp. (K):  1422.48  1428.19  1454.76  1465.27  1467.18  1504.21
   
       mode:    121      122      123      124      125      126
  temp. (K):  1509.86  1514.18  1517.95  1523.78  1536.78  1572.99
   
       mode:    127      128      129      130      131      132
  temp. (K):  1584.48  1587.65  1598.41  1636.13  1643.96  1651.46
   
       mode:    133      134      135      136      137      138
  temp. (K):  1655.87  1670.21  1680.68  1686.43  1723.36  1738.39
   
       mode:    139      140      141      142      143      144
  temp. (K):  1739.23  1745.35  1752.13  1764.60  1776.35  1783.21
   
       mode:    145      146      147      148      149      150
  temp. (K):  1797.45  1804.45  1804.83  1818.20  1861.25  1864.96
   
       mode:    151      152      153      154      155      156
  temp. (K):  1872.84  1883.22  1905.93  1927.74  1933.61  1943.39
   
       mode:    157      158      159      160      161      162
  temp. (K):  1965.60  1969.87  1994.39  1995.66  2020.97  2028.00
   
       mode:    163      164      165      166      167      168
  temp. (K):  2041.98  2044.93  2046.82  2047.07  2049.79  2050.70
   
       mode:    169      170      171      172      173      174
  temp. (K):  2052.74  2075.29  2076.49  2081.03  2090.32  2100.08
   
       mode:    175      176      177      178      179      180
  temp. (K):  2117.45  2123.06  2146.89  2149.64  2158.31  2161.19
   
       mode:    181      182      183      184      185      186
  temp. (K):  2173.60  2174.56  2175.41  2176.98  2179.96  2182.72
   
       mode:    187      188      189      190      191      192
  temp. (K):  2184.11  2185.70  2186.18  2186.94  2190.12  2197.27
   
       mode:    193      194      195      196      197      198
  temp. (K):  2199.24  2203.14  2205.94  2209.20  2210.34  2213.29
   
       mode:    199      200      201      202      203      204
  temp. (K):  2213.58  2219.18  2225.68  2233.99  2238.30  2292.90
   
       mode:    205      206      207      208      209      210
  temp. (K):  2312.76  2333.13  2361.61  2376.37  2399.59  4358.89
   
       mode:    211      212      213      214      215      216
  temp. (K):  4369.22  4374.15  4375.19  4376.24  4376.26  4376.88
   
       mode:    217      218      219      220      221      222
  temp. (K):  4377.60  4382.24  4382.92  4385.65  4387.91  4392.07
   
       mode:    223      224      225      226      227      228
  temp. (K):  4466.68  4474.86  4476.95  4479.60  4479.70  4480.87
   
       mode:    229      230      231      232      233      234
  temp. (K):  4482.79  4486.88  4488.86  4488.97  4491.06  4493.63
   
       mode:    235      236      237      238      239      240
  temp. (K):  4494.84  4501.88  4503.31  4506.32  4511.55  4524.60
   
       mode:    241      242      243      244      245      246
  temp. (K):  4525.63  4534.44  4536.83  4541.44  4568.74  4569.19
   
       mode:    247      248      249      250      251      252
  temp. (K):  4570.68  4576.69  4577.07  4581.92  4600.33  4605.07
   
       mode:    253      254      255      256      257      258
  temp. (K):  4616.64  4617.64  4630.45  4632.91  4657.22  4667.63
   
   
  Thermodynamic properties calculated assuming an ideal gas

  In the table below, the units for temperature
  are kelvins, the units for U, H, and G are
  kcal/mol and the units for Cv and S are cal/(mol K)

  The zero point energy (ZPE):    479.295 kcal/mol
  is not included in U, H, or G in the table below
  
 
  =============================================================================
  Thermodynamic properties for P = 1.00E+00 atm, calculated at   1 temperatures


  T =   298.15 K, P = 1.00E+00 atm
   
                  U         Cv          S          H          G        ln(Q)
              =========  =========  =========  =========  =========  =========
  trans.          0.889      2.981     45.536      1.481    -12.095   20.41467
  rot.            0.889      2.981     37.716      0.889    -10.356   17.47954
  vib.           25.129    163.456    152.127     25.129    -20.228   34.14096
  elec.           0.000      0.000      0.000      0.000      0.000    0.00000
  ----------------------------------------------------------------------------
  total          26.906    169.417    235.380     27.499    -42.680   72.03517
   
   Total internal energy, Utot(SCFE + ZPE + U):   -1943.230306 hartrees
   Total enthalpy, Htot (Utot + nRT), with n=1:   -1943.229362 hartrees
    Total Gibbs free energy, Gtot (Htot - T*S):   -1943.341198 hartrees
   
FATAL MAE_GET_COORDS(): TOO MANY ATOMS IN CT BLOCK
  end of program freq
   
 Time(freq)  user:        0.2  user+sys:        0.2  wallclock:        0.3
  
  start of program post
  
  Writing input files for PBF
FATAL MAE_GET_COORDS(): TOO MANY ATOMS IN CT BLOCK
  end of program post
   
 Time(post)  user:        0.1  user+sys:        0.1  wallclock:        0.1

 Total cpu seconds     user:   77325.620   user+sys:   77325.620
  
 Total elapsed time:    78047 seconds

Job enc_comp_L1_PL274 completed on bp1-compute154.data.bp.acrc.priv at Sat Mar 23 15:03:16 2024
