Job L1_PL274 started on bp1-compute031.data.bp.acrc.priv at Thu Mar 14 23:14:56 2024
jobid: bp1-compute031-0-65f384ed

  +--------------------------------------------------------------------+
  |  Jaguar version 11.4, release 135                                  |
  |                                                                    |
  |  Copyright Schrodinger, Inc.                                       |
  |  All Rights Reserved.                                              |
  |                                                                    |
  |  The following have contributed to Jaguar (listed alphabetically): |
  |  Mike Beachy, Art Bochevarov, Dale Braden, Yixiang Cao,            |
  |  Alan Chien, Chris Cortis, Rich Friesner, Bill Goddard,            |
  |  Hod Greeley, Tom Hughes, Leif Jacobson, Jean-Marc Langlois,       |
  |  Daniel Levine, Daniel Mainz, Rob Murphy, Dean Philipp,            |
  |  Tom Pollard, Murco Ringnalda, Mark Watson, Haoyu Yu.              |
  |                                                                    |
  |  Use of this program should be acknowledged in publications as:    |
  |                                                                    |
  |  Jaguar, version 11.4, Schrodinger, Inc., New York, NY, 2021.      |
  |                                                                    |
  |  A. D. Bochevarov, E. Harder, T. F. Hughes, J. R. Greenwood,       |
  |  D. A. Braden, D. M. Philipp, D. Rinaldo, M. D. Halls,             |
  |  J. Zhang, R. A. Friesner, "Jaguar: A High-Performance Quantum     |
  |  Chemistry Software Program with Strengths in Life and Materials   |
  |  Sciences", Int. J. Quantum Chem., 2013, 113(18), 2110-2142.       |
  +--------------------------------------------------------------------+
  
  start of program pre
  
  Job name: L1_PL274
  Executables used: /sw/apps/schrodinger2021-4/jaguar-v11.4/bin/Linux-x86_64
  Temporary files : /tmp/ar21627/L1_PL274
  Maestro file (input):  L1_PL274.mae
  Maestro file (output): L1_PL274.01.mae
  
 Contents of input file: &gen section only
 ----------------Contents start----------------
&gen
dftname=b3pw91-d3
basis=6-31G*
numd=5
ip11=2
iaccg=3
isolv=2
igeopt=1
solvent=benzene
ifreq=1
&
 -----------------Contents end-----------------
 
  basis set:             non_standard                    
  net molecular charge:    0
  multiplicity:            1
  
  This run will use ECP on 1 atom
  number of basis functions....          545
  
 Input geometry:
                                   angstroms
  atom               x                 y                 z
  P1            0.0000000000      0.0000000000      0.0000000000 
  Pd2           0.0000000000      0.0000000000      2.2122636776 
  C3            1.7831463244      0.0000000000     -0.8473727461 
  C4           -0.9886469542     -1.5695736595     -0.6867421696 
  C5           -0.7901183997      1.5049379058     -0.8479766882 
  C6            1.8652236082      0.0548153147     -2.3939977476 
  C7            2.5239751135     -1.2700843094     -0.3645010905 
  C8           -0.7983231708     -2.6816138379      0.3763485688 
  C9           -2.4878216583     -1.2112625211     -0.8064495247 
  C10          -0.8892394008      1.4114160136     -2.2607084982 
  C11          -1.2546226733      2.4840588565     -3.0851574536 
  C12          -1.5207952457      3.7270633661     -2.4988050521 
  C13          -1.4998965492      3.8273578633     -1.1029466553 
  C14          -1.1937791729      2.7411469086     -0.2403429206 
  C15          -1.4955600723      3.0253394478      1.2179072042 
  C16          -2.8573804410      2.9258007927      1.6427194187 
  C17          -3.1835632123      3.2671285981      2.9669664830 
  C18          -2.2184617792      3.7066195558      3.8875966319 
  C19          -0.9059156283      3.8714990162      3.4252879495 
  C20          -0.5242988337      3.5606149275      2.1076927210 
  C21           0.8903072400      3.9069269557      1.6394151962 
  C22           0.9383018438      5.3645307443      1.1161004170 
  C23          -3.9942841535      2.5263893501      0.6865304301 
  C24          -5.0420068080      1.5792654208      1.3115151138 
  C25          -2.5643922096      3.9623566972      5.3522129059 
  C26           1.9790472741      3.6993159789      2.7112369243 
  C27          -4.7121107901      3.7857371286      0.1384320570 
  C28          -2.9590991633      2.6441334860      6.0577614421 
  C29          -3.6562524435      5.0419270943      5.5212642682 
  H30           1.3657093114     -0.7799130754     -2.9078132675 
  H31           1.4803630968      1.0048275598     -2.7998800482 
  H32           2.5173147849     -1.3496627875      0.7346946624 
  H33           2.1017488047     -2.1910767731     -0.8041808148 
  H34           0.2645501696     -2.9543819690      0.5016635869 
  H35          -1.1954620983     -2.3739848413      1.3566866633 
  H36          -2.8745272637     -0.7967271580      0.1378559733 
  H37          -2.6761453324     -0.4931763301     -1.6243074748 
  H38          -0.6668554910      0.4562132947     -2.7391918417 
  H39          -1.3132346546      2.3437192186     -4.1713334739 
  H40          -1.7763881926      4.5999501479     -3.1116595861 
  H41          -1.7717165211      4.7780348876     -0.6311032179 
  H42          -4.2228968831      3.1519016141      3.2973832778 
  H43          -0.1458421643      4.2343620195      4.1269936111 
  H44           1.1276614546      3.2434762284      0.7909457083 
  H45           0.6687945106      6.0742005961      1.9214661099 
  H46           0.2397811224      5.5249556070      0.2757633575 
  H47           1.9575479326      5.6181635074      0.7655036563 
  H48          -3.5450204230      1.9943108666     -0.1710626328 
  H49          -5.6529166403      2.0898430086      2.0802255420 
  H50          -5.7393517058      1.2241094154      0.5284041644 
  H51          -4.5530067634      0.7093391717      1.7781370610 
  H52          -1.6429003120      4.3395922896      5.8404978839 
  H53           1.8882160219      4.4345826098      3.5337800204 
  H54           2.9783958680      3.8431453967      2.2586305933 
  H55           1.9404016142      2.6824878981      3.1362898761 
  H56          -5.1559012677      4.3676159368      0.9685996882 
  H57          -5.5306303802      3.4995242068     -0.5507058279 
  H58          -4.0239116191      4.4517581053     -0.4098786963 
  H59          -3.9048202190      2.2454047989      5.6452470654 
  H60          -3.1042172200      2.8097039111      7.1433702254 
  H61          -2.1833050044      1.8725387701      5.9080647365 
  H62          -4.6088031266      4.7234831349      5.0576118387 
  H63          -3.3573436749      5.9970890541      5.0511848065 
  H64          -3.8569602758      5.2325977594      6.5931467838 
  C65          -0.5441708763     -2.1598303215     -2.0464615814 
  H66          -1.1856029942     -3.0417664424     -2.2477001319 
  H67          -0.6839976165     -1.4712621932     -2.8981229103 
  H68           0.4993445642     -2.5142764624     -2.0464974490 
  C69           2.5160792963      1.2658499196     -0.3495850975 
  H70           3.5592243218      1.2394134262     -0.7263030562 
  H71           2.0423449106      2.1774381524     -0.7572142958 
  H72           2.5500876307      1.3151497824      0.7482272982 
  H73           2.9402802330      0.0025088778     -2.6612312077 
  H74           3.5817627609     -1.2058906194     -0.6913890209 
  H75          -1.3445468212     -3.5877674888      0.0425532017 
  H76          -3.0522249256     -2.1385459761     -1.0343750224 
   
  principal moments of inertia:
        amu*angstrom^2:     3123.94445     5270.42875     5582.97963
                g*cm^2: 5.18743115E-37 8.75175176E-37 9.27075463E-37
   
  rotational constants:
               cm^(-1):      0.00539626      0.00319853      0.00301947
                   GHz:      0.16177593      0.09588954      0.09052138
   
  Molecular weight:     530.23 amu
   
  Stoichiometry: PdC29PH45
  Molecular Point Group: C1      
  Point Group used: C1
  
 
Number of optimization coordinates:   235
Number of independent coordinates:    235
Number of non-redundant coordinates:  222
Number of frozen coordinates:           0
Number of harmonic constraints:         0
 
Number of geometric degrees of freedom:   222
Maximum geometric degrees of freedom:     222
 " " " " " excluding dummy atoms:         222
 
 
  bond lengths (angstroms):
 
 P1      -Pd2     :   2.212264      P1      -C3      :   1.974247
 P1      -C4      :   1.978029      P1      -C5      :   1.899524
 C3      -C6      :   1.549771      C3      -C7      :   1.547613
 C3      -C69     :   1.545108      C4      -C8      :   1.550167
 C4      -C9      :   1.546041      C4      -C65     :   1.547514
 C5      -C10     :   1.419289      C5      -C14     :   1.435400
 C6      -H30     :   1.100133      C6      -H31     :   1.102443
 C6      -H73     :   1.109007      C7      -H32     :   1.102093
 C7      -H33     :   1.104455      C7      -H74     :   1.109005
 C8      -H34     :   1.104448      C8      -H35     :   1.101552
 C8      -H75     :   1.109457      C9      -H36     :   1.101405
 C9      -H37     :   1.104538      C9      -H76     :   1.109214
 C10     -C11     :   1.401351      C10     -H38     :   1.091244
 C11     -C12     :   1.399899      C11     -H39     :   1.096772
 C12     -C13     :   1.399613      C12     -H40     :   1.096745
 C13     -C14     :   1.420439      C13     -H41     :   1.095586
 C14     -C15     :   1.516025      C15     -C16     :   1.430010
 C15     -C20     :   1.421825      C16     -C17     :   1.405891
 C16     -C23     :   1.538303      C17     -C18     :   1.404327
 C17     -H42     :   1.096662      C18     -C19     :   1.401318
 C18     -C25     :   1.526489      C19     -C20     :   1.406534
 C19     -H43     :   1.096254      C20     -C21     :   1.529812
 C21     -C22     :   1.549442      C21     -C26     :   1.541836
 C21     -H44     :   1.102907      C22     -H45     :   1.106743
 C22     -H46     :   1.104461      C22     -H47     :   1.107299
 C23     -C24     :   1.544465      C23     -C27     :   1.549724
 C23     -H48     :   1.104722      C24     -H49     :   1.106714
 C24     -H50     :   1.107108      C24     -H51     :   1.101648
 C25     -C28     :   1.546384      C25     -C29     :   1.544736
 C25     -H52     :   1.108998      C26     -H53     :   1.106998
 C26     -H54     :   1.106452      C26     -H55     :   1.102771
 C27     -H56     :   1.106667      C27     -H57     :   1.107611
 C27     -H58     :   1.103561      C28     -H59     :   1.106138
 C28     -H60     :   1.107709      C28     -H61     :   1.104366
 C29     -H62     :   1.106225      C29     -H63     :   1.105738
 C29     -H64     :   1.107055      C65     -H66     :   1.108938
 C65     -H67     :   1.104085      C65     -H68     :   1.102069
 C69     -H70     :   1.109399      C69     -H71     :   1.105251
 C69     -H72     :   1.099445
 
  bond angles:
 
 C3      -P1      -Pd2     : 115.417634  C4      -P1      -Pd2     : 110.315238
 C4      -P1      -C3      : 107.602855  C5      -P1      -Pd2     : 116.513936
 C5      -P1      -C3      : 100.607821  C5      -P1      -C4      : 105.413350
 C6      -C3      -P1      : 118.435966  C7      -C3      -P1      : 107.363714
 C7      -C3      -C6      : 108.363978  C69     -C3      -P1      : 106.867607
 C69     -C3      -C6      : 105.510586  C69     -C3      -C7      : 110.166900
 C8      -C4      -P1      : 105.650726  C9      -C4      -P1      : 109.125727
 C9      -C4      -C8      : 109.780136  C65     -C4      -P1      : 117.655696
 C65     -C4      -C8      : 107.078681  C65     -C4      -C9      : 107.390303
 C10     -C5      -P1      : 114.910189  C14     -C5      -P1      : 127.613023
 C14     -C5      -C10     : 117.288667  H30     -C6      -C3      : 114.532958
 H31     -C6      -C3      : 112.297122  H31     -C6      -H30     : 108.867652
 H73     -C6      -C3      : 106.866856  H73     -C6      -H30     : 106.966915
 H73     -C6      -H31     : 106.878241  H32     -C7      -C3      : 111.564943
 H33     -C7      -C3      : 112.156573  H33     -C7      -H32     : 109.543807
 H74     -C7      -C3      : 108.488385  H74     -C7      -H32     : 107.693622
 H74     -C7      -H33     : 107.191431  H34     -C8      -C4      : 111.909222
 H35     -C8      -C4      : 111.452173  H35     -C8      -H34     : 108.357701
 H75     -C8      -C4      : 108.610725  H75     -C8      -H34     : 107.831746
 H75     -C8      -H35     : 108.563238  H36     -C9      -C4      : 111.180188
 H37     -C9      -C4      : 111.921524  H37     -C9      -H36     : 109.286245
 H76     -C9      -C4      : 108.395216  H76     -C9      -H36     : 108.189506
 H76     -C9      -H37     : 107.733199  C11     -C10     -C5      : 123.599104
 H38     -C10     -C5      : 118.678591  H38     -C10     -C11     : 117.721925
 C12     -C11     -C10     : 118.868590  H39     -C11     -C10     : 119.909520
 H39     -C11     -C12     : 121.215735  C13     -C12     -C11     : 118.588670
 H40     -C12     -C11     : 121.127678  H40     -C12     -C13     : 120.247906
 C14     -C13     -C12     : 123.646751  H41     -C13     -C12     : 119.209043
 H41     -C13     -C14     : 117.096095  C13     -C14     -C5      : 117.523625
 C15     -C14     -C5      : 128.653754  C15     -C14     -C13     : 113.446166
 C16     -C15     -C14     : 117.533585  C20     -C15     -C14     : 122.449022
 C20     -C15     -C16     : 119.395310  C17     -C16     -C15     : 118.938223
 C23     -C16     -C15     : 122.495958  C23     -C16     -C17     : 118.493284
 C18     -C17     -C16     : 122.278192  H42     -C17     -C16     : 118.565936
 H42     -C17     -C18     : 119.122180  C19     -C18     -C17     : 117.661255
 C25     -C18     -C17     : 121.714388  C25     -C18     -C19     : 120.603101
 C20     -C19     -C18     : 122.491344  H43     -C19     -C18     : 118.501880
 H43     -C19     -C20     : 118.990609  C19     -C20     -C15     : 118.953890
 C21     -C20     -C15     : 121.690431  C21     -C20     -C19     : 119.182645
 C22     -C21     -C20     : 110.180843  C26     -C21     -C20     : 114.184988
 C26     -C21     -C22     : 109.851523  H44     -C21     -C20     : 107.356126
 H44     -C21     -C22     : 107.421500  H44     -C21     -C26     : 107.567152
 H45     -C22     -C21     : 110.481288  H46     -C22     -C21     : 111.964181
 H46     -C22     -H45     : 107.849514  H47     -C22     -C21     : 110.544137
 H47     -C22     -H45     : 107.919333  H47     -C22     -H46     : 107.937853
 C24     -C23     -C16     : 114.145295  C27     -C23     -C16     : 110.559343
 C27     -C23     -C24     : 109.100865  H48     -C23     -C16     : 107.880461
 H48     -C23     -C24     : 107.136859  H48     -C23     -C27     : 107.770660
 H49     -C24     -C23     : 111.877424  H50     -C24     -C23     : 109.741743
 H50     -C24     -H49     : 106.954839  H51     -C24     -C23     : 110.764840
 H51     -C24     -H49     : 108.368321  H51     -C24     -H50     : 109.018969
 C28     -C25     -C18     : 110.658205  C29     -C25     -C18     : 112.474040
 C29     -C25     -C28     : 111.432837  H52     -C25     -C18     : 106.925793
 H52     -C25     -C28     : 107.528017  H52     -C25     -C29     : 107.542121
 H53     -C26     -C21     : 111.663558  H54     -C26     -C21     : 109.628065
 H54     -C26     -H53     : 106.960803  H55     -C26     -C21     : 111.552585
 H55     -C26     -H53     : 108.854276  H55     -C26     -H54     : 108.009914
 H56     -C27     -C23     : 110.347547  H57     -C27     -C23     : 110.631940
 H57     -C27     -H56     : 107.833481  H58     -C27     -C23     : 112.166850
 H58     -C27     -H56     : 107.786441  H58     -C27     -H57     : 107.918693
 H59     -C28     -C25     : 110.815466  H60     -C28     -C25     : 110.681673
 H60     -C28     -H59     : 107.900400  H61     -C28     -C25     : 110.759160
 H61     -C28     -H59     : 107.349544  H61     -C28     -H60     : 109.226744
 H62     -C29     -C25     : 111.197675  H63     -C29     -C25     : 111.475475
 H63     -C29     -H62     : 107.653118  H64     -C29     -C25     : 110.761272
 H64     -C29     -H62     : 107.414399  H64     -C29     -H63     : 108.170877
 H66     -C65     -C4      : 107.257040  H67     -C65     -C4      : 113.798039
 H67     -C65     -H66     : 106.424803  H68     -C65     -C4      : 113.244804
 H68     -C65     -H66     : 106.971719  H68     -C65     -H67     : 108.691356
 H70     -C69     -C3      : 108.488016  H71     -C69     -C3      : 110.705930
 H71     -C69     -H70     : 107.303973  H72     -C69     -C3      : 111.906990
 H72     -C69     -H70     : 108.122439  H72     -C69     -H71     : 110.153626
 
  torsional angles:
 
 P1      -C3      -C6      -H30     : -59.388644
 P1      -C3      -C6      -H31     :  65.456959
 P1      -C3      -C6      -H73     :-177.655655
 P1      -C3      -C7      -H32     : -52.264827
 P1      -C3      -C7      -H33     :  71.055768
 P1      -C3      -C7      -H74     :-170.737358
 P1      -C3      -C69     -H70     : 174.235630
 P1      -C3      -C69     -H71     : -68.269516
 P1      -C3      -C69     -H72     :  55.028918
 P1      -C4      -C8      -H34     : -61.587682
 P1      -C4      -C8      -H35     :  59.930593
 P1      -C4      -C8      -H75     : 179.484556
 P1      -C4      -C9      -H36     : -52.261846
 P1      -C4      -C9      -H37     :  70.269199
 P1      -C4      -C9      -H76     :-171.055930
 P1      -C4      -C65     -H66     : 178.243253
 P1      -C4      -C65     -H67     : -64.331096
 P1      -C4      -C65     -H68     :  60.462339
 P1      -C5      -C10     -C11     :-170.210970
 P1      -C5      -C10     -H38     :   9.559426
 P1      -C5      -C14     -C13     : 167.022163
 P1      -C5      -C14     -C15     : -20.537445
 Pd2     -P1      -C3      -C6      :-177.694779
 Pd2     -P1      -C3      -C7      :  59.300540
 Pd2     -P1      -C3      -C69     : -58.880810
 Pd2     -P1      -C4      -C8      : -30.327343
 Pd2     -P1      -C4      -C9      :  87.650420
 Pd2     -P1      -C4      -C65     :-149.743031
 Pd2     -P1      -C5      -C10     :-174.148580
 Pd2     -P1      -C5      -C14     :  11.014824
 C3      -P1      -C4      -C8      :  96.372645
 C3      -P1      -C4      -C9      :-145.649592
 C3      -P1      -C4      -C65     : -23.043043
 C3      -P1      -C5      -C10     :  60.299866
 C3      -P1      -C5      -C14     :-114.536731
 C4      -P1      -C3      -C6      :  58.660020
 C4      -P1      -C3      -C7      : -64.344660
 C4      -P1      -C3      -C69     : 177.473990
 C4      -P1      -C5      -C10     : -51.464389
 C4      -P1      -C5      -C14     : 133.699014
 C5      -P1      -C3      -C6      : -51.406213
 C5      -P1      -C3      -C7      :-174.410894
 C5      -P1      -C3      -C69     :  67.407756
 C5      -P1      -C4      -C8      :-156.900754
 C5      -P1      -C4      -C9      : -38.922990
 C5      -P1      -C4      -C65     :  83.683559
 C5      -C10     -C11     -C12     :   0.953559
 C5      -C10     -C11     -H39     :-179.937772
 C5      -C14     -C13     -C12     :   4.722829
 C5      -C14     -C13     -H41     :-177.825264
 C5      -C14     -C15     -C16     : -93.715753
 C5      -C14     -C15     -C20     :  95.390191
 C6      -C3      -C7      -H32     : 178.723324
 C6      -C3      -C7      -H33     : -57.956081
 C6      -C3      -C7      -H74     :  60.250793
 C6      -C3      -C69     -H70     : -58.856036
 C6      -C3      -C69     -H71     :  58.638818
 C6      -C3      -C69     -H72     :-178.062748
 C7      -C3      -C6      -H30     :  63.114911
 C7      -C3      -C6      -H31     :-172.039486
 C7      -C3      -C6      -H73     : -55.152100
 C7      -C3      -C69     -H70     :  57.903115
 C7      -C3      -C69     -H71     : 175.397970
 C7      -C3      -C69     -H72     : -61.303596
 C8      -C4      -C9      -H36     :  63.088416
 C8      -C4      -C9      -H37     :-174.380539
 C8      -C4      -C9      -H76     : -55.705669
 C8      -C4      -C65     -H66     :  59.582873
 C8      -C4      -C65     -H67     : 177.008524
 C8      -C4      -C65     -H68     : -58.198041
 C9      -C4      -C8      -H34     :-179.126282
 C9      -C4      -C8      -H35     : -57.608007
 C9      -C4      -C8      -H75     :  61.945956
 C9      -C4      -C65     -H66     : -58.270103
 C9      -C4      -C65     -H67     :  59.155548
 C9      -C4      -C65     -H68     :-176.051017
 C10     -C5      -C14     -C13     :  -7.708039
 C10     -C5      -C14     -C15     : 164.732353
 C10     -C11     -C12     -C13     :  -4.274707
 C10     -C11     -C12     -H40     : 177.894943
 C11     -C10     -C5      -C14     :   5.187907
 C11     -C12     -C13     -C14     :   1.431251
 C11     -C12     -C13     -H41     :-175.969829
 C12     -C11     -C10     -H38     :-178.818884
 C12     -C13     -C14     -C15     :-168.847479
 C13     -C12     -C11     -H39     : 176.628706
 C13     -C14     -C15     -C16     :  78.978297
 C13     -C14     -C15     -C20     : -91.915759
 C14     -C5      -C10     -H38     :-175.041697
 C14     -C13     -C12     -H40     : 179.281292
 C14     -C15     -C16     -C17     :-175.914414
 C14     -C15     -C16     -C23     :   0.939794
 C14     -C15     -C20     -C19     : 176.192814
 C14     -C15     -C20     -C21     :   1.014125
 C15     -C14     -C13     -H41     :   8.604428
 C15     -C16     -C17     -C18     :   0.183632
 C15     -C16     -C17     -H42     :-177.685208
 C15     -C16     -C23     -C24     : 139.952085
 C15     -C16     -C23     -C27     : -96.603289
 C15     -C16     -C23     -H48     :  21.010825
 C15     -C20     -C19     -C18     :  -1.707070
 C15     -C20     -C19     -H43     : 176.807429
 C15     -C20     -C21     -C22     :  88.760506
 C15     -C20     -C21     -C26     :-147.067892
 C15     -C20     -C21     -H44     : -27.923640
 C16     -C15     -C20     -C19     :   5.462025
 C16     -C15     -C20     -C21     :-169.716664
 C16     -C17     -C18     -C19     :   3.524270
 C16     -C17     -C18     -C25     :-174.807659
 C16     -C23     -C24     -H49     :  69.540809
 C16     -C23     -C24     -H50     :-171.905979
 C16     -C23     -C24     -H51     : -51.484648
 C16     -C23     -C27     -H56     : -60.781100
 C16     -C23     -C27     -H57     : 179.967050
 C16     -C23     -C27     -H58     :  59.410583
 C17     -C16     -C15     -C20     :  -4.731826
 C17     -C16     -C23     -C24     : -43.180339
 C17     -C16     -C23     -C27     :  80.264287
 C17     -C16     -C23     -H48     :-162.121598
 C17     -C18     -C19     -C20     :  -2.756369
 C17     -C18     -C19     -H43     : 178.722196
 C17     -C18     -C25     -C28     :  65.622100
 C17     -C18     -C25     -C29     : -59.729306
 C17     -C18     -C25     -H52     :-177.558553
 C18     -C17     -C16     -C23     :-176.797561
 C18     -C19     -C20     -C21     : 173.594331
 C18     -C25     -C28     -H59     : -66.423954
 C18     -C25     -C28     -H60     : 173.906791
 C18     -C25     -C28     -H61     :  52.606652
 C18     -C25     -C29     -H62     :  62.826165
 C18     -C25     -C29     -H63     : -57.313194
 C18     -C25     -C29     -H64     :-177.812649
 C19     -C18     -C17     -H42     :-178.618321
 C19     -C18     -C25     -C28     :-112.661377
 C19     -C18     -C25     -C29     : 121.987217
 C19     -C18     -C25     -H52     :   4.157970
 C19     -C20     -C21     -C22     : -86.407446
 C19     -C20     -C21     -C26     :  37.764157
 C19     -C20     -C21     -H44     : 156.908408
 C20     -C15     -C16     -C23     : 172.122382
 C20     -C19     -C18     -C25     : 175.595014
 C20     -C21     -C22     -H45     :  61.208828
 C20     -C21     -C22     -H46     : -59.019453
 C20     -C21     -C22     -H47     :-179.402937
 C20     -C21     -C26     -H53     : -68.972886
 C20     -C21     -C26     -H54     : 172.673467
 C20     -C21     -C26     -H55     :  53.083269
 C21     -C20     -C19     -H43     :  -7.891170
 C22     -C21     -C26     -H53     :  55.374850
 C22     -C21     -C26     -H54     : -62.978797
 C22     -C21     -C26     -H55     : 177.431004
 C23     -C16     -C17     -H42     :   5.333599
 C24     -C23     -C27     -H56     :  65.533300
 C24     -C23     -C27     -H57     : -53.718550
 C24     -C23     -C27     -H58     :-174.275017
 C25     -C18     -C17     -H42     :   3.049750
 C25     -C18     -C19     -H43     :  -2.926422
 C26     -C21     -C22     -H45     : -65.429060
 C26     -C21     -C22     -H46     : 174.342659
 C26     -C21     -C22     -H47     :  53.959175
 C27     -C23     -C24     -H49     : -54.688409
 C27     -C23     -C24     -H50     :  63.864803
 C27     -C23     -C24     -H51     :-175.713866
 C28     -C25     -C29     -H62     : -62.101764
 C28     -C25     -C29     -H63     : 177.758876
 C28     -C25     -C29     -H64     :  57.259421
 C29     -C25     -C28     -H59     :  59.512729
 C29     -C25     -C28     -H60     : -60.156527
 C29     -C25     -C28     -H61     : 178.543335
 H30     -C6      -C3      -C69     :-178.908522
 H31     -C6      -C3      -C69     : -54.062920
 H32     -C7      -C3      -C69     :  63.756901
 H33     -C7      -C3      -C69     :-172.922504
 H34     -C8      -C4      -C65     :  64.593465
 H35     -C8      -C4      -C65     :-173.888260
 H36     -C9      -C4      -C65     : 179.172054
 H37     -C9      -C4      -C65     : -58.296901
 H38     -C10     -C11     -H39     :   0.289786
 H39     -C11     -C12     -H40     :  -1.201644
 H40     -C12     -C13     -H41     :   1.880213
 H44     -C21     -C22     -H45     : 177.852204
 H44     -C21     -C22     -H46     :  57.623923
 H44     -C21     -C22     -H47     : -62.759561
 H44     -C21     -C26     -H53     : 172.002201
 H44     -C21     -C26     -H54     :  53.648554
 H44     -C21     -C26     -H55     : -65.941644
 H48     -C23     -C24     -H49     :-171.097361
 H48     -C23     -C24     -H50     : -52.544149
 H48     -C23     -C24     -H51     :  67.877182
 H48     -C23     -C27     -H56     :-178.462614
 H48     -C23     -C27     -H57     :  62.285537
 H48     -C23     -C27     -H58     : -58.270930
 H52     -C25     -C28     -H59     : 177.129053
 H52     -C25     -C28     -H60     :  57.459798
 H52     -C25     -C28     -H61     : -63.840341
 H52     -C25     -C29     -H62     :-179.709569
 H52     -C25     -C29     -H63     :  60.151072
 H52     -C25     -C29     -H64     : -60.348383
 C65     -C4      -C8      -H75     : -54.334297
 C65     -C4      -C9      -H76     :  60.377970
 C69     -C3      -C6      -H73     :  62.824467
 C69     -C3      -C7      -H74     : -54.715630
 
  nuclear repulsion energy.......    3889.608153428 hartrees
  
  Detected an organometallic with only one TM atom. 
  
  
 
  Will use High-Quality Initial guess for organometallics
       including d-d repulsion (iguess=30)
 
 Non-default options chosen:
   SCF calculation type: DFT(b3pw91-d3)              
   DFT=Becke_3_Parameter/HF+Slater+Becke88+PW91+PW-GGAIIC (B3PW91-D3)
   Geometry will be optimized in redundant internal coordinates
   Solvation energy will be computed using PBF
     -solute cavity energy will not be included
     -surface area terms will not be included
   Vibrational frequencies and related properties will be computed
      from analytic second derivatives
   IR intensities will be computed
   Thermochemical properties will be computed
   Scaling standard convergence criteria by a factor of   5.00
   Solvent: benzene                                                         
   Internal dielectric constant:    1.000
   Continuum dielectric constant:   2.283
   Solvent probe molecule radius:   2.600
  
 Non-default print settings:
     11=  2
  
 Temporary integer options set:
     21= -1  73=  2
  
  atom       vdw   vdw2    cov     mass  grid  daf  charge   basis
  P1        2.147  2.074  1.060   30.974    Y    Y      Y    6-31g*
  Pd2       1.450  1.450  1.280  105.903    Y    Y      Y    lacv3p*
  C3        1.949  1.900  0.770   12.000    Y    Y      Y    6-31g*
  C4        1.949  1.900  0.770   12.000    Y    Y      Y    6-31g*
  C5        1.949  1.900  0.770   12.000    Y    Y      Y    6-31g*
  C6        1.949  1.900  0.770   12.000    Y    Y      Y    6-31g*
  C7        1.949  1.900  0.770   12.000    Y    Y      Y    6-31g*
  C8        1.949  1.900  0.770   12.000    Y    Y      Y    6-31g*
  C9        1.949  1.900  0.770   12.000    Y    Y      Y    6-31g*
  C10       1.949  1.900  0.770   12.000    Y    Y      Y    6-31g*
  C11       1.949  1.900  0.770   12.000    Y    Y      Y    6-31g*
  C12       1.949  1.900  0.770   12.000    Y    Y      Y    6-31g*
  C13       1.949  1.900  0.770   12.000    Y    Y      Y    6-31g*
  C14       1.949  1.900  0.770   12.000    Y    Y      Y    6-31g*
  C15       1.949  1.900  0.770   12.000    Y    Y      Y    6-31g*
  C16       1.949  1.900  0.770   12.000    Y    Y      Y    6-31g*
  C17       1.949  1.900  0.770   12.000    Y    Y      Y    6-31g*
  C18       1.949  1.900  0.770   12.000    Y    Y      Y    6-31g*
  C19       1.949  1.900  0.770   12.000    Y    Y      Y    6-31g*
  C20       1.949  1.900  0.770   12.000    Y    Y      Y    6-31g*
  C21       1.949  1.900  0.770   12.000    Y    Y      Y    6-31g*
  C22       1.949  1.900  0.770   12.000    Y    Y      Y    6-31g*
  C23       1.949  1.900  0.770   12.000    Y    Y      Y    6-31g*
  C24       1.949  1.900  0.770   12.000    Y    Y      Y    6-31g*
  C25       1.949  1.900  0.770   12.000    Y    Y      Y    6-31g*
  C26       1.949  1.900  0.770   12.000    Y    Y      Y    6-31g*
  C27       1.949  1.900  0.770   12.000    Y    Y      Y    6-31g*
  C28       1.949  1.900  0.770   12.000    Y    Y      Y    6-31g*
  C29       1.949  1.900  0.770   12.000    Y    Y      Y    6-31g*
  H30       1.597  1.150  0.320    1.008    Y    Y      Y    6-31g*
  H31       1.597  1.150  0.320    1.008    Y    Y      Y    6-31g*
  H32       1.597  1.150  0.320    1.008    Y    Y      Y    6-31g*
  H33       1.597  1.150  0.320    1.008    Y    Y      Y    6-31g*
  H34       1.597  1.150  0.320    1.008    Y    Y      Y    6-31g*
  H35       1.597  1.150  0.320    1.008    Y    Y      Y    6-31g*
  H36       1.597  1.150  0.320    1.008    Y    Y      Y    6-31g*
  H37       1.597  1.150  0.320    1.008    Y    Y      Y    6-31g*
  H38       1.597  1.150  0.320    1.008    Y    Y      Y    6-31g*
  H39       1.597  1.150  0.320    1.008    Y    Y      Y    6-31g*
  H40       1.597  1.150  0.320    1.008    Y    Y      Y    6-31g*
  H41       1.597  1.150  0.320    1.008    Y    Y      Y    6-31g*
  H42       1.597  1.150  0.320    1.008    Y    Y      Y    6-31g*
  H43       1.597  1.150  0.320    1.008    Y    Y      Y    6-31g*
  H44       1.597  1.150  0.320    1.008    Y    Y      Y    6-31g*
  H45       1.597  1.150  0.320    1.008    Y    Y      Y    6-31g*
  H46       1.597  1.150  0.320    1.008    Y    Y      Y    6-31g*
  H47       1.597  1.150  0.320    1.008    Y    Y      Y    6-31g*
  H48       1.597  1.150  0.320    1.008    Y    Y      Y    6-31g*
  H49       1.597  1.150  0.320    1.008    Y    Y      Y    6-31g*
  H50       1.597  1.150  0.320    1.008    Y    Y      Y    6-31g*
  H51       1.597  1.150  0.320    1.008    Y    Y      Y    6-31g*
  H52       1.597  1.150  0.320    1.008    Y    Y      Y    6-31g*
  H53       1.597  1.150  0.320    1.008    Y    Y      Y    6-31g*
  H54       1.597  1.150  0.320    1.008    Y    Y      Y    6-31g*
  H55       1.597  1.150  0.320    1.008    Y    Y      Y    6-31g*
  H56       1.597  1.150  0.320    1.008    Y    Y      Y    6-31g*
  H57       1.597  1.150  0.320    1.008    Y    Y      Y    6-31g*
  H58       1.597  1.150  0.320    1.008    Y    Y      Y    6-31g*
  H59       1.597  1.150  0.320    1.008    Y    Y      Y    6-31g*
  H60       1.597  1.150  0.320    1.008    Y    Y      Y    6-31g*
  H61       1.597  1.150  0.320    1.008    Y    Y      Y    6-31g*
  H62       1.597  1.150  0.320    1.008    Y    Y      Y    6-31g*
  H63       1.597  1.150  0.320    1.008    Y    Y      Y    6-31g*
  H64       1.597  1.150  0.320    1.008    Y    Y      Y    6-31g*
  C65       1.949  1.900  0.770   12.000    Y    Y      Y    6-31g*
  H66       1.597  1.150  0.320    1.008    Y    Y      Y    6-31g*
  H67       1.597  1.150  0.320    1.008    Y    Y      Y    6-31g*
  H68       1.597  1.150  0.320    1.008    Y    Y      Y    6-31g*
  C69       1.949  1.900  0.770   12.000    Y    Y      Y    6-31g*
  H70       1.597  1.150  0.320    1.008    Y    Y      Y    6-31g*
  H71       1.597  1.150  0.320    1.008    Y    Y      Y    6-31g*
  H72       1.597  1.150  0.320    1.008    Y    Y      Y    6-31g*
  H73       1.597  1.150  0.320    1.008    Y    Y      Y    6-31g*
  H74       1.597  1.150  0.320    1.008    Y    Y      Y    6-31g*
  H75       1.597  1.150  0.320    1.008    Y    Y      Y    6-31g*
  H76       1.597  1.150  0.320    1.008    Y    Y      Y    6-31g*
 
  atom      formal  2spin      esp    mulk    frag
  P1           0       0        Y    0.000       0
  Pd2          0       0        Y    0.000       0
  
  end of program pre
   
 Time(pre)  user:        2.2  user+sys:        2.2  wallclock:        2.4
  
  start of program onee
  
  smallest eigenvalue of S:    3.284E-04
  number of canonical orbitals.....          544
  end of program onee
   
 Time(onee)  user:        1.4  user+sys:        1.4  wallclock:        1.4
  
  start of program hfig
  
  initial wavefunction generated automatically from atomic wavefunctions
  Only one possible d-orb occupation 
  Skip d-d repulsion considerations 
 
  Irreducible     Total no   No of occupied orbitals 
  representation  orbitals   Shell_1  Shell_2    ...
  No Symm          544        126
  ------------------------
  Orbital occupation/shell    1.000
 
  end of program hfig
   
 Time(hfig)  user:        0.4  user+sys:        0.4  wallclock:        0.5
  
  start of program probe
  
  end of program probe
   
 Time(probe)  user:        0.3  user+sys:        0.3  wallclock:        0.2
  
  start of program grid
  
   grid     grid set  grid #  grid sym
  ------    --------  ------  --------
  coarse        0        0        1
  medium        2        1        1
  fine          0        0        1
  ultrafine     4        2        1
  charge       -1        3        1
  gradient      4        2        1
  density       0        0        1
  DFT-fine    -11        4        1
  DFT-med.    -10        5        1
  DFT-grad    -12        6        1
  DFT-der2     -8        7        1
  DFT-cphf     -9        8        1
  LMP2-enrg     4        2        1
  LMP2-grad     2        1        1
  DFT-cphf2   -15        9        1
  PBF-dens      0        0        1
  plotting      0        0        1
  Rel-grad    -17        0        1
  
  number of gridpoints: 
     atom        P1      Pd2       C3       C4       C5       C6       C7
  grid # 1      614      399       87       90       92       81       81
  grid # 2      435      386      372      371      388      237      241
  grid # 3        7      436        6        6        8        6        6
  grid # 4     8714     8714     8714     8714     8714     8714     8714
  grid # 5     1192     1192     1192     1192     1192     1192     1192
  grid # 6     9132     9132     5922     5922     5922     5922     5922
  grid # 7    23034    32968    13950    13950    13950    13950    13950
  grid # 8      722     1150      748      748      748      748      748
  grid # 9      366     2198      394      394      394      394      394
   
  number of gridpoints: 
     atom        C8       C9      C10      C11      C12      C13      C14
  grid # 1       80       81       93       95       96       94      100
  grid # 2      238      240      323      324      322      324      353
  grid # 3        6        6       11       27       31       13        8
  grid # 4     8714     8714     8714     8714     8714     8714     8714
  grid # 5     1192     1192     1192     1192     1192     1192     1192
  grid # 6     5922     5922     5922     5922     5922     5922     5922
  grid # 7    13950    13950    13950    13950    13950    13950    13950
  grid # 8      748      748      748      748      748      748      748
  grid # 9      394      394      394      394      394      394      394
   
  number of gridpoints: 
     atom       C15      C16      C17      C18      C19      C20      C21
  grid # 1       99       98       95      100       95       98       92
  grid # 2      359      363      329      362      330      361      309
  grid # 3        7       12       23       16       18       12        6
  grid # 4     8714     8714     8714     8714     8714     8714     8714
  grid # 5     1192     1192     1192     1192     1192     1192     1192
  grid # 6     5922     5922     5922     5922     5922     5922     5922
  grid # 7    13950    13950    13950    13950    13950    13950    13950
  grid # 8      748      748      748      748      748      748      748
  grid # 9      394      394      394      394      394      394      394
   
  number of gridpoints: 
     atom       C22      C23      C24      C25      C26      C27      C28
  grid # 1       81       91       81       90       81       82       82
  grid # 2      241      306      239      305      245      239      239
  grid # 3        6        6        6        6        6        6        6
  grid # 4     8714     8714     8714     8714     8714     8714     8714
  grid # 5     1192     1192     1192     1192     1192     1192     1192
  grid # 6     5922     5922     5922     5922     5922     5922     5922
  grid # 7    13950    13950    13950    13950    13950    13950    13950
  grid # 8      748      748      748      748      748      748      748
  grid # 9      394      394      394      394      394      394      394
   
  number of gridpoints: 
     atom       C29      H30      H31      H32      H33      H34      H35
  grid # 1       79      100      104      105      101      106      107
  grid # 2      247      421      428      443      425      441      448
  grid # 3        6      150      179      214      157      186      209
  grid # 4     8714     8714     8714     8714     8714     8714     8714
  grid # 5     1192     1192     1192     1192     1192     1192     1192
  grid # 6     5922     5922     5922     5922     5922     5922     5922
  grid # 7    13950    15206    15206    15206    15206    15206    15206
  grid # 8      748      786      786      786      786      786      786
  grid # 9      394      420      420      420      420      420      420
   
  number of gridpoints: 
     atom       H36      H37      H38      H39      H40      H41      H42
  grid # 1      104      105      101      117      117      107      104
  grid # 2      438      437      415      469      468      436      428
  grid # 3      120      177       66      406      411      146       87
  grid # 4     8714     8714     8714     8714     8714     8714     8714
  grid # 5     1192     1192     1192     1192     1192     1192     1192
  grid # 6     5922     5922     5922     5922     5922     5922     5922
  grid # 7    15206    15206    15206    15206    15206    15206    15206
  grid # 8      786      786      786      786      786      786      786
  grid # 9      420      420      420      420      420      420      420
   
  number of gridpoints: 
     atom       H43      H44      H45      H46      H47      H48      H49
  grid # 1      104      100      110      106      110      105      106
  grid # 2      435      414      453      441      451      427      442
  grid # 3      154       37      288      191      309      107      230
  grid # 4     8714     8714     8714     8714     8714     8714     8714
  grid # 5     1192     1192     1192     1192     1192     1192     1192
  grid # 6     5922     5922     5922     5922     5922     5922     5922
  grid # 7    15206    15206    15206    15206    15206    15206    15206
  grid # 8      786      786      786      786      786      786      786
  grid # 9      420      420      420      420      420      420      420
   
  number of gridpoints: 
     atom       H50      H51      H52      H53      H54      H55      H56
  grid # 1      108      109      110      105      109      106      108
  grid # 2      450      448      444      440      447      449      451
  grid # 3      307      235      219      237      275      206      265
  grid # 4     8714     8714     8714     8714     8714     8714     8714
  grid # 5     1192     1192     1192     1192     1192     1192     1192
  grid # 6     5922     5922     5922     5922     5922     5922     5922
  grid # 7    15206    15206    15206    15206    15206    15206    15206
  grid # 8      786      786      786      786      786      786      786
  grid # 9      420      420      420      420      420      420      420
   
  number of gridpoints: 
     atom       H57      H58      H59      H60      H61      H62      H63
  grid # 1      110      107      107      109      108      108      111
  grid # 2      452      439      448      455      452      446      460
  grid # 3      319      188      253      328      294      243      347
  grid # 4     8714     8714     8714     8714     8714     8714     8714
  grid # 5     1192     1192     1192     1192     1192     1192     1192
  grid # 6     5922     5922     5922     5922     5922     5922     5922
  grid # 7    15206    15206    15206    15206    15206    15206    15206
  grid # 8      786      786      786      786      786      786      786
  grid # 9      420      420      420      420      420      420      420
   
  number of gridpoints: 
     atom       H64      C65      H66      H67      H68      C69      H70
  grid # 1      109       82      108       99      100       79      108
  grid # 2      457      239      445      425      425      241      446
  grid # 3      325        6      257      167      152        6      260
  grid # 4     8714     8714     8714     8714     8714     8714     8714
  grid # 5     1192     1192     1192     1192     1192     1192     1192
  grid # 6     5922     5922     5922     5922     5922     5922     5922
  grid # 7    15206    13950    15206    15206    15206    13950    15206
  grid # 8      786      748      786      786      786      748      786
  grid # 9      420      394      420      420      420      394      420
   
  number of gridpoints: 
     atom       H71      H72      H73      H74      H75      H76    total
  grid # 1      103      101      109      109      109      108     8385
  grid # 2      424      430      445      447      447      447    29387
  grid # 3      143      113      257      270      270      268    10753
  grid # 4     8714     8714     8714     8714     8714     8714   662264
  grid # 5     1192     1192     1192     1192     1192     1192    90592
  grid # 6     5922     5922     5922     5922     5922     5922   456492
  grid # 7    15206    15206    15206    15206    15206    15206  1144822
  grid # 8      786      786      786      786      786      786    58934
  grid # 9      420      420      420      420      420      420    32890
   
  end of program grid
   
 Time(grid)  user:      184.3  user+sys:      184.3  wallclock:      184.9
  
  start of program rwr
  
  end of program rwr
   
 Time(rwr)  user:        7.8  user+sys:        7.8  wallclock:        9.3
  
  start of program scf
  
 number of electrons..........        252
 number of alpha electrons....        126
 number of beta electrons.....        126
 number of orbitals, total....        544
 number of doubly-occ'd orbs..        126
 number of open shell orbs....          0
 number of occupied orbitals..        126
 number of virtual orbitals...        418
 number of hamiltonians.......          1
 number of shells.............          1
 SCF type: DFT=Becke_3_Parameter/HF+Slater+Becke88+PW91+PW-GGAIIC (B3PW91-D3)
 Energy computed with NOPS off.
 Convergence Criterion:
    Energy (econv):       1.00E-05
    RMS density (dconv):  5.00E-06
  
       i  u  d  i  g                   
       t  p  i  c  r                                 RMS    maximum
       e  d  i  u  i                       energy  density   DIIS  
       r  t  s  t  d       total energy    change  change    error 
  
etot    1  N  N  5  M   -1596.22398440458           2.2E-03  1.7E-01
etot    2  Y  Y  6  M   -1598.76451858542  2.5E+00  3.3E-03  1.2E-01
etot    3  Y  Y  6  M   -1599.52431894600  7.6E-01  1.4E-03  4.7E-02
etot    4  N  Y  2  U   -1599.81783409682  2.9E-01  1.2E-03  3.6E-02
etot    5  Y  Y  6  M   -1599.87096707067  5.3E-02  7.3E-04  2.1E-02
etot    6  N  Y  2  U   -1599.87599964805  5.0E-03  4.6E-04  1.1E-02
etot    7  Y  Y  6  M   -1599.87812069864  2.1E-03  8.1E-05  3.5E-03
etot    8  Y  Y  6  M   -1599.87975695408  1.6E-03  1.8E-05  5.4E-04
etot    9  N  Y  2  U   -1599.88055186090  7.9E-04  1.1E-05  1.4E-04
etot   10  N  Y  2  U   -1599.88055751876  5.7E-06  5.6E-06  9.6E-05
etot   11  N  Y  2  U   -1599.88055872375  1.2E-06  2.8E-06  6.7E-05
etot   12  N  N  2  U   -1599.88055927586  5.5E-07  0.0E+00  0.0E+00
 
  Computing the dispersion energy correction and its gradients...
  
  
 Energy components, in hartrees:
   (A)  Nuclear repulsion............    3889.60815342850
   (E)  Total one-electron terms.....   -9973.37307366373
   (F)    Electron-nuclear...........  -11483.41960485277
   (H)    Kinetic....................    1510.04653118905
   (I)  Total two-electron terms.....    4483.88436095937
   (J)    Coulomb....................    4693.63020764318
   (K)    Exchange+Correlation.......    -209.74584668381
   (L)  Electronic energy............   -5489.48871270436  (E+I)
   (N0) D3 correction................      -0.13008443306
   (N)  Total energy.................   -1600.01064370892  (A+L+N0)
   (O)  Gas phase energy.............   -1600.01064370892
  
 SCFE: SCF energy: DFT(b3pw91-d3)     -1600.01064370892 hartrees   iterations:  12
  
 
 HOMO energy:    -0.16033
 LUMO energy:    -0.02921
 
  Orbital energies (hartrees): 
   -77.06661   -10.19630   -10.19498   -10.19498   -10.19071   -10.18047
   -10.17954   -10.17872   -10.17710   -10.17602   -10.17476   -10.17330
   -10.17236   -10.17027   -10.16824   -10.16794   -10.16291   -10.15653
   -10.15619   -10.15594   -10.15524   -10.15512   -10.15416   -10.15374
   -10.15256   -10.15190   -10.15124   -10.15021   -10.15020   -10.14973
    -6.56349    -4.72168    -4.72112    -4.71852    -3.24276    -1.98143
    -1.96082    -1.95923    -0.86683    -0.84786    -0.81517    -0.80584
    -0.80283    -0.80004    -0.76814    -0.75949    -0.74991    -0.71236
    -0.70690    -0.68812    -0.68456    -0.67887    -0.67836    -0.67614
    -0.67438    -0.67385    -0.64140    -0.62133    -0.61580    -0.59633
    -0.58808    -0.57729    -0.54347    -0.54202    -0.52835    -0.52255
    -0.50249    -0.48009    -0.47376    -0.46052    -0.45583    -0.45485
    -0.44667    -0.44384    -0.43922    -0.43536    -0.43258    -0.42998
    -0.42687    -0.42435    -0.42282    -0.41546    -0.41419    -0.40699
    -0.40022    -0.39792    -0.39186    -0.38941    -0.38543    -0.38088
    -0.38026    -0.37938    -0.37451    -0.37216    -0.37002    -0.36536
    -0.36412    -0.36066    -0.35634    -0.35462    -0.34906    -0.34343
    -0.34060    -0.33573    -0.33300    -0.33214    -0.33066    -0.32800
    -0.32600    -0.32293    -0.31581    -0.31423    -0.30657    -0.30318
    -0.29570    -0.29294    -0.28811    -0.24956    -0.24677    -0.22806
    -0.22694    -0.20152    -0.20072    -0.18054    -0.18040    -0.16033
    -0.02921    -0.02803    -0.01287     0.00374     0.00763     0.01666
     0.02915     0.06008     0.06728     0.07052
 
  end of program scf
   
 Time(scf)  user:      226.3  user+sys:      226.3  wallclock:      230.6
  
  start of program der1a
  
  end of program der1a
   
 Time(der1a)  user:        4.4  user+sys:        4.4  wallclock:        4.5
  
  start of program rwr
  
  end of program rwr
   
 Time(rwr)  user:        9.1  user+sys:        9.1  wallclock:       12.4
  
  start of program der1b
  
   
  forces (hartrees/bohr) : total     
   
 atom  label           x              y              z
 ---- --------   -------------  -------------  -------------
    1 P1         -2.448799E-03   2.496644E-03  -9.751152E-03
    2 Pd2         8.249541E-05   7.774998E-03  -1.402724E-03
    3 C3         -4.112459E-03  -3.594205E-04  -2.289735E-03
    4 C4          3.330319E-03   2.796006E-03  -3.105039E-03
    5 C5         -4.791958E-04   9.580387E-04  -6.387616E-03
    6 C6          3.211529E-03  -2.466617E-04  -3.318700E-04
    7 C7          2.084501E-03   4.136310E-03  -6.668667E-04
    8 C8         -2.080156E-03  -9.833125E-04  -3.811372E-03
    9 C9          2.785784E-03  -1.984663E-03   1.811461E-03
   10 C10        -1.673082E-03   4.572726E-03   1.244274E-03
   11 C11         4.963500E-04  -5.475101E-04   4.606360E-03
   12 C12         7.312896E-04  -4.156460E-03   3.483528E-03
   13 C13         3.104379E-04  -2.978609E-03   1.003835E-03
   14 C14         4.244187E-04   1.693459E-04  -7.417061E-03
   15 C15        -7.529067E-04  -3.891268E-07   2.409138E-03
   16 C16         2.780581E-03   1.077886E-04   2.717701E-03
   17 C17         2.670265E-03  -2.538188E-03  -1.826764E-04
   18 C18         7.705377E-04  -1.666714E-03  -4.215335E-03
   19 C19        -1.325605E-03  -2.777591E-03  -7.062951E-04
   20 C20        -2.945284E-03  -7.695306E-04   4.489624E-04
   21 C21        -5.488509E-04  -2.077278E-03  -3.558734E-03
   22 C22         1.094569E-04   9.735036E-04   6.895381E-04
   23 C23         1.601753E-03   3.823325E-04  -2.909320E-03
   24 C24         1.298521E-03   1.002438E-03  -3.587348E-06
   25 C25         1.553225E-03   1.595957E-03  -2.853359E-04
   26 C26         1.116948E-03   1.100086E-03  -1.899448E-03
   27 C27        -3.503625E-04   8.895484E-04   2.266699E-04
   28 C28        -1.856848E-03   1.092076E-03  -3.624089E-04
   29 C29        -1.296676E-03  -9.106860E-06   3.769028E-04
   30 H30         3.164821E-03   5.188449E-03   3.561551E-03
   31 H31         2.116986E-03  -5.277611E-03   2.756509E-03
   32 H32        -1.891280E-03  -5.680223E-04  -3.986091E-03
   33 H33         2.148371E-03   5.372086E-03   4.358241E-03
   34 H34        -6.107655E-03   2.230842E-03   8.128120E-05
   35 H35         2.144192E-03  -6.439631E-04  -3.498275E-03
   36 H36         6.355906E-04   1.743610E-04  -3.520953E-03
   37 H37         7.089919E-04  -3.226102E-03   6.272581E-03
   38 H38        -1.417409E-03   5.673222E-03   2.996127E-03
   39 H39         4.169487E-04   1.037840E-03   6.417510E-03
   40 H40         1.568520E-03  -5.227263E-03   3.822699E-03
   41 H41         1.489150E-03  -5.087389E-03  -2.593433E-03
   42 H42         5.981044E-03   1.646811E-03  -1.674978E-03
   43 H43        -4.611779E-03  -9.099813E-04  -4.013670E-03
   44 H44        -2.021488E-03   3.222652E-03   5.010453E-03
   45 H45         1.326751E-03  -4.087314E-03  -4.206312E-03
   46 H46         3.974240E-03  -1.910910E-03   5.052268E-03
   47 H47        -5.793628E-03  -1.736967E-03   1.872516E-03
   48 H48        -1.823593E-03   2.644645E-03   4.147870E-03
   49 H49         3.856041E-03  -3.388503E-03  -4.066978E-03
   50 H50         4.851342E-03   1.362678E-03   4.991691E-03
   51 H51        -2.783915E-03   2.422062E-03  -1.617092E-03
   52 H52        -5.228597E-03  -2.054653E-03  -2.303004E-03
   53 H53         8.334274E-04  -5.110621E-03  -4.419990E-03
   54 H54        -5.764372E-03  -9.705490E-04   2.475385E-03
   55 H55        -1.177181E-03   3.888848E-03  -1.674067E-03
   56 H56         2.629469E-03  -3.353714E-03  -4.131113E-03
   57 H57         5.094019E-03   1.310647E-03   3.977984E-03
   58 H58        -3.626962E-03  -4.467221E-03   3.359247E-03
   59 H59         4.815061E-03   2.391674E-03   2.055159E-03
   60 H60         1.298810E-03  -1.749142E-03  -6.724586E-03
   61 H61        -3.460910E-03   4.181909E-03   2.066911E-03
   62 H62         5.335625E-03   1.474427E-03   2.406399E-03
   63 H63        -1.059678E-03  -6.112032E-03   2.484960E-03
   64 H64         1.474490E-03  -1.275177E-03  -6.137664E-03
   65 C65        -2.286384E-03  -2.126895E-03  -3.176714E-04
   66 H66         4.137430E-03   4.473344E-03   1.720188E-05
   67 H67         7.055691E-04  -3.741600E-03   5.655017E-03
   68 H68        -5.930256E-03   2.328210E-03   4.119348E-04
   69 C69         1.421676E-03  -4.118340E-03  -1.108228E-03
   70 H70        -5.763234E-03   8.089182E-04   2.782887E-03
   71 H71         2.141076E-03  -4.988511E-03   4.271953E-03
   72 H72        -1.486173E-03   1.088987E-03  -2.614543E-03
   73 H73        -5.956438E-03   2.522544E-04   1.854615E-04
   74 H74        -5.749033E-03  -1.098680E-03   1.906060E-03
   75 H75         2.957739E-03   4.499482E-03   2.503613E-03
   76 H76         2.297928E-03   5.930603E-03   2.165255E-03
 -------------   -------------  -------------  -------------
     total        1.073531E-03  -6.738419E-04   1.189872E-03
   
  end of program der1b
   
 Time(der1b)  user:       77.5  user+sys:       77.5  wallclock:       78.2
  
  start of program geopt
  
 ----------------------------------------------------------------------------
  Geometry optimization step   1
  Total energy:     -1600.01064370892 hartrees
 ----------------------------------------------------------------------------
  
  
  Level shifts adjusted to satisfy step-size constraints
   Step size:    0.3003162
   Cos(theta):   0.9000862
   Final level shift:  -1.4233367E-01
  
  gradient maximum:        7.2562E-02 .  (  2.2500E-03 )
  gradient rms:            9.8601E-03 .  (  1.5000E-03 )
  displacement maximum:    6.2772E-02 .  (  9.0000E-03 )
  displacement rms:        1.2033E-02 .  (  6.0000E-03 )
  
  predicted energy change:  -1.9811E-02
  step size:     0.18447
  trust radius:  0.30000
  
  molecular structure not yet converged...
  
  center of mass moved by:
     x:    -2.6729E-02     y:     2.2432E-01     z:    -4.0315E-02
  
  new geometry: 
                                   angstroms
  atom               x                 y                 z
  P1           -0.0275065904      0.0958033351      0.0313723683 
  Pd2          -0.0807717339      0.4112890994      2.2190155856 
  C3            1.7705603448     -0.0581150614     -0.7315320580 
  C4           -1.1099468263     -1.4596378745     -0.4847966698 
  C5           -0.7439763291      1.5294307475     -0.9473440289 
  C6            1.9312820037     -0.1888355574     -2.2620334516 
  C7            2.4367960738     -1.2704627130     -0.0526899215 
  C8           -0.9805717648     -2.4625081545      0.6816557322 
  C9           -2.5760294723     -1.0011111835     -0.5993330205 
  C10          -0.8193587321      1.4152117773     -2.3504074799 
  C11          -1.1787000451      2.4827850227     -3.1745865089 
  C12          -1.4677058148      3.7201531922     -2.5933564509 
  C13          -1.4695635750      3.8265128757     -1.2028499329 
  C14          -1.1569833013      2.7443710967     -0.3541882725 
  C15          -1.4523808526      2.9436039789      1.1087574574 
  C16          -2.7888048215      2.7558430680      1.5457434216 
  C17          -3.0994002670      2.9969021346      2.8885750451 
  C18          -2.1350202631      3.4094870343      3.8137338057 
  C19          -0.8411504689      3.6446044746      3.3440605124 
  C20          -0.4809795751      3.4346011531      2.0066267506 
  C21           0.9137854947      3.8074318688      1.5235010862 
  C22           0.9532018764      5.2902463905      1.0988538868 
  C23          -3.9055084763      2.3352264773      0.5883121112 
  C24          -4.8634455636      1.2875829515      1.1834036302 
  C25          -2.4664252082      3.5646945495      5.2899583441 
  C26           2.0274688267      3.5123637931      2.5386150773 
  C27          -4.7139442139      3.5654447587      0.1252650035 
  C28          -2.8101118373      2.1997300766      5.9163382616 
  C29          -3.5878652188      4.5892653880      5.5334642115 
  H30           1.4301837868     -1.0600492201     -2.6975163359 
  H31           1.6004570692      0.7141148951     -2.7922600276 
  H32           2.3757431939     -1.2011220059      1.0427896979 
  H33           1.9988597693     -2.2241592252     -0.3808754316 
  H34           0.0599704315     -2.7867689221      0.8302740048 
  H35          -1.3432189284     -2.0293895000      1.6240563867 
  H36          -2.9003109134     -0.4730981984      0.3085747634 
  H37          -2.7369781457     -0.3475731658     -1.4691091285 
  H38          -0.5984401163      0.4570575783     -2.8133885750 
  H39          -1.2212681645      2.3443267514     -4.2572733708 
  H40          -1.7217924632      4.5860463923     -3.2086507990 
  H41          -1.7592746429      4.7697814120     -0.7361387508 
  H42          -4.1219351037      2.8206098197      3.2299603738 
  H43          -0.0832177116      3.9865880404      4.0520635072 
  H44           1.1211500514      3.1973288493      0.6337641674 
  H45           0.7114820513      5.9426843300      1.9541405780 
  H46           0.2330546092      5.5038301057      0.2954348743 
  H47           1.9586452044      5.5621304315      0.7362656354 
  H48          -3.4376499978      1.8765467395     -0.2966113851 
  H49          -5.4882316956      1.7103482014      1.9869344745 
  H50          -5.5479176223      0.9214386833      0.4009044879 
  H51          -4.3062977838      0.4336521798      1.5934959783 
  H52          -1.5553296183      3.9406574707      5.7889359662 
  H53           1.9719695229      4.1805574627      3.4135222479 
  H54           3.0104752786      3.6777326492      2.0687360044 
  H55           1.9851191964      2.4698213052      2.8864572112 
  H56          -5.1799990055      4.0646939646      0.9907805292 
  H57          -5.5184869288      3.2627987650     -0.5659479951 
  H58          -4.0833748014      4.3030056276     -0.3906031955 
  H59          -3.7430031313      1.7971552226      5.4892920067 
  H60          -2.9493199605      2.2938450782      7.0062432845 
  H61          -2.0124743118      1.4675565307      5.7196837068 
  H62          -4.5313704939      4.2652544230      5.0651678069 
  H63          -3.3274030870      5.5744431029      5.1162756565 
  H64          -3.7781672207      4.7103964561      6.6126931516 
  C65          -0.7366150373     -2.2088249550     -1.7798199943 
  H66          -1.4304782581     -3.0622700733     -1.8830755667 
  H67          -0.8529685029     -1.6021656982     -2.6892612649 
  H68           0.2796500052     -2.6232035950     -1.7605654116 
  C69           2.5139449208      1.2270150312     -0.3245972780 
  H70           3.5694829987      1.1422397533     -0.6399891319 
  H71           2.0867990118      2.1030503605     -0.8360414497 
  H72           2.4912893281      1.3862680071      0.7611947194 
  H73           3.0108191382     -0.3036380760     -2.4675534624 
  H74           3.5060400590     -1.2880272230     -0.3298288353 
  H75          -1.5848523471     -3.3585435392      0.4499339113 
  H76          -3.2163815462     -1.8927497041     -0.7220690263 
   
 
  bond lengths (angstroms):
 
 P1      -Pd2     :   2.210916      P1      -C3      :   1.959275
 P1      -C4      :   1.964053      P1      -C5      :   1.877898
 C3      -C6      :   1.544459      C3      -C7      :   1.540936
 C3      -C69     :   1.539408      C4      -C8      :   1.543729
 C4      -C9      :   1.540378      C4      -C65     :   1.541993
 C5      -C10     :   1.409722      C5      -C14     :   1.413679
 C6      -H30     :   1.095335      C6      -H31     :   1.098137
 C6      -H73     :   1.104907      C7      -H32     :   1.099369
 C7      -H33     :   1.099559      C7      -H74     :   1.104716
 C8      -H34     :   1.099982      C8      -H35     :   1.098737
 C8      -H75     :   1.105319      C9      -H36     :   1.099205
 C9      -H37     :   1.099785      C9      -H76     :   1.104597
 C10     -C11     :   1.395747      C10     -H38     :   1.086838
 C11     -C12     :   1.397295      C11     -H39     :   1.092334
 C12     -C13     :   1.394570      C12     -H40     :   1.092208
 C13     -C14     :   1.410306      C13     -H41     :   1.091562
 C14     -C15     :   1.505710      C15     -C16     :   1.418534
 C15     -C20     :   1.410981      C16     -C17     :   1.399205
 C16     -C23     :   1.529909      C17     -C18     :   1.398633
 C17     -H42     :   1.092337      C18     -C19     :   1.396414
 C18     -C25     :   1.520907      C19     -C20     :   1.400912
 C19     -H43     :   1.092100      C20     -C21     :   1.522427
 C21     -C22     :   1.542925      C21     -C26     :   1.535517
 C21     -H44     :   1.098571      C22     -H45     :   1.102551
 C22     -H46     :   1.099869      C22     -H47     :   1.102863
 C23     -C24     :   1.539264      C23     -C27     :   1.543184
 C23     -H48     :   1.101076      C24     -H49     :   1.102157
 C24     -H50     :   1.102211      C24     -H51     :   1.098994
 C25     -C28     :   1.540649      C25     -C29     :   1.538398
 C25     -H52     :   1.104727      C26     -H53     :   1.102282
 C26     -H54     :   1.102014      C26     -H55     :   1.099856
 C27     -H56     :   1.102531      C27     -H57     :   1.103023
 C27     -H58     :   1.098969      C28     -H59     :   1.102144
 C28     -H60     :   1.102783      C28     -H61     :   1.100444
 C29     -H62     :   1.102038      C29     -H63     :   1.101118
 C29     -H64     :   1.102553      C65     -H66     :   1.104752
 C65     -H67     :   1.099389      C65     -H68     :   1.097668
 C69     -H70     :   1.104907      C69     -H71     :   1.100666
 C69     -H72     :   1.097642
 
  bond angles:
 
 C3      -P1      -Pd2     : 114.746338  C4      -P1      -Pd2     : 111.086171
 C4      -P1      -C3      : 109.951945  C5      -P1      -Pd2     : 113.425888
 C5      -P1      -C3      : 101.956726  C5      -P1      -C4      : 104.913239
 C6      -C3      -P1      : 119.210016  C7      -C3      -P1      : 106.681619
 C7      -C3      -C6      : 108.964050  C69     -C3      -P1      : 105.941544
 C69     -C3      -C6      : 106.401195  C69     -C3      -C7      : 109.363685
 C8      -C4      -P1      : 105.647543  C9      -C4      -P1      : 107.959395
 C9      -C4      -C8      : 109.228023  C65     -C4      -P1      : 118.168046
 C65     -C4      -C8      : 107.377385  C65     -C4      -C9      : 108.216660
 C10     -C5      -P1      : 118.506743  C14     -C5      -P1      : 123.290487
 C14     -C5      -C10     : 118.138924  H30     -C6      -C3      : 114.437446
 H31     -C6      -C3      : 112.181000  H31     -C6      -H30     : 108.918409
 H73     -C6      -C3      : 107.145177  H73     -C6      -H30     : 106.881002
 H73     -C6      -H31     : 106.855902  H32     -C7      -C3      : 111.428889
 H33     -C7      -C3      : 112.253406  H33     -C7      -H32     : 109.268891
 H74     -C7      -C3      : 108.691150  H74     -C7      -H32     : 107.742262
 H74     -C7      -H33     : 107.267153  H34     -C8      -C4      : 111.892985
 H35     -C8      -C4      : 111.367337  H35     -C8      -H34     : 108.212468
 H75     -C8      -C4      : 108.808872  H75     -C8      -H34     : 107.849237
 H75     -C8      -H35     : 108.598113  H36     -C9      -C4      : 111.245132
 H37     -C9      -C4      : 112.023148  H37     -C9      -H36     : 108.941428
 H76     -C9      -C4      : 108.646857  H76     -C9      -H36     : 107.968917
 H76     -C9      -H37     : 107.876229  C11     -C10     -C5      : 122.649540
 H38     -C10     -C5      : 118.982142  H38     -C10     -C11     : 118.365969
 C12     -C11     -C10     : 119.009592  H39     -C11     -C10     : 119.891529
 H39     -C11     -C12     : 121.096504  C13     -C12     -C11     : 118.853365
 H40     -C12     -C11     : 121.053241  H40     -C12     -C13     : 120.061814
 C14     -C13     -C12     : 122.764554  H41     -C13     -C12     : 119.510064
 H41     -C13     -C14     : 117.684595  C13     -C14     -C5      : 118.144998
 C15     -C14     -C5      : 125.359036  C15     -C14     -C13     : 116.081849
 C16     -C15     -C14     : 117.815128  C20     -C15     -C14     : 121.954804
 C20     -C15     -C16     : 119.909969  C17     -C16     -C15     : 118.814148
 C23     -C16     -C15     : 122.091424  C23     -C16     -C17     : 119.073737
 C18     -C17     -C16     : 122.180363  H42     -C17     -C16     : 118.680569
 H42     -C17     -C18     : 119.099969  C19     -C18     -C17     : 117.779429
 C25     -C18     -C17     : 121.459706  C25     -C18     -C19     : 120.742273
 C20     -C19     -C18     : 122.281549  H43     -C19     -C18     : 118.536936
 H43     -C19     -C20     : 119.171920  C19     -C20     -C15     : 118.860154
 C21     -C20     -C15     : 120.931272  C21     -C20     -C19     : 120.118384
 C22     -C21     -C20     : 110.248642  C26     -C21     -C20     : 114.055159
 C26     -C21     -C22     : 110.370759  H44     -C21     -C20     : 107.094050
 H44     -C21     -C22     : 107.818266  H44     -C21     -C26     : 106.965545
 H45     -C22     -C21     : 110.462788  H46     -C22     -C21     : 111.773530
 H46     -C22     -H45     : 107.950150  H47     -C22     -C21     : 110.529887
 H47     -C22     -H45     : 108.000581  H47     -C22     -H46     : 107.992436
 C24     -C23     -C16     : 113.542491  C27     -C23     -C16     : 110.548025
 C27     -C23     -C24     : 109.424295  H48     -C23     -C16     : 107.898795
 H48     -C23     -C24     : 106.955158  H48     -C23     -C27     : 108.272442
 H49     -C24     -C23     : 111.936227  H50     -C24     -C23     : 109.760905
 H50     -C24     -H49     : 107.036044  H51     -C24     -C23     : 110.953382
 H51     -C24     -H49     : 108.263185  H51     -C24     -H50     : 108.761001
 C28     -C25     -C18     : 110.659946  C29     -C25     -C18     : 112.361018
 C29     -C25     -C28     : 111.289580  H52     -C25     -C18     : 107.063290
 H52     -C25     -C28     : 107.569107  H52     -C25     -C29     : 107.640813
 H53     -C26     -C21     : 111.821593  H54     -C26     -C21     : 109.648310
 H54     -C26     -H53     : 107.000276  H55     -C26     -C21     : 111.302935
 H55     -C26     -H53     : 108.762121  H55     -C26     -H54     : 108.145781
 H56     -C27     -C23     : 110.296670  H57     -C27     -C23     : 110.573797
 H57     -C27     -H56     : 107.930152  H58     -C27     -C23     : 112.042176
 H58     -C27     -H56     : 107.886944  H58     -C27     -H57     : 107.969106
 H59     -C28     -C25     : 110.787428  H60     -C28     -C25     : 110.754833
 H60     -C28     -H59     : 107.894709  H61     -C28     -C25     : 110.800918
 H61     -C28     -H59     : 107.532872  H61     -C28     -H60     : 108.959437
 H62     -C29     -C25     : 111.163436  H63     -C29     -C25     : 111.313482
 H63     -C29     -H62     : 107.732301  H64     -C29     -C25     : 110.727684
 H64     -C29     -H62     : 107.486251  H64     -C29     -H63     : 108.263866
 H66     -C65     -C4      : 107.563806  H67     -C65     -C4      : 113.641161
 H67     -C65     -H66     : 106.409522  H68     -C65     -C4      : 113.131194
 H68     -C65     -H66     : 106.947779  H68     -C65     -H67     : 108.711986
 H70     -C69     -C3      : 108.772855  H71     -C69     -C3      : 110.744923
 H71     -C69     -H70     : 107.407696  H72     -C69     -C3      : 111.878837
 H72     -C69     -H70     : 108.253068  H72     -C69     -H71     : 109.643382
 
  torsional angles:
 
 P1      -C3      -C6      -H30     : -59.405651
 P1      -C3      -C6      -H31     :  65.334205
 P1      -C3      -C6      -H73     :-177.698572
 P1      -C3      -C7      -H32     : -52.015098
 P1      -C3      -C7      -H33     :  70.916125
 P1      -C3      -C7      -H74     :-170.594178
 P1      -C3      -C69     -H70     : 174.059450
 P1      -C3      -C69     -H71     : -68.125013
 P1      -C3      -C69     -H72     :  54.522638
 P1      -C4      -C8      -H34     : -61.673008
 P1      -C4      -C8      -H35     :  59.586567
 P1      -C4      -C8      -H75     : 179.259202
 P1      -C4      -C9      -H36     : -51.936583
 P1      -C4      -C9      -H37     :  70.267964
 P1      -C4      -C9      -H76     :-170.656389
 P1      -C4      -C65     -H66     : 178.211526
 P1      -C4      -C65     -H67     : -64.271088
 P1      -C4      -C65     -H68     :  60.326731
 P1      -C5      -C10     -C11     :-171.841915
 P1      -C5      -C10     -H38     :   8.725060
 P1      -C5      -C14     -C13     : 169.644212
 P1      -C5      -C14     -C15     : -18.053465
 Pd2     -P1      -C3      -C6      :-176.083744
 Pd2     -P1      -C3      -C7      :  60.121219
 Pd2     -P1      -C3      -C69     : -56.338637
 Pd2     -P1      -C4      -C8      : -33.412414
 Pd2     -P1      -C4      -C9      :  83.351259
 Pd2     -P1      -C4      -C65     :-153.532495
 Pd2     -P1      -C5      -C10     :-177.149811
 Pd2     -P1      -C5      -C14     :   5.813644
 C3      -P1      -C4      -C8      :  94.704442
 C3      -P1      -C4      -C9      :-148.531886
 C3      -P1      -C4      -C65     : -25.415640
 C3      -P1      -C5      -C10     :  58.927417
 C3      -P1      -C5      -C14     :-118.109128
 C4      -P1      -C3      -C6      :  57.846318
 C4      -P1      -C3      -C7      : -65.948719
 C4      -P1      -C3      -C69     : 177.591424
 C4      -P1      -C5      -C10     : -55.740412
 C4      -P1      -C5      -C14     : 127.223043
 C5      -P1      -C3      -C6      : -53.053609
 C5      -P1      -C3      -C7      :-176.848646
 C5      -P1      -C3      -C69     :  66.691498
 C5      -P1      -C4      -C8      :-156.344138
 C5      -P1      -C4      -C9      : -39.580466
 C5      -P1      -C4      -C65     :  83.535780
 C5      -C10     -C11     -C12     :   0.459839
 C5      -C10     -C11     -H39     : 179.905286
 C5      -C14     -C13     -C12     :   4.096900
 C5      -C14     -C13     -H41     :-178.240203
 C5      -C14     -C15     -C16     : -91.645044
 C5      -C14     -C15     -C20     :  94.862362
 C6      -C3      -C7      -H32     : 178.068886
 C6      -C3      -C7      -H33     : -58.999891
 C6      -C3      -C7      -H74     :  59.489805
 C6      -C3      -C69     -H70     : -58.124061
 C6      -C3      -C69     -H71     :  59.691476
 C6      -C3      -C69     -H72     :-177.660872
 C7      -C3      -C6      -H30     :  63.269387
 C7      -C3      -C6      -H31     :-171.990757
 C7      -C3      -C6      -H73     : -55.023534
 C7      -C3      -C69     -H70     :  59.425425
 C7      -C3      -C69     -H71     : 177.240962
 C7      -C3      -C69     -H72     : -60.111387
 C8      -C4      -C9      -H36     :  62.478200
 C8      -C4      -C9      -H37     :-175.317253
 C8      -C4      -C9      -H76     : -56.241606
 C8      -C4      -C65     -H66     :  58.991645
 C8      -C4      -C65     -H67     : 176.509031
 C8      -C4      -C65     -H68     : -58.893150
 C9      -C4      -C8      -H34     :-177.574359
 C9      -C4      -C8      -H35     : -56.314785
 C9      -C4      -C8      -H75     :  63.357851
 C9      -C4      -C65     -H66     : -58.801364
 C9      -C4      -C65     -H67     :  58.716022
 C9      -C4      -C65     -H68     :-176.686160
 C10     -C5      -C14     -C13     :  -7.402578
 C10     -C5      -C14     -C15     : 164.899745
 C10     -C11     -C12     -C13     :  -3.984242
 C10     -C11     -C12     -H40     : 178.058762
 C11     -C10     -C5      -C14     :   5.349039
 C11     -C12     -C13     -C14     :   1.717129
 C11     -C12     -C13     -H41     :-175.904792
 C12     -C11     -C10     -H38     : 179.896189
 C12     -C13     -C14     -C15     :-168.917268
 C13     -C12     -C11     -H39     : 176.577223
 C13     -C14     -C15     -C16     :  80.798751
 C13     -C14     -C15     -C20     : -92.693844
 C14     -C5      -C10     -H38     :-174.083986
 C14     -C13     -C12     -H40     : 179.694899
 C14     -C15     -C16     -C17     :-177.017153
 C14     -C15     -C16     -C23     :   1.312084
 C14     -C15     -C20     -C19     : 177.522624
 C14     -C15     -C20     -C21     :   0.971960
 C15     -C14     -C13     -H41     :   8.745629
 C15     -C16     -C17     -C18     :  -0.342718
 C15     -C16     -C17     -H42     :-178.046623
 C15     -C16     -C23     -C24     : 138.677101
 C15     -C16     -C23     -C27     : -97.906588
 C15     -C16     -C23     -H48     :  20.318093
 C15     -C20     -C19     -C18     :  -1.270676
 C15     -C20     -C19     -H43     : 177.585439
 C15     -C20     -C21     -C22     :  89.927489
 C15     -C20     -C21     -C26     :-145.254135
 C15     -C20     -C21     -H44     : -27.116468
 C16     -C15     -C20     -C19     :   4.163107
 C16     -C15     -C20     -C21     :-172.387557
 C16     -C17     -C18     -C19     :   3.168909
 C16     -C17     -C18     -C25     :-175.273502
 C16     -C23     -C24     -H49     :  69.547634
 C16     -C23     -C24     -H50     :-171.748334
 C16     -C23     -C24     -H51     : -51.515578
 C16     -C23     -C27     -H56     : -60.761029
 C16     -C23     -C27     -H57     : 179.936393
 C16     -C23     -C27     -H58     :  59.440297
 C17     -C16     -C15     -C20     :  -3.386267
 C17     -C16     -C23     -C24     : -42.997854
 C17     -C16     -C23     -C27     :  80.418457
 C17     -C16     -C23     -H48     :-161.356862
 C17     -C18     -C19     -C20     :  -2.350328
 C17     -C18     -C19     -H43     : 178.786593
 C17     -C18     -C25     -C28     :  65.548607
 C17     -C18     -C25     -C29     : -59.530282
 C17     -C18     -C25     -H52     :-177.502600
 C18     -C17     -C16     -C23     :-178.723188
 C18     -C19     -C20     -C21     : 175.308758
 C18     -C25     -C28     -H59     : -66.119365
 C18     -C25     -C28     -H60     : 174.189024
 C18     -C25     -C28     -H61     :  53.149251
 C18     -C25     -C29     -H62     :  62.871865
 C18     -C25     -C29     -H63     : -57.235351
 C18     -C25     -C29     -H64     :-177.721190
 C19     -C18     -C17     -H42     :-179.136484
 C19     -C18     -C25     -C28     :-112.847991
 C19     -C18     -C25     -C29     : 122.073120
 C19     -C18     -C25     -H52     :   4.100802
 C19     -C20     -C21     -C22     : -86.580015
 C19     -C20     -C21     -C26     :  38.238362
 C19     -C20     -C21     -H44     : 156.376028
 C20     -C15     -C16     -C23     : 174.942970
 C20     -C19     -C18     -C25     : 176.103808
 C20     -C21     -C22     -H45     :  61.226654
 C20     -C21     -C22     -H46     : -58.989536
 C20     -C21     -C22     -H47     :-179.304933
 C20     -C21     -C26     -H53     : -69.197002
 C20     -C21     -C26     -H54     : 172.288930
 C20     -C21     -C26     -H55     :  52.674174
 C21     -C20     -C19     -H43     :  -5.835127
 C22     -C21     -C26     -H53     :  55.556311
 C22     -C21     -C26     -H54     : -62.957757
 C22     -C21     -C26     -H55     : 177.427488
 C23     -C16     -C17     -H42     :   3.572906
 C24     -C23     -C27     -H56     :  65.006201
 C24     -C23     -C27     -H57     : -54.296376
 C24     -C23     -C27     -H58     :-174.792473
 C25     -C18     -C17     -H42     :   2.421105
 C25     -C18     -C19     -H43     :  -2.759272
 C26     -C21     -C22     -H45     : -65.673766
 C26     -C21     -C22     -H46     : 174.110044
 C26     -C21     -C22     -H47     :  53.794647
 C27     -C23     -C24     -H49     : -54.480985
 C27     -C23     -C24     -H50     :  64.223047
 C27     -C23     -C24     -H51     :-175.544197
 C28     -C25     -C29     -H62     : -61.861094
 C28     -C25     -C29     -H63     : 178.031690
 C28     -C25     -C29     -H64     :  57.545851
 C29     -C25     -C28     -H59     :  59.563753
 C29     -C25     -C28     -H60     : -60.127858
 C29     -C25     -C28     -H61     : 178.832369
 H30     -C6      -C3      -C69     :-178.916386
 H31     -C6      -C3      -C69     : -54.176530
 H32     -C7      -C3      -C69     :  62.141380
 H33     -C7      -C3      -C69     :-174.927397
 H34     -C8      -C4      -C65     :  65.292123
 H35     -C8      -C4      -C65     :-173.448303
 H36     -C9      -C4      -C65     : 179.079924
 H37     -C9      -C4      -C65     : -58.715529
 H38     -C10     -C11     -H39     :  -0.658364
 H39     -C11     -C12     -H40     :  -1.379772
 H40     -C12     -C13     -H41     :   2.072978
 H44     -C21     -C22     -H45     : 177.820134
 H44     -C21     -C22     -H46     :  57.603943
 H44     -C21     -C22     -H47     : -62.711454
 H44     -C21     -C26     -H53     : 172.591845
 H44     -C21     -C26     -H54     :  54.077777
 H44     -C21     -C26     -H55     : -65.536979
 H48     -C23     -C24     -H49     :-171.550752
 H48     -C23     -C24     -H50     : -52.846721
 H48     -C23     -C24     -H51     :  67.386036
 H48     -C23     -C27     -H56     :-178.757281
 H48     -C23     -C27     -H57     :  61.940141
 H48     -C23     -C27     -H58     : -58.555956
 H52     -C25     -C28     -H59     : 177.244138
 H52     -C25     -C28     -H60     :  57.552527
 H52     -C25     -C28     -H61     : -63.487246
 H52     -C25     -C29     -H62     :-179.498063
 H52     -C25     -C29     -H63     :  60.394720
 H52     -C25     -C29     -H64     : -60.091119
 C65     -C4      -C8      -H75     : -53.775667
 C65     -C4      -C9      -H76     :  60.360118
 C69     -C3      -C6      -H73     :  62.790693
 C69     -C3      -C7      -H74     : -56.437701
 
  nuclear repulsion energy.......    3969.383789828 hartrees
  -------------------------------------------------
 /  end of geometry optimization iteration   1   /
 -------------------------------------------------
   
  end of program geopt
   
 Time(geopt)  user:        0.3  user+sys:        0.3  wallclock:        0.4
  
  start of program onee
  
  smallest eigenvalue of S:    3.000E-04
  number of canonical orbitals.....          543
  end of program onee
   
 Time(onee)  user:        1.5  user+sys:        1.5  wallclock:        1.4
  
  start of program probe
  
  end of program probe
   
 Time(probe)  user:        0.3  user+sys:        0.3  wallclock:        0.2
  
  start of program grid
  
   grid     grid set  grid #  grid sym
  ------    --------  ------  --------
  coarse        0        0        1
  medium        2        1        1
  fine          0        0        1
  ultrafine     4        2        1
  charge       -1        3        1
  gradient      4        2        1
  density       0        0        1
  DFT-fine    -11        4        1
  DFT-med.    -10        5        1
  DFT-grad    -12        6        1
  DFT-der2     -8        7        1
  DFT-cphf     -9        8        1
  LMP2-enrg     4        2        1
  LMP2-grad     2        1        1
  DFT-cphf2   -15        9        1
  PBF-dens      0        0        1
  plotting      0        0        1
  Rel-grad    -17        0        1
  
  number of gridpoints: 
     atom        P1      Pd2       C3       C4       C5       C6       C7
  grid # 1      609      387       87       88       95       81       80
  grid # 2      429      379      373      366      386      236      239
  grid # 3        6      389        6        6        7        6        6
  grid # 4     8714     8714     8714     8714     8714     8714     8714
  grid # 5     1192     1192     1192     1192     1192     1192     1192
  grid # 6     9132     9132     5922     5922     5922     5922     5922
  grid # 7    23034    32968    13950    13950    13950    13950    13950
  grid # 8      722     1150      748      748      748      748      748
  grid # 9      366     2198      394      394      394      394      394
   
  number of gridpoints: 
[...]
    C18      Z    -0.00034  0.00183 -0.00279  0.00000  0.00002  0.00001
    C19      X     0.00073 -0.01313 -0.05689  0.00005  0.00014  0.00004
    C19      Y     0.00039 -0.00653 -0.02695  0.00001  0.00008  0.00002
    C19      Z     0.00077 -0.01240 -0.04890 -0.00001  0.00018  0.00003
    C20      X     0.00002 -0.00021 -0.00121 -0.00002  0.00004  0.00002
    C20      Y    -0.00000  0.00009  0.00016  0.00001  0.00001  0.00001
    C20      Z     0.00001  0.00054  0.00180  0.00010 -0.00012 -0.00001
    C21      X    -0.00002 -0.00001 -0.00014  0.00002 -0.00001 -0.00001
    C21      Y     0.00008 -0.00018 -0.00059 -0.00000  0.00003  0.00002
    C21      Z     0.00017 -0.00032 -0.00097  0.00005 -0.00001  0.00003
    C22      X     0.00085  0.00009 -0.00040  0.00132 -0.00109 -0.00002
    C22      Y     0.00005 -0.00009 -0.00037  0.00003  0.00002  0.00002
    C22      Z     0.00079 -0.00032 -0.00145  0.00118 -0.00108 -0.00003
    C23      X     0.00001 -0.00078  0.00017 -0.00010  0.00005 -0.00000
    C23      Y    -0.00000  0.00032 -0.00007 -0.00001  0.00004  0.00000
    C23      Z     0.00003  0.00096 -0.00017  0.00013 -0.00008  0.00000
    C24      X     0.00045 -0.00269  0.00062  0.00004 -0.00014 -0.00001
    C24      Y    -0.00046  0.00279 -0.00057 -0.00004  0.00008 -0.00003
    C24      Z    -0.00045  0.00303 -0.00058  0.00003 -0.00005 -0.00002
    C25      X     0.00014 -0.00108 -0.00102  0.00000  0.00001  0.00001
    C25      Y     0.00004 -0.00026 -0.00036  0.00000  0.00001  0.00000
    C25      Z     0.00003 -0.00029 -0.00074  0.00001  0.00001  0.00001
    C26      X    -0.00003  0.00033  0.00094  0.00000  0.00003  0.00002
    C26      Y     0.00001 -0.00089 -0.00312 -0.00007  0.00013  0.00001
    C26      Z     0.00009 -0.00102 -0.00347  0.00001 -0.00001 -0.00001
    C27      X    -0.00090 -0.00128  0.00029 -0.00164  0.00137  0.00002
    C27      Y    -0.00091 -0.00015  0.00006 -0.00145  0.00128  0.00003
    C27      Z     0.00054  0.00196 -0.00037  0.00129 -0.00125 -0.00005
    C28      X     0.00043 -0.00279  0.00018 -0.00001 -0.00002 -0.00001
    C28      Y     0.00002 -0.00012 -0.00007  0.00001  0.00001  0.00001
    C28      Z     0.00021 -0.00133 -0.00009  0.00002  0.00002  0.00002
    C29      X     0.00040 -0.00265  0.00007 -0.00001 -0.00000 -0.00000
    C29      Y     0.00023 -0.00149 -0.00003 -0.00000  0.00001  0.00000
    C29      Z     0.00017 -0.00104 -0.00007  0.00003  0.00001  0.00002
    H30      X    -0.00595 -0.00030 -0.00021  0.00363  0.00137 -0.00764
    H30      Y    -0.00787 -0.00042 -0.00024  0.00485  0.00184 -0.01273
    H30      Z    -0.00546 -0.00028 -0.00017  0.00337  0.00130 -0.00822
    H31      X     0.00225  0.00023  0.00003 -0.00212 -0.00122  0.00833
    H31      Y    -0.00947 -0.00089 -0.00032  0.00955  0.00602 -0.03346
    H31      Z     0.00456  0.00043  0.00016 -0.00459 -0.00286  0.01604
    H32      X     0.00003 -0.00002 -0.00002  0.00003  0.00005 -0.00042
    H32      Y     0.00003 -0.00004  0.00004 -0.00000 -0.00001 -0.00019
    H32      Z    -0.00030  0.00017 -0.00014 -0.00009 -0.00005  0.00226
    H33      X    -0.00032  0.00019 -0.00014  0.00013  0.00013  0.00024
    H33      Y    -0.00063  0.00038 -0.00027  0.00027  0.00018  0.00045
    H33      Z    -0.00031  0.00022 -0.00014  0.00013  0.00011  0.00023
    H34      X     0.00022  0.00054  0.00012 -0.00013 -0.00015 -0.00026
    H34      Y    -0.00007 -0.00024 -0.00002  0.00006  0.00003 -0.00001
    H34      Z     0.00004  0.00002  0.00001 -0.00003 -0.00002  0.00000
    H35      X    -0.00000 -0.00007  0.00004 -0.00003  0.00003 -0.00068
    H35      Y     0.00007 -0.00003  0.00002 -0.00001 -0.00013  0.00102
    H35      Z     0.00009  0.00001 -0.00007  0.00004 -0.00020  0.00233
    H36      X    -0.00019 -0.00036  0.00015  0.00004  0.00002 -0.00057
    H36      Y     0.00048  0.00049 -0.00018 -0.00003 -0.00016  0.00078
    H36      Z     0.00080  0.00116 -0.00047 -0.00009 -0.00033  0.00219
    H37      X     0.00037 -0.00006  0.00010 -0.00022 -0.00030  0.00083
    H37      Y    -0.00112  0.00016 -0.00028  0.00025  0.00039 -0.00160
    H37      Z     0.00132 -0.00027  0.00040 -0.00025 -0.00050  0.00107
    H38      X    -0.03030 -0.00450  0.00053  0.04077  0.03370 -0.32162
    H38      Y     0.07041  0.01049 -0.00123 -0.09498 -0.07824  0.74934
    H38      Z     0.04506  0.00679 -0.00089 -0.06184 -0.05015  0.45825
    H39      X     0.01641  0.00253 -0.00042 -0.02073 -0.01060 -0.00409
    H39      Y    -0.00914 -0.00144  0.00024  0.01414  0.00931  0.00032
    H39      Z    -0.56905 -0.08845  0.01452  0.67209  0.30616  0.17168
    H40      X     0.20951  0.03106 -0.00385  0.09300  0.18687  0.01149
    H40      Y    -0.54072 -0.08015  0.00994 -0.23947 -0.48190 -0.02939
    H40      Z     0.33899  0.05032 -0.00630  0.14366  0.30291  0.01666
    H41      X    -0.12346 -0.01836  0.00327 -0.22247  0.24739  0.00940
    H41      Y     0.26134  0.03849 -0.00702  0.47039 -0.52238 -0.01999
    H41      Z     0.15920  0.02337 -0.00421  0.28882 -0.32644 -0.01271
    H42      X    -0.13558  0.86593 -0.21285  0.00254  0.00214  0.00087
    H42      Y    -0.01021  0.06522 -0.01632  0.00025  0.00008  0.00005
    H42      Z     0.04432 -0.28331  0.06825 -0.00077 -0.00081 -0.00034
    H43      X    -0.00931  0.15859  0.65774 -0.00013 -0.00209 -0.00049
    H43      Y    -0.00451  0.07594  0.31325 -0.00005 -0.00102 -0.00023
    H43      Z    -0.00832  0.13918  0.57090 -0.00001 -0.00198 -0.00050
    H44      X     0.00037 -0.00008  0.00049  0.00005  0.00008  0.00015
    H44      Y    -0.00107  0.00159  0.00441 -0.00028  0.00008 -0.00018
    H44      Z    -0.00193  0.00247  0.00541 -0.00048  0.00017 -0.00032
    H45      X     0.00087 -0.00070 -0.00284  0.00109 -0.00090  0.00002
    H45      Y    -0.00184  0.00185  0.00709 -0.00240  0.00204 -0.00001
    H45      Z    -0.00319  0.00246  0.00988 -0.00441  0.00386 -0.00000
    H46      X    -0.00873  0.00081  0.00802 -0.01349  0.01230  0.00041
    H46      Y     0.00237 -0.00010 -0.00188  0.00369 -0.00320 -0.00008
    H46      Z    -0.00776  0.00080  0.00746 -0.01181  0.01058  0.00034
    H47      X    -0.00276 -0.00111 -0.00001 -0.00413  0.00248 -0.00016
    H47      Y    -0.00111 -0.00032  0.00048 -0.00163  0.00092 -0.00009
    H47      Z     0.00120  0.00042 -0.00017  0.00176 -0.00108  0.00007
    H48      X     0.00022  0.00551 -0.00094  0.00078 -0.00055 -0.00005
    H48      Y    -0.00058 -0.00293  0.00036 -0.00069  0.00031 -0.00010
    H48      Z    -0.00110 -0.00614  0.00060 -0.00135  0.00079 -0.00005
    H49      X    -0.00461  0.03001 -0.00635  0.00004  0.00035 -0.00002
    H49      Y     0.00338 -0.02171  0.00472 -0.00001 -0.00023  0.00004
    H49      Z     0.00620 -0.04045  0.00874 -0.00005 -0.00051  0.00000
    H50      X     0.00110 -0.00692  0.00104  0.00010  0.00036  0.00031
    H50      Y     0.00060 -0.00381  0.00046  0.00005  0.00032  0.00020
    H50      Z     0.00125 -0.00814  0.00118  0.00006  0.00044  0.00030
    H51      X    -0.00166  0.00870 -0.00197 -0.00058  0.00105 -0.00005
    H51      Y     0.00200 -0.01035  0.00237  0.00077 -0.00142  0.00003
    H51      Z    -0.00143  0.00766 -0.00173 -0.00044  0.00082 -0.00007
    H52      X    -0.00084  0.00710  0.01267 -0.00009 -0.00011 -0.00007
    H52      Y    -0.00019  0.00191  0.00526 -0.00004 -0.00005 -0.00003
    H52      Z    -0.00014  0.00236  0.01136 -0.00006 -0.00009 -0.00005
    H53      X     0.00006 -0.00127 -0.00511 -0.00001  0.00005 -0.00000
    H53      Y    -0.00059  0.00842  0.02978  0.00008 -0.00036 -0.00005
    H53      Z    -0.00092  0.01269  0.04544  0.00015 -0.00060 -0.00011
    H54      X     0.00033 -0.00369 -0.01016 -0.00006 -0.00047 -0.00032
    H54      Y     0.00010 -0.00126 -0.00388 -0.00004 -0.00008 -0.00010
    H54      Z    -0.00022  0.00227  0.00639  0.00002  0.00025  0.00016
    H55      X    -0.00005  0.00003  0.00013 -0.00010  0.00016  0.00004
    H55      Y     0.00041  0.00349  0.01170  0.00106 -0.00150 -0.00005
    H55      Z    -0.00011 -0.00146 -0.00499 -0.00035  0.00051  0.00000
    H56      X     0.00046  0.00828 -0.00168  0.00264 -0.00240 -0.00004
    H56      Y    -0.00070 -0.00957  0.00194 -0.00306  0.00265  0.00003
    H56      Z    -0.00142 -0.01513  0.00308 -0.00561  0.00512  0.00008
    H57      X     0.00325  0.00027 -0.00039  0.00470 -0.00276  0.00021
    H57      Y     0.00161 -0.00053 -0.00006  0.00222 -0.00136  0.00006
    H57      Z     0.00255  0.00029 -0.00033  0.00367 -0.00226  0.00015
    H58      X     0.00764  0.00838 -0.00178  0.01370 -0.01272 -0.00039
    H58      Y     0.01065  0.01115 -0.00240  0.01911 -0.01747 -0.00050
    H58      Z    -0.00782 -0.00856  0.00182 -0.01386  0.01243  0.00035
    H59      X    -0.00433  0.02830 -0.00034  0.00001  0.00004  0.00001
    H59      Y    -0.00153  0.01004  0.00007  0.00001  0.00002  0.00001
    H59      Z    -0.00196  0.01277 -0.00062  0.00002  0.00004  0.00002
    H60      X     0.00014 -0.00082 -0.00070  0.00006  0.00006  0.00005
    H60      Y    -0.00028  0.00169  0.00013 -0.00006 -0.00005 -0.00005
    H60      Z    -0.00080  0.00476  0.00317 -0.00032 -0.00031 -0.00026
    H61      X    -0.00121  0.00769 -0.00088  0.00002  0.00015  0.00004
    H61      Y     0.00150 -0.00959  0.00073 -0.00003 -0.00019 -0.00006
    H61      Z     0.00013 -0.00080 -0.00008  0.00001  0.00001  0.00002
    H62      X    -0.00456  0.03003  0.00010  0.00003  0.00001 -0.00000
    H62      Y    -0.00116  0.00762 -0.00030  0.00001  0.00001  0.00000
    H62      Z    -0.00218  0.01434 -0.00026  0.00004  0.00001  0.00001
    H63      X    -0.00067  0.00430 -0.00019  0.00005 -0.00005 -0.00000
    H63      Y    -0.00152  0.01007  0.00013  0.00014 -0.00010  0.00002
    H63      Z     0.00093 -0.00612 -0.00020 -0.00005  0.00006  0.00001
    H64      X     0.00013 -0.00074 -0.00088  0.00008  0.00005  0.00006
    H64      Y    -0.00012  0.00068  0.00116 -0.00010 -0.00007 -0.00007
    H64      Z    -0.00091  0.00527  0.00259 -0.00037 -0.00020 -0.00024
    C65      X    -0.00033 -0.00006 -0.00002  0.00029  0.00017 -0.00075
    C65      Y     0.00056  0.00005  0.00004 -0.00063 -0.00046  0.00194
    C65      Z    -0.00043 -0.00006 -0.00000  0.00052  0.00038 -0.00197
    H66      X    -0.00062  0.00017 -0.00024  0.00083  0.00085 -0.00196
    H66      Y    -0.00056  0.00022 -0.00028  0.00082  0.00091 -0.00177
    H66      Z    -0.00024  0.00005 -0.00009  0.00024  0.00023 -0.00060
    H67      X     0.00038  0.00003  0.00002 -0.00045 -0.00033  0.00074
    H67      Y    -0.00511 -0.00064 -0.00008  0.00607  0.00437 -0.02424
    H67      Z     0.00577  0.00068  0.00013 -0.00693 -0.00504  0.02648
    H68      X     0.00414  0.00051  0.00038 -0.00378 -0.00237  0.00901
    H68      Y    -0.00168 -0.00023 -0.00015  0.00153  0.00095 -0.00362
    H68      Z    -0.00013 -0.00002 -0.00001  0.00011  0.00005 -0.00021
    C69      X    -0.00002  0.00001 -0.00009  0.00003  0.00004  0.00004
    C69      Y     0.00002 -0.00001  0.00006 -0.00004 -0.00002  0.00007
    C69      Z    -0.00003  0.00004  0.00004  0.00002  0.00003 -0.00019
    H70      X     0.00027 -0.00012  0.00100 -0.00026 -0.00053 -0.00080
    H70      Y    -0.00001  0.00002 -0.00016  0.00004  0.00006  0.00015
    H70      Z    -0.00006  0.00004 -0.00024  0.00007  0.00011  0.00010
    H71      X     0.00005 -0.00004  0.00019 -0.00016  0.00001  0.00048
    H71      Y    -0.00032  0.00015 -0.00069  0.00053  0.00027 -0.00122
    H71      Z     0.00007 -0.00007  0.00037 -0.00022 -0.00004  0.00030
    H72      X    -0.00002  0.00007 -0.00003  0.00002  0.00005 -0.00008
    H72      Y    -0.00003 -0.00002 -0.00001 -0.00002  0.00003 -0.00002
    H72      Z     0.00025 -0.00047 -0.00065 -0.00005 -0.00040  0.00177
    H73      X     0.00088 -0.00005  0.00046 -0.00182 -0.00202  0.00640
    H73      Y     0.00001  0.00002 -0.00009  0.00032  0.00047 -0.00194
    H73      Z    -0.00001  0.00004 -0.00009  0.00006  0.00011  0.00014
    H74      X     0.00024 -0.00016  0.00050  0.00003 -0.00060 -0.00077
    H74      Y    -0.00007  0.00000 -0.00004 -0.00003  0.00010  0.00019
    H74      Z     0.00000  0.00002 -0.00007 -0.00000  0.00006  0.00001
    H75      X    -0.00021  0.00042 -0.00033  0.00010  0.00038  0.00043
    H75      Y    -0.00033  0.00054 -0.00041  0.00009  0.00053  0.00062
    H75      Z    -0.00002  0.00017 -0.00011  0.00005  0.00008  0.00007
    H76      X    -0.00045  0.00065 -0.00049  0.00024  0.00056  0.00017
    H76      Y    -0.00058  0.00084 -0.00063  0.00031  0.00074  0.00020
    H76      Z    -0.00008  0.00014 -0.00010  0.00002  0.00007  0.00001
  
  Number of imaginary frequencies:   0
   
  Writing vibrational animation data to L1_PL274.vib
  Writing IR vibrational spectrum data to L1_PL274_vib.spm
  rotational symmetry number:  1

  rotational temperatures (K):      0.008672      0.005031      0.004837
   
  The Quasi-Harmonic approximation will be applied to compute
  vibrational constributions to thermodynamic properties.
  Frequencies will be adjusted to a minimum value of  100.00 cm^-1.

  vibrational temperatures:
       mode:      1        2        3        4        5        6
  temp. (K):   143.88   143.88   143.88   143.88   143.88   143.88
   
       mode:      7        8        9       10       11       12
  temp. (K):   143.88   143.88   143.88   148.34   156.44   167.33
   
       mode:     13       14       15       16       17       18
  temp. (K):   172.38   175.48   190.57   203.10   209.30   216.79
   
       mode:     19       20       21       22       23       24
  temp. (K):   252.07   273.73   295.30   316.10   343.87   352.55
   
       mode:     25       26       27       28       29       30
  temp. (K):   358.99   362.45   368.61   377.45   381.06   387.99
   
       mode:     31       32       33       34       35       36
  temp. (K):   393.73   397.71   402.85   410.46   412.46   420.86
   
       mode:     37       38       39       40       41       42
  temp. (K):   429.78   436.86   449.34   477.31   485.72   488.04
   
       mode:     43       44       45       46       47       48
  temp. (K):   497.07   513.11   520.87   547.56   555.10   567.15
   
       mode:     49       50       51       52       53       54
  temp. (K):   579.26   594.86   600.45   615.82   648.21   691.37
   
       mode:     55       56       57       58       59       60
  temp. (K):   702.24   715.04   730.28   744.15   754.43   815.76
   
       mode:     61       62       63       64       65       66
  temp. (K):   841.69   844.57   874.05   874.76   899.62   924.33
   
       mode:     67       68       69       70       71       72
  temp. (K):   939.91   975.91  1064.90  1086.98  1118.38  1144.80
   
       mode:     73       74       75       76       77       78
  temp. (K):  1198.55  1201.52  1208.45  1240.85  1277.14  1302.37
   
       mode:     79       80       81       82       83       84
  temp. (K):  1310.02  1316.14  1362.41  1366.80  1368.22  1377.47
   
       mode:     85       86       87       88       89       90
  temp. (K):  1380.06  1387.40  1387.70  1390.32  1392.26  1408.26
   
       mode:     91       92       93       94       95       96
  temp. (K):  1410.03  1411.63  1413.04  1419.38  1430.35  1459.59
   
       mode:     97       98       99      100      101      102
  temp. (K):  1468.89  1501.51  1514.30  1517.73  1521.44  1532.36
   
       mode:    103      104      105      106      107      108
  temp. (K):  1566.46  1583.81  1592.38  1633.81  1636.84  1641.70
   
       mode:    109      110      111      112      113      114
  temp. (K):  1648.41  1664.34  1674.29  1718.22  1735.34  1737.03
   
       mode:    115      116      117      118      119      120
  temp. (K):  1745.39  1751.15  1759.36  1776.01  1784.25  1790.87
   
       mode:    121      122      123      124      125      126
  temp. (K):  1806.37  1815.17  1845.58  1861.12  1874.09  1883.27
   
       mode:    127      128      129      130      131      132
  temp. (K):  1919.77  1940.96  1953.77  1955.59  1957.78  1988.75
   
       mode:    133      134      135      136      137      138
  temp. (K):  2021.32  2037.31  2043.54  2044.59  2046.88  2049.16
   
       mode:    139      140      141      142      143      144
  temp. (K):  2050.00  2050.55  2070.13  2075.97  2077.21  2087.30
   
       mode:    145      146      147      148      149      150
  temp. (K):  2097.41  2112.49  2116.52  2131.97  2157.96  2159.01
   
       mode:    151      152      153      154      155      156
  temp. (K):  2170.49  2171.55  2172.64  2175.26  2176.66  2178.76
   
       mode:    157      158      159      160      161      162
  temp. (K):  2181.23  2183.17  2183.90  2185.89  2186.65  2194.30
   
       mode:    163      164      165      166      167      168
  temp. (K):  2200.10  2201.26  2202.25  2203.98  2209.89  2211.02
   
       mode:    169      170      171      172      173      174
  temp. (K):  2212.47  2214.18  2216.59  2230.34  2235.96  2283.72
   
       mode:    175      176      177      178      179      180
  temp. (K):  2334.05  2372.27  2377.86  4366.86  4367.08  4368.48
   
       mode:    181      182      183      184      185      186
  temp. (K):  4370.96  4371.09  4372.67  4375.95  4376.54  4376.97
   
       mode:    187      188      189      190      191      192
  temp. (K):  4378.58  4381.25  4382.98  4383.96  4452.99  4459.13
   
       mode:    193      194      195      196      197      198
  temp. (K):  4473.62  4474.35  4477.16  4477.71  4480.35  4481.23
   
       mode:    199      200      201      202      203      204
  temp. (K):  4482.34  4484.90  4490.73  4491.30  4492.28  4493.81
   
       mode:    205      206      207      208      209      210
  temp. (K):  4496.70  4499.08  4501.60  4508.56  4514.12  4520.75
   
       mode:    211      212      213      214      215      216
  temp. (K):  4520.88  4529.86  4532.36  4534.56  4545.89  4561.71
   
       mode:    217      218      219      220      221      222
  temp. (K):  4580.85  4581.23  4583.18  4600.94  4617.99  4665.58
   
   
  Thermodynamic properties calculated assuming an ideal gas

  In the table below, the units for temperature
  are kelvins, the units for U, H, and G are
  kcal/mol and the units for Cv and S are cal/(mol K)

  The zero point energy (ZPE):    425.945 kcal/mol
  is not included in U, H, or G in the table below
  
 
  =============================================================================
  Thermodynamic properties for P = 1.00E+00 atm, calculated at   1 temperatures


  T =   298.15 K, P = 1.00E+00 atm
   
                  U         Cv          S          H          G        ln(Q)
              =========  =========  =========  =========  =========  =========
  trans.          0.889      2.981     44.690      1.481    -11.843   19.98909
  rot.            0.889      2.981     36.375      0.889     -9.956   16.80445
  vib.           20.365    133.821    122.089     20.365    -16.036   27.06566
  elec.           0.000      0.000      0.000      0.000      0.000    0.00000
  ----------------------------------------------------------------------------
  total          22.142    139.783    203.154     22.735    -37.836   63.85920
   
   Total internal energy, Utot(SCFE + ZPE + U):   -1599.328904 hartrees
   Total enthalpy, Htot (Utot + nRT), with n=1:   -1599.327960 hartrees
    Total Gibbs free energy, Gtot (Htot - T*S):   -1599.424485 hartrees
   
  end of program freq
   
 Time(freq)  user:        2.0  user+sys:        2.0  wallclock:        2.4
  
  start of program post
  
  Writing input files for PBF
  end of program post
   
 Time(post)  user:        1.9  user+sys:        1.9  wallclock:        2.1

 Total cpu seconds     user:   35563.399   user+sys:   35563.399
  
 Total elapsed time:    36051 seconds

Job L1_PL274 completed on bp1-compute031.data.bp.acrc.priv at Fri Mar 15 09:15:47 2024
