Job L_Ar_NaOtBu_Br_O_trans_PL274_4 started on bp1-compute086 at Sat Dec 13 15:34:12 2025
jobid: bp1-compute086-0-693d8767

  +--------------------------------------------------------------------+
  |  Jaguar version 12.5, release 138                                  |
  |                                                                    |
  |  Copyright Schrodinger, Inc.                                       |
  |  All Rights Reserved.                                              |
  |                                                                    |
  |  The following have contributed to Jaguar (listed alphabetically): |
  |  Ty Balduf, Mike Beachy, Chandler Bennett, Art Bochevarov,         |
  |  Dale Braden, Yixiang Cao, Alan Chien, Chris Cortis,               |
  |  Rich Friesner, Jim Furness, Bill Goddard, Hod Greeley,            |
  |  Tom Hughes, Leif Jacobson, Jean-Marc Langlois, Daniel Levine,     |
  |  Rob Murphy, Dean Philipp, Tom Pollard, Murco Ringnalda,           |
  |  Daniel Mainz, Pablo Videla, Mark Watson, Haoyu Yu.                |
  |                                                                    |
  |  Use of this program should be acknowledged in publications as:    |
  |                                                                    |
  |  Jaguar, version 12.5, Schrodinger, Inc., New York, NY, 2024.      |
  |                                                                    |
  |  A. D. Bochevarov, E. Harder, T. F. Hughes, J. R. Greenwood,       |
  |  D. A. Braden, D. M. Philipp, D. Rinaldo, M. D. Halls,             |
  |  J. Zhang, R. A. Friesner, "Jaguar: A High-Performance Quantum     |
  |  Chemistry Software Program with Strengths in Life and Materials   |
  |  Sciences", Int. J. Quantum Chem., 2013, 113(18), 2110-2142.       |
  +--------------------------------------------------------------------+
  
  start of program pre
  
  Job name: L_Ar_NaOtBu_Br_O_trans_PL274_4
  Executables used: /software/local/apps/schrodinger2024-3/jaguar-v12.5/bin/Linux-x86_64
  Temporary files : /tmp/ar21627/L_Ar_NaOtBu_Br_O_trans_PL274_4#bp1-compute086-0-693d8767
  Basis file : using default basis file from /software/local/apps/schrodinger2024-3
  Maestro file (input):  L_Ar_NaOtBu_Br_O_trans_PL274_4.mae
  Maestro file (output): L_Ar_NaOtBu_Br_O_trans_PL274_4.01.mae
  
 Contents of input file: &gen and (if present) &atomic sections only
 ----------------Contents start----------------
&gen
dftname=b3pw91-d3
basis=6-31G*
numd=5
ip11=2
iaccg=3
isolv=2
igeopt=1
solvent=benzene
ifreq=1
&
&atomic
atom basis
Pd2 lacv3p*
Br117 lacv3p*
&
 -----------------Contents end-----------------
 
  PS calculation requested. Using PS version of 6-31g*
  basis set:               non_standard                    
  net molecular charge:    0
  multiplicity:            1
  
  Using up to  18 threads per process
  
  This run will use ECP on            2  atoms
  number of basis functions....          766
  
 Input geometry:
                                   angstroms
  atom               x                 y                 z
  P1           -0.6032355818     -0.4208319173      0.0703384480 
  Pd2          -0.0000000401      0.0000000575      2.3339396322 
  C73           1.6693850963     -4.1839256096      3.8822593514 
  C74           2.4938854884     -3.3143938844      3.1800848598 
  C75           1.9451628767     -2.1328653383      2.6711706121 
  C76           0.5896108554     -1.8186082133      2.8616679715 
  C77          -0.2009330475     -2.7115455449      3.5913290474 
  C78           0.3271840996     -3.9028537915      4.0966825266 
  F79           2.1893972802     -5.3328582513      4.3726469374 
  H80           3.5426095134     -3.5636568888      3.0342736898 
  H82          -1.2372669148     -2.4752164366      3.8002077879 
  H83          -0.2840182807     -4.5989932508      4.6666387327 
  H14           2.5938713507     -1.4650705808      2.1097578293 
  C3            0.7606052346      0.2956282546     -1.1005337156 
  C4           -0.9351102263     -2.2858730765     -0.3638219796 
  C5           -2.2169609876      0.3246468690     -0.5299162105 
  C6            1.0110092669     -0.4433647070     -2.4247357283 
  C7            2.0656585792      0.2345486372     -0.2852525065 
  C8            0.3524611132     -3.0934057238     -0.1368242784 
  C9           -2.0206844744     -2.7535481133      0.6173943389 
  C10          -2.4390882159      0.1235113559     -1.9065277027 
  C11          -3.6796514030      0.2669778056     -2.5206347889 
  C12          -4.7808293519      0.5959617372     -1.7379029748 
  C13          -4.5637075009      0.9204612010     -0.4040160139 
  C14          -3.2967215761      0.8730697921      0.2151394954 
  C15          -3.3129551366      1.6540134801      1.5068032026 
  C16          -3.6407499870      1.0694366093      2.7501104248 
  C17          -3.9759498373      1.9053683426      3.8273328356 
  C18          -3.9819389830      3.3040426082      3.7156390325 
  C19          -3.6153490584      3.8555910743      2.4879927850 
  C20          -3.2903270246      3.0680657102      1.3785211338 
  C21          -2.9880819979      3.7722268117      0.0576869568 
  C22          -4.2875759497      4.1796904581     -0.6613057686 
  C23          -3.6825610829     -0.4416741200      2.9174973405 
  C24          -3.2697837737     -0.9168625299      4.3151789098 
  C25          -4.3869127659      4.1934371760      4.8799532865 
  C26          -2.1104191394      5.0252578086      0.2135715439 
  C27          -5.0668483313     -0.9992869445      2.5531878911 
  C28          -3.3929159972      4.0979442013      6.0465301616 
  C29          -5.8153581005      3.8890158611      5.3514164558 
  H30           1.2916796727     -1.4907400195     -2.2873522638 
  H31           0.1653174585     -0.3976725583     -3.1172277270 
  H32           1.9963848532      0.8277418721      0.6321503085 
  H33           2.3179674018     -0.7973196113     -0.0128308443 
  H34           1.1386150463     -2.8386448989     -0.8549710316 
  H35           0.7513046400     -2.9660153262      0.8658069704 
  H36          -1.7103376053     -2.6386902634      1.6550816128 
  H37          -2.9600639037     -2.2120402153      0.4595940335 
  H38          -1.6084893058     -0.1889556010     -2.5257507193 
  H39          -3.7794060703      0.0874000174     -3.5892393374 
  H40          -5.7809136940      0.6593428126     -2.1628591934 
  H41          -5.3951101501      1.2939156833      0.1900926516 
  H42          -4.2749526291      1.4516431584      4.7705896739 
  H43          -3.6010168937      4.9386301263      2.3881982707 
  H44          -2.4440401865      3.0655379375     -0.5791569523 
  H45          -4.8789042430      4.8544219059     -0.0278798325 
  H46          -4.9088882997      3.3182022106     -0.9157741859 
  H47          -4.0506613665      4.7125655210     -1.5911770850 
  H48          -2.9495119634     -0.8499900736      2.2141472468 
  H49          -3.9751165526     -0.5885059188      5.0896436267 
  H50          -3.2724009935     -2.0134307461      4.3428537177 
  H51          -2.2601249394     -0.5763100441      4.5799827641 
  H52          -4.3691201998      5.2300170197      4.5166286671 
  H53          -2.6687026301      5.8572284185      0.6648594501 
  H54          -1.7786326275      5.3612495607     -0.7764848633 
  H55          -1.2261884366      4.8252291879      0.8228096208 
  H56          -5.8338897597     -0.5914786882      3.2245816133 
  H57          -5.0755962569     -2.0923643056      2.6500571318 
  H58          -5.3462170838     -0.7482884059      1.5252495463 
  H59          -3.3519781698      3.0771796140      6.4517114482 
  H60          -3.6860558290      4.7624527186      6.8692128975 
  H61          -2.3821382438      4.3959909446      5.7342971042 
  H62          -5.8910299681      2.8782484239      5.7711530611 
  H63          -6.5256631112      3.9611897035      4.5207546636 
  H64          -6.1246987589      4.5963766853      6.1310854972 
  C65          -1.4482799544     -2.6326172795     -1.7744215333 
  H66          -1.5062562036     -3.7282673550     -1.8336824725 
  H67          -2.4545002843     -2.2509049211     -1.9622579320 
  H68          -0.7882852633     -2.3061185867     -2.5808407130 
  C69           0.4245464660      1.7599141593     -1.4309624214 
  H70           1.3049252201      2.2243863544     -1.8973825528 
  H71          -0.4087864312      1.8408058658     -2.1375831815 
  H72           0.1757419413      2.3377490453     -0.5386255611 
  H73           1.8514519314      0.0536806442     -2.9290734081 
  H74           2.8920488814      0.6337719229     -0.8897134967 
  H75           0.1238938322     -4.1595845058     -0.2687077571 
  H76          -2.2219709395     -3.8198695679      0.4489626857 
  C104          1.1376111724      0.5161166924      5.2785677122 
  C105          1.3805669420     -0.8100683483      6.0142019960 
  C106          2.3994972360      0.9403388384      4.5172266656 
  C107          0.8011009905      1.6046073694      6.3187010478 
  H108          2.1690046783     -0.7105173183      6.7721035193 
  H109          0.4565044835     -1.1318703947      6.5089945455 
  H110          1.6733857879     -1.5917209430      5.3097892557 
  H111          1.5837570108      1.7025087092      7.0811184562 
  H112          0.7026948312      2.5872617845      5.8323154069 
  H113         -0.1383699875      1.3576771621      6.8338657748 
  H114          3.2461733364      1.1009103949      5.1976737241 
  H115          2.6786957327      0.1620299535      3.8003704611 
  H116          2.2060990686      1.8621735410      3.9582512309 
  Br117         0.0415720741      2.7616834622      2.0199505363 
  O118          0.0223473053      0.4065138172      4.4247396356 
  Na119        -1.3226013643      2.0956524240      4.2816851733 
   
  principal moments of inertia:
        amu*angstrom^2:              6444.72261              8349.07212             10543.54327
                g*cm^2:          1.07017123E-36          1.38639587E-36          1.75079633E-36
   
  rotational constants:
               cm^(-1):      0.00261573      0.00201910      0.00159886
                   GHz:      0.07841750      0.06053116      0.04793256
   
  Molecular weight:     800.23 amu
   
  Stoichiometry: NaPdC39PH58BrOF
  Molecular Point Group: C1      
  Point Group used: C1
  
 
Number of optimization coordinates:   329
Number of independent coordinates:    329
Number of non-redundant coordinates:  303
Number of frozen coordinates:           0
Number of harmonic constraints:         0
 
Number of geometric degrees of freedom:   303
Maximum geometric degrees of freedom:     303
 " " " " " excluding dummy atoms:         303
 
 
  bond lengths (angstroms):
 
 P1      -Pd2     :   2.380101      P1      -C3      :   1.935024
 P1      -C4      :   1.943454      P1      -C5      :   1.876207
 Pd2     -C76     :   1.983299      Pd2     -O118    :   2.130070
 Pd2     -Na119   :   3.151943      C73     -C74     :   1.388861
 C73     -C78     :   1.387978      C73     -F79     :   1.353122
 C74     -C75     :   1.398606      C74     -H80     :   1.087757
 C75     -C76     :   1.404481      C75     -H14     :   1.087178
 C76     -C77     :   1.398107      C77     -C78     :   1.397679
 C77     -H82     :   1.083268      C78     -H83     :   1.087671
 C3      -C6      :   1.536985      C3      -C7      :   1.539993
 C3      -C69     :   1.538263      C4      -C8      :   1.536710
 C4      -C9      :   1.536222      C4      -C65     :   1.540573
 C5      -C10     :   1.408849      C5      -C14     :   1.421886
 C6      -H30     :   1.092998      C6      -H31     :   1.093996
 C6      -H73     :   1.098979      C7      -H32     :   1.094671
 C7      -H33     :   1.096643      C7      -H74     :   1.098942
 C8      -H34     :   1.094841      C8      -H35     :   1.086542
 C8      -H75     :   1.098350      C9      -H36     :   1.089175
 C9      -H37     :   1.095703      C9      -H76     :   1.098147
 C10     -C11     :   1.391656      C10     -H38     :   1.082112
 C11     -C12     :   1.390501      C11     -H39     :   1.088170
 C12     -C13     :   1.389855      C12     -H40     :   1.088473
 C13     -C14     :   1.410976      C13     -H41     :   1.087963
 C14     -C15     :   1.509481      C15     -C16     :   1.412442
 C15     -C20     :   1.420039      C16     -C17     :   1.404119
 C16     -C23     :   1.520928      C17     -C18     :   1.403140
 C17     -H42     :   1.088578      C18     -C19     :   1.394887
 C18     -C25     :   1.520084      C19     -C20     :   1.398843
 C19     -H43     :   1.087721      C20     -C21     :   1.527023
 C21     -C22     :   1.540020      C21     -C26     :   1.537751
 C21     -H44     :   1.095884      C22     -H45     :   1.098253
 C22     -H46     :   1.092220      C22     -H47     :   1.097609
 C23     -C24     :   1.532874      C23     -C27     :   1.536198
 C23     -H48     :   1.094890      C24     -H49     :   1.097774
 C24     -H50     :   1.096921      C24     -H51     :   1.097956
 C25     -C28     :   1.535594      C25     -C29     :   1.534733
 C25     -H52     :   1.098553      C26     -H53     :   1.098870
 C26     -H54     :   1.096898      C26     -H55     :   1.092267
 C27     -H56     :   1.097921      C27     -H57     :   1.097396
 C27     -H58     :   1.094397      C28     -H59     :   1.099003
 C28     -H60     :   1.097410      C28     -H61     :   1.099087
 C29     -H62     :   1.097067      C29     -H63     :   1.095327
 C29     -H64     :   1.097240      C65     -H66     :   1.098782
 C65     -H67     :   1.092459      C65     -H68     :   1.092019
 C69     -H70     :   1.099249      C69     -H71     :   1.095582
 C69     -H72     :   1.091816      C104    -C105    :   1.535888
 C104    -C106    :   1.533610      C104    -C107    :   1.542702
 C104    -O118    :   1.408847      C105    -H108    :   1.098162
 C105    -H109    :   1.096480      C105    -H110    :   1.092209
 C106    -H114    :   1.098022      C106    -H115    :   1.094349
 C106    -H116    :   1.095279      C107    -H111    :   1.097003
 C107    -H112    :   1.100847      C107    -H113    :   1.099534
 Br117   -Na119   :   2.723970      O118    -Na119   :   2.163918
 
  bond angles:
 
 C3      -P1      -Pd2     : 109.352196  C4      -P1      -Pd2     : 115.177292
 C4      -P1      -C3      : 109.907513  C5      -P1      -Pd2     : 116.872614
 C5      -P1      -C3      : 105.397283  C5      -P1      -C4      :  99.378467
 C76     -Pd2     -P1      :  99.571544  O118    -Pd2     -P1      : 165.911698
 O118    -Pd2     -C76     :  84.876557  Na119   -Pd2     -P1      : 126.791938
 Na119   -Pd2     -C76     : 124.749117  Na119   -Pd2     -O118    :  43.193659
 C78     -C73     -C74     : 121.694787  F79     -C73     -C74     : 119.122733
 F79     -C73     -C78     : 119.182257  C75     -C74     -C73     : 118.682560
 H80     -C74     -C73     : 119.778853  H80     -C74     -C75     : 121.538199
 C76     -C75     -C74     : 121.220799  H14     -C75     -C74     : 118.210207
 H14     -C75     -C76     : 120.564260  C75     -C76     -Pd2     : 117.130152
 C77     -C76     -Pd2     : 123.807985  C77     -C76     -C75     : 118.269628
 C78     -C77     -C76     : 121.293359  H82     -C77     -C76     : 120.148150
 H82     -C77     -C78     : 118.536250  C77     -C78     -C73     : 118.825167
 H83     -C78     -C73     : 119.653141  H83     -C78     -C77     : 121.511035
 C6      -C3      -P1      : 117.266449  C7      -C3      -P1      : 105.204585
 C7      -C3      -C6      : 107.396332  C69     -C3      -P1      : 109.174835
 C69     -C3      -C6      : 107.951293  C69     -C3      -C7      : 109.670598
 C8      -C4      -P1      : 109.160338  C9      -C4      -P1      : 105.672176
 C9      -C4      -C8      : 109.740421  C65     -C4      -P1      : 118.517365
 C65     -C4      -C8      : 107.222166  C65     -C4      -C9      : 106.315454
 C10     -C5      -P1      : 113.047359  C14     -C5      -P1      : 129.699368
 C14     -C5      -C10     : 116.572958  H30     -C6      -C3      : 113.221107
 H31     -C6      -C3      : 113.536771  H31     -C6      -H30     : 108.547598
 H73     -C6      -C3      : 107.608715  H73     -C6      -H30     : 107.139798
 H73     -C6      -H31     : 106.367291  H32     -C7      -C3      : 111.626474
 H33     -C7      -C3      : 111.334091  H33     -C7      -H32     : 108.436731
 H74     -C7      -C3      : 109.369716  H74     -C7      -H32     : 108.161506
 H74     -C7      -H33     : 107.785063  H34     -C8      -C4      : 112.486633
 H35     -C8      -C4      : 112.473857  H35     -C8      -H34     : 108.325745
 H75     -C8      -C4      : 108.542207  H75     -C8      -H34     : 107.250062
 H75     -C8      -H35     : 107.517646  H36     -C9      -C4      : 112.028731
 H37     -C9      -C4      : 111.308772  H37     -C9      -H36     : 109.231055
 H76     -C9      -C4      : 109.097116  H76     -C9      -H36     : 107.502857
 H76     -C9      -H37     : 107.496822  C11     -C10     -C5      : 123.849310
 H38     -C10     -C5      : 118.642712  H38     -C10     -C11     : 117.483243
 C12     -C11     -C10     : 118.812054  H39     -C11     -C10     : 119.871056
 H39     -C11     -C12     : 121.281213  C13     -C12     -C11     : 118.149291
 H40     -C12     -C11     : 121.441502  H40     -C12     -C13     : 120.306904
 C14     -C13     -C12     : 123.612839  H41     -C13     -C12     : 119.002517
 H41     -C13     -C14     : 117.264730  C13     -C14     -C5      : 117.704486
 C15     -C14     -C5      : 131.002546  C15     -C14     -C13     : 110.393114
 C16     -C15     -C14     : 122.793076  C20     -C15     -C14     : 115.957550
 C20     -C15     -C16     : 119.692785  C17     -C16     -C15     : 118.968193
 C23     -C16     -C15     : 120.961509  C23     -C16     -C17     : 120.033332
 C18     -C17     -C16     : 122.235248  H42     -C17     -C16     : 118.829208
 H42     -C17     -C18     : 118.900006  C19     -C18     -C17     : 117.586418
 C25     -C18     -C17     : 121.560519  C25     -C18     -C19     : 120.849524
 C20     -C19     -C18     : 122.445562  H43     -C19     -C18     : 118.549281
 H43     -C19     -C20     : 118.994844  C19     -C20     -C15     : 119.029355
 C21     -C20     -C15     : 122.716474  C21     -C20     -C19     : 118.191487
 C22     -C21     -C20     : 111.027935  C26     -C21     -C20     : 113.643019
 C26     -C21     -C22     : 108.260407  H44     -C21     -C20     : 107.671091
 H44     -C21     -C22     : 108.554902  H44     -C21     -C26     : 107.519381
 H45     -C22     -C21     : 110.341330  H46     -C22     -C21     : 112.339273
 H46     -C22     -H45     : 108.220317  H47     -C22     -C21     : 109.989132
 H47     -C22     -H45     : 107.852435  H47     -C22     -H46     : 107.958881
 C24     -C23     -C16     : 113.637204  C27     -C23     -C16     : 111.057931
 C27     -C23     -C24     : 110.265146  H48     -C23     -C16     : 106.344795
 H48     -C23     -C24     : 106.848365  H48     -C23     -C27     : 108.397115
 H49     -C24     -C23     : 112.180402  H50     -C24     -C23     : 109.406048
 H50     -C24     -H49     : 106.241292  H51     -C24     -C23     : 111.800968
 H51     -C24     -H49     : 109.142424  H51     -C24     -H50     : 107.829114
 C28     -C25     -C18     : 111.903930  C29     -C25     -C18     : 111.543415
 C29     -C25     -C28     : 110.901760  H52     -C25     -C18     : 107.124525
 H52     -C25     -C28     : 107.424380  H52     -C25     -C29     : 107.688278
 H53     -C26     -C21     : 111.629036  H54     -C26     -C21     : 109.313433
 H54     -C26     -H53     : 107.004293  H55     -C26     -C21     : 111.675986
 H55     -C26     -H53     : 108.715561  H55     -C26     -H54     : 108.341125
 H56     -C27     -C23     : 110.468939  H57     -C27     -C23     : 110.353021
 H57     -C27     -H56     : 108.084935  H58     -C27     -C23     : 111.686509
 H58     -C27     -H56     : 108.110437  H58     -C27     -H57     : 108.018420
 H59     -C28     -C25     : 111.220285  H60     -C28     -C25     : 111.035449
 H60     -C28     -H59     : 107.216447  H61     -C28     -C25     : 111.260889
 H61     -C28     -H59     : 108.805141  H61     -C28     -H60     : 107.122699
 H62     -C29     -C25     : 111.375797  H63     -C29     -C25     : 110.949087
 H63     -C29     -H62     : 107.826151  H64     -C29     -C25     : 110.659439
 H64     -C29     -H62     : 107.616825  H64     -C29     -H63     : 108.274625
 H66     -C65     -C4      : 106.941324  H67     -C65     -C4      : 112.680902
 H67     -C65     -H66     : 106.890199  H68     -C65     -C4      : 114.050939
 H68     -C65     -H66     : 106.869666  H68     -C65     -H67     : 108.979598
 H70     -C69     -C3      : 108.565702  H71     -C69     -C3      : 112.024326
 H71     -C69     -H70     : 107.717083  H72     -C69     -C3      : 112.210733
 H72     -C69     -H70     : 107.798453  H72     -C69     -H71     : 108.344156
 C106    -C104    -C105    : 110.271271  C107    -C104    -C105    : 108.712089
 C107    -C104    -C106    : 108.603704  O118    -C104    -C105    : 110.384758
 O118    -C104    -C106    : 111.839764  O118    -C104    -C107    : 106.907667
 H108    -C105    -C104    : 111.460216  H109    -C105    -C104    : 109.647866
 H109    -C105    -H108    : 108.677067  H110    -C105    -C104    : 110.576269
 H110    -C105    -H108    : 108.511993  H110    -C105    -H109    : 107.874760
 H114    -C106    -C104    : 111.547887  H115    -C106    -C104    : 109.778500
 H115    -C106    -H114    : 108.253150  H116    -C106    -C104    : 109.930515
 H116    -C106    -H114    : 109.228767  H116    -C106    -H115    : 108.018627
 H111    -C107    -C104    : 112.081960  H112    -C107    -C104    : 110.574547
 H112    -C107    -H111    : 106.928883  H113    -C107    -C104    : 110.109589
 H113    -C107    -H111    : 107.698236  H113    -C107    -H112    : 109.335373
 C104    -O118    -Pd2     : 128.172176  Na119   -O118    -Pd2     :  94.448412
 Na119   -O118    -C104    : 118.122201  Br117   -Na119   -Pd2     :  55.898075
 O118    -Na119   -Pd2     :  42.357929  O118    -Na119   -Br117   :  86.243590
 
  torsional angles:
 
 P1      -Pd2     -C76     -C75     :  90.015385
 P1      -Pd2     -C76     -C77     :-100.377581
 P1      -Pd2     -O118    -C104    : 179.006414
 P1      -Pd2     -O118    -Na119   : -49.499979
 P1      -Pd2     -Na119   -Br117   : -64.668250
 P1      -Pd2     -Na119   -O118    : 166.636159
 P1      -C3      -C6      -H30     : -58.196361
 P1      -C3      -C6      -H31     :  66.165697
 P1      -C3      -C6      -H73     :-176.400682
 P1      -C3      -C7      -H32     : -60.059296
 P1      -C3      -C7      -H33     :  61.278280
 P1      -C3      -C7      -H74     :-179.715720
 P1      -C3      -C69     -H70     : 167.195294
 P1      -C3      -C69     -H71     : -73.978077
 P1      -C3      -C69     -H72     :  48.154423
 P1      -C4      -C8      -H34     : -68.143768
 P1      -C4      -C8      -H35     :  54.505712
 P1      -C4      -C8      -H75     : 173.343206
 P1      -C4      -C9      -H36     : -58.675681
 P1      -C4      -C9      -H37     :  63.954456
 P1      -C4      -C9      -H76     :-177.584676
 P1      -C4      -C65     -H66     : 176.373355
 P1      -C4      -C65     -H67     : -66.466616
 P1      -C4      -C65     -H68     :  58.459267
 P1      -C5      -C10     -C11     : 162.992048
 P1      -C5      -C10     -H38     : -15.150592
 P1      -C5      -C14     -C13     :-157.444850
 P1      -C5      -C14     -C15     :  34.586685
 Pd2     -P1      -C3      -C6      : 148.008900
 Pd2     -P1      -C3      -C7      :  28.758394
 Pd2     -P1      -C3      -C69     : -88.875587
 Pd2     -P1      -C4      -C8      : -62.134555
 Pd2     -P1      -C4      -C9      :  55.825675
 Pd2     -P1      -C4      -C65     : 174.805692
 Pd2     -P1      -C5      -C10     : 174.877147
 Pd2     -P1      -C5      -C14     : -15.044089
 Pd2     -C76     -C75     -C74     : 171.007384
 Pd2     -C76     -C75     -H14     :  -9.798388
 Pd2     -C76     -C77     -C78     :-170.904295
 Pd2     -C76     -C77     -H82     :   7.355022
 Pd2     -O118    -C104    -C105    : -97.150711
 Pd2     -O118    -C104    -C106    :  26.018785
 Pd2     -O118    -C104    -C107    : 144.772056
 Pd2     -O118    -Na119   -Br117   : -40.365410
 Pd2     -Na119   -O118    -C104    : 138.111880
 C73     -C74     -C75     -C76     :   0.130179
 C73     -C74     -C75     -H14     :-179.082485
 C73     -C78     -C77     -C76     :   1.055035
 C73     -C78     -C77     -H82     :-177.231605
 C74     -C73     -C78     -C77     :  -0.072627
 C74     -C73     -C78     -H83     :-178.903233
 C74     -C75     -C76     -C77     :   0.806454
 C75     -C74     -C73     -C78     :  -0.507669
 C75     -C74     -C73     -F79     : 179.665336
 C75     -C76     -Pd2     -O118    :-103.467032
 C75     -C76     -Pd2     -Na119   :-121.094887
 C75     -C76     -C77     -C78     :  -1.407581
 C75     -C76     -C77     -H82     : 176.851736
 C76     -Pd2     -P1      -C3      :-104.687162
 C76     -Pd2     -P1      -C4      :  19.637386
 C76     -Pd2     -P1      -C5      : 135.745275
 C76     -Pd2     -O118    -C104    :  69.823592
 C76     -Pd2     -O118    -Na119   :-158.682801
 C76     -Pd2     -Na119   -Br117   : 154.842183
 C76     -Pd2     -Na119   -O118    :  26.146592
 C76     -C75     -C74     -H80     : 179.903028
 C76     -C77     -C78     -H83     : 179.863010
 C77     -C76     -Pd2     -O118    :  66.140002
 C77     -C76     -Pd2     -Na119   :  48.512147
 C77     -C76     -C75     -H14     :-179.999318
 C77     -C78     -C73     -F79     : 179.754268
 C78     -C73     -C74     -H80     : 179.715385
 F79     -C73     -C74     -H80     :  -0.111611
 F79     -C73     -C78     -H83     :   0.923662
 H80     -C74     -C75     -H14     :   0.690365
 H82     -C77     -C78     -H83     :   1.576370
 C3      -P1      -Pd2     -O118    : 147.863413
 C3      -P1      -Pd2     -Na119   : 107.327270
 C3      -P1      -C4      -C8      :  61.898313
 C3      -P1      -C4      -C9      : 179.858543
 C3      -P1      -C4      -C65     : -61.161440
 C3      -P1      -C5      -C10     :  53.217649
 C3      -P1      -C5      -C14     :-136.703587
 C4      -P1      -Pd2     -O118    : -87.812040
 C4      -P1      -Pd2     -Na119   :-128.348182
 C4      -P1      -C3      -C6      :  20.654442
 C4      -P1      -C3      -C7      : -98.596064
 C4      -P1      -C3      -C69     : 143.769955
 C4      -P1      -C5      -C10     : -60.576313
 C4      -P1      -C5      -C14     : 109.502451
 C5      -P1      -Pd2     -O118    :  28.295850
 C5      -P1      -Pd2     -Na119   : -12.240293
 C5      -P1      -C3      -C6      : -85.575695
 C5      -P1      -C3      -C7      : 155.173799
 C5      -P1      -C3      -C69     :  37.539819
 C5      -P1      -C4      -C8      : 172.142567
 C5      -P1      -C4      -C9      : -69.897203
 C5      -P1      -C4      -C65     :  49.082814
 C5      -C10     -C11     -C12     :  -1.640497
 C5      -C10     -C11     -H39     :-179.496160
 C5      -C14     -C13     -C12     :  -7.094849
 C5      -C14     -C13     -H41     : 176.934029
 C5      -C14     -C15     -C16     :-101.133755
 C5      -C14     -C15     -C20     :  93.164977
 C6      -C3      -C7      -H32     : 174.303203
 C6      -C3      -C7      -H33     : -64.359221
 C6      -C3      -C7      -H74     :  54.646779
 C6      -C3      -C69     -H70     : -64.304201
 C6      -C3      -C69     -H71     :  54.522427
 C6      -C3      -C69     -H72     : 176.654927
 C7      -C3      -C6      -H30     :  59.881622
 C7      -C3      -C6      -H31     :-175.756320
 C7      -C3      -C6      -H73     : -58.322699
 C7      -C3      -C69     -H70     :  52.411909
 C7      -C3      -C69     -H71     : 171.238538
 C7      -C3      -C69     -H72     : -66.628962
 C8      -C4      -C9      -H36     :  58.895445
 C8      -C4      -C9      -H37     :-178.474418
 C8      -C4      -C9      -H76     : -60.013550
 C8      -C4      -C65     -H66     :  52.352732
 C8      -C4      -C65     -H67     : 169.512761
 C8      -C4      -C65     -H68     : -65.561356
 C9      -C4      -C8      -H34     : 176.482827
 C9      -C4      -C8      -H35     : -60.867694
 C9      -C4      -C8      -H75     :  57.969800
 C9      -C4      -C65     -H66     : -64.981847
 C9      -C4      -C65     -H67     :  52.178182
 C9      -C4      -C65     -H68     : 177.104064
 C10     -C5      -C14     -C13     :  12.344508
 C10     -C5      -C14     -C15     :-155.623957
 C10     -C11     -C12     -C13     :   7.441913
 C10     -C11     -C12     -H40     :-176.225724
 C11     -C10     -C5      -C14     :  -8.484071
 C11     -C12     -C13     -C14     :  -3.119303
 C11     -C12     -C13     -H41     : 172.785829
 C12     -C11     -C10     -H38     : 176.522082
 C12     -C13     -C14     -C15     : 163.243347
 C13     -C12     -C11     -H39     :-174.733851
 C13     -C14     -C15     -C16     :  90.221587
 C13     -C14     -C15     -C20     : -75.479681
 C14     -C5      -C10     -H38     : 173.373289
 C14     -C13     -C12     -H40     :-179.494892
 C14     -C15     -C16     -C17     :-163.382530
 C14     -C15     -C16     -C23     :  14.406617
 C14     -C15     -C20     -C19     : 165.191055
 C14     -C15     -C20     -C21     : -11.875504
 C15     -C14     -C13     -H41     : -12.727775
 C15     -C16     -C17     -C18     :  -0.738292
 C15     -C16     -C17     -H42     : 177.068351
 C15     -C16     -C23     -C24     : 147.447443
 C15     -C16     -C23     -C27     : -87.547223
 C15     -C16     -C23     -H48     :  30.185346
 C15     -C20     -C19     -C18     :  -0.986730
 C15     -C20     -C19     -H43     :-179.800835
 C15     -C20     -C21     -C22     :  97.187690
 C15     -C20     -C21     -C26     :-140.485690
 C15     -C20     -C21     -H44     : -21.515393
 C16     -C15     -C20     -C19     :  -0.981457
 C16     -C15     -C20     -C21     :-178.048016
 C16     -C17     -C18     -C19     :  -1.150083
 C16     -C17     -C18     -C25     : 178.170824
 C16     -C23     -C24     -H49     :  65.392182
 C16     -C23     -C24     -H50     :-176.972230
 C16     -C23     -C24     -H51     : -57.596567
 C16     -C23     -C27     -H56     : -62.168573
 C16     -C23     -C27     -H57     : 178.367208
 C16     -C23     -C27     -H58     :  58.196745
 C17     -C16     -C15     -C20     :   1.806694
 C17     -C16     -C23     -C24     : -34.786799
 C17     -C16     -C23     -C27     :  90.218535
 C17     -C16     -C23     -H48     :-152.048895
 C17     -C18     -C19     -C20     :   2.029092
 C17     -C18     -C19     -H43     :-179.151750
 C17     -C18     -C25     -C28     :  66.085391
 C17     -C18     -C25     -C29     : -58.814231
 C17     -C18     -C25     -H52     :-176.424137
 C18     -C17     -C16     -C23     :-178.548445
 C18     -C19     -C20     -C21     : 176.213128
 C18     -C25     -C28     -H59     : -62.003360
 C18     -C25     -C28     -H60     : 178.688645
 C18     -C25     -C28     -H61     :  59.471929
 C18     -C25     -C29     -H62     :  65.333258
 C18     -C25     -C29     -H63     : -54.789975
 C18     -C25     -C29     -H64     :-175.001759
 C19     -C18     -C17     -H42     :-178.955231
 C19     -C18     -C25     -C28     :-114.615690
 C19     -C18     -C25     -C29     : 120.484688
 C19     -C18     -C25     -H52     :   2.874782
 C19     -C20     -C21     -C22     : -79.902194
 C19     -C20     -C21     -C26     :  42.424426
 C19     -C20     -C21     -H44     : 161.394722
 C20     -C15     -C16     -C23     : 179.595842
 C20     -C19     -C18     -C25     :-177.296901
 C20     -C21     -C22     -H45     :  59.296082
 C20     -C21     -C22     -H46     : -61.559100
 C20     -C21     -C22     -H47     : 178.162614
 C20     -C21     -C26     -H53     : -72.612153
 C20     -C21     -C26     -H54     : 169.203126
 C20     -C21     -C26     -H55     :  49.328405
 C21     -C20     -C19     -H43     :  -2.600977
 C22     -C21     -C26     -H53     :  51.230950
 C22     -C21     -C26     -H54     : -66.953771
 C22     -C21     -C26     -H55     : 173.171508
 C23     -C16     -C17     -H42     :  -0.741802
 C24     -C23     -C27     -H56     :  64.711652
 C24     -C23     -C27     -H57     : -54.752567
 C24     -C23     -C27     -H58     :-174.923030
 C25     -C18     -C17     -H42     :   0.365676
 C25     -C18     -C19     -H43     :   1.522258
 C26     -C21     -C22     -H45     : -66.103412
 C26     -C21     -C22     -H46     : 173.041406
 C26     -C21     -C22     -H47     :  52.763120
 C27     -C23     -C24     -H49     : -60.036692
 C27     -C23     -C24     -H50     :  57.598897
 C27     -C23     -C24     -H51     : 176.974560
 C28     -C25     -C29     -H62     : -60.123658
 C28     -C25     -C29     -H63     : 179.753110
 C28     -C25     -C29     -H64     :  59.541325
 C29     -C25     -C28     -H59     :  63.251104
 C29     -C25     -C28     -H60     : -56.056891
 C29     -C25     -C28     -H61     :-175.273607
 H30     -C6      -C3      -C69     : 178.065594
 H31     -C6      -C3      -C69     : -57.572347
 H32     -C7      -C3      -C69     :  57.238393
 H33     -C7      -C3      -C69     : 178.575969
 H34     -C8      -C4      -C65     :  61.413788
 H35     -C8      -C4      -C65     :-175.936733
 H36     -C9      -C4      -C65     : 174.540987
 H37     -C9      -C4      -C65     : -62.828876
 H38     -C10     -C11     -H39     :  -1.333582
 H39     -C11     -C12     -H40     :   1.598512
 H40     -C12     -C13     -H41     :  -3.589760
 H44     -C21     -C22     -H45     : 177.465292
 H44     -C21     -C22     -H46     :  56.610110
 H44     -C21     -C22     -H47     : -63.668176
 H44     -C21     -C26     -H53     : 168.330804
 H44     -C21     -C26     -H54     :  50.146083
 H44     -C21     -C26     -H55     : -69.728638
 H48     -C23     -C24     -H49     :-177.638824
 H48     -C23     -C24     -H50     : -60.003235
 H48     -C23     -C24     -H51     :  59.372427
 H48     -C23     -C27     -H56     :-178.646740
 H48     -C23     -C27     -H57     :  61.889042
 H48     -C23     -C27     -H58     : -58.281422
 H52     -C25     -C28     -H59     :-179.313942
 H52     -C25     -C28     -H60     :  61.378063
 H52     -C25     -C28     -H61     : -57.838653
 H52     -C25     -C29     -H62     :-177.397224
 H52     -C25     -C29     -H63     :  62.479544
 H52     -C25     -C29     -H64     : -57.732241
 C65     -C4      -C8      -H75     : -57.099239
 C65     -C4      -C9      -H76     :  55.631992
 C69     -C3      -C6      -H73     :  59.861274
 C69     -C3      -C7      -H74     : -62.418031
 C104    -O118    -Pd2     -Na119   :-131.493607
 C104    -O118    -Na119   -Br117   :  97.746470
 C105    -C104    -C106    -H114    : -61.242080
 C105    -C104    -C106    -H115    :  58.748603
 C105    -C104    -C106    -H116    : 177.437250
 C105    -C104    -C107    -H111    :  56.118278
 C105    -C104    -C107    -H112    : 175.322693
 C105    -C104    -C107    -H113    : -63.743278
 C105    -C104    -O118    -Na119   : 140.707614
 C106    -C104    -C105    -H108    :  62.733020
 C106    -C104    -C105    -H109    :-176.888405
 C106    -C104    -C105    -H110    : -58.062503
 C106    -C104    -C107    -H111    : -63.880621
 C106    -C104    -C107    -H112    :  55.323793
 C106    -C104    -C107    -H113    : 176.257823
 C106    -C104    -O118    -Na119   : -96.122890
 C107    -C104    -C105    -H108    : -56.224801
 C107    -C104    -C105    -H109    :  64.153774
 C107    -C104    -C105    -H110    :-177.020324
 C107    -C104    -C106    -H114    :  57.781789
 C107    -C104    -C106    -H115    : 177.772473
 C107    -C104    -C106    -H116    : -63.538880
 C107    -C104    -O118    -Na119   :  22.630381
 H108    -C105    -C104    -O118    :-173.189415
 H109    -C105    -C104    -O118    : -52.810839
 H110    -C105    -C104    -O118    :  66.015062
 H111    -C107    -C104    -O118    : 175.283904
 H112    -C107    -C104    -O118    : -65.511682
 H113    -C107    -C104    -O118    :  55.422347
 H114    -C106    -C104    -O118    : 175.524179
 H115    -C106    -C104    -O118    : -64.485137
 H116    -C106    -C104    -O118    :  54.203510
 Br117   -Na119   -Pd2     -O118    : 128.695591
 
  nuclear repulsion energy.......          7202.416145307 hartrees
  
  Detected an organometallic with only one TM atom. 
  
  Oxidation state on metal       2 is     2
  Formal multiplet on metal      2 is     1
  Formal charge on ligand        3 is    -1
  Formal multiplet on ligand     3 is     1
  Formal charge on ligand        4 is    -1
  Formal multiplet on ligand     4 is     1
  
 
  Will use High-Quality Initial guess for organometallics
       including d-d repulsion (iguess=30)
 
 Non-default options chosen:
   SCF calculation type: DFT(b3pw91-d3)              
   DFT=Becke_3_Parameter/HF+Slater+Becke88+PW91+PW-GGAIIC (B3PW91-D3)
   Geometry will be optimized in redundant internal coordinates
   Solvation energy will be computed using PBF
     -solute cavity energy will not be included
     -surface area terms will not be included
   Vibrational frequencies and related properties will be computed
      from analytic second derivatives
   IR intensities will be computed
   Thermochemical properties will be computed
   Maximum number of geometry steps: 100
   Scaling standard convergence criteria by a factor of   5.00
   Solvent: benzene                                                         
   Internal dielectric constant:    1.000
   Continuum dielectric constant:   2.283
   Solvent probe molecule radius:   2.600
  
 Non-default print settings:
     11=  2
  
 Temporary integer options set:
     21= -1  73=  2
  
  atom       vdw   vdw2    cov     mass  grid  daf  charge   basis
  P1        2.147  2.074  1.060   30.974    Y    Y      Y    ps_6-31g*
  Pd2       1.450  1.450  1.280  105.903    Y    Y      Y    lacv3p*
  C73       1.949  1.900  0.770   12.000    Y    Y      Y    ps_6-31g*
  C74       1.949  1.900  0.770   12.000    Y    Y      Y    ps_6-31g*
  C75       1.949  1.900  0.770   12.000    Y    Y      Y    ps_6-31g*
  C76       1.949  1.900  0.770   12.000    Y    Y      Y    ps_6-31g*
  C77       1.949  1.900  0.770   12.000    Y    Y      Y    ps_6-31g*
  C78       1.949  1.900  0.770   12.000    Y    Y      Y    ps_6-31g*
  F79       1.736  1.682  0.720   18.998    Y    Y      Y    ps_6-31g*
  H80       1.597  1.150  0.320    1.008    Y    Y      Y    ps_6-31g*
  H82       1.597  1.150  0.320    1.008    Y    Y      Y    ps_6-31g*
  H83       1.597  1.150  0.320    1.008    Y    Y      Y    ps_6-31g*
  H14       1.597  1.150  0.320    1.008    Y    Y      Y    ps_6-31g*
  C3        1.949  1.900  0.770   12.000    Y    Y      Y    ps_6-31g*
  C4        1.949  1.900  0.770   12.000    Y    Y      Y    ps_6-31g*
  C5        1.949  1.900  0.770   12.000    Y    Y      Y    ps_6-31g*
  C6        1.949  1.900  0.770   12.000    Y    Y      Y    ps_6-31g*
  C7        1.949  1.900  0.770   12.000    Y    Y      Y    ps_6-31g*
  C8        1.949  1.900  0.770   12.000    Y    Y      Y    ps_6-31g*
  C9        1.949  1.900  0.770   12.000    Y    Y      Y    ps_6-31g*
  C10       1.949  1.900  0.770   12.000    Y    Y      Y    ps_6-31g*
  C11       1.949  1.900  0.770   12.000    Y    Y      Y    ps_6-31g*
  C12       1.949  1.900  0.770   12.000    Y    Y      Y    ps_6-31g*
  C13       1.949  1.900  0.770   12.000    Y    Y      Y    ps_6-31g*
  C14       1.949  1.900  0.770   12.000    Y    Y      Y    ps_6-31g*
  C15       1.949  1.900  0.770   12.000    Y    Y      Y    ps_6-31g*
  C16       1.949  1.900  0.770   12.000    Y    Y      Y    ps_6-31g*
  C17       1.949  1.900  0.770   12.000    Y    Y      Y    ps_6-31g*
  C18       1.949  1.900  0.770   12.000    Y    Y      Y    ps_6-31g*
  C19       1.949  1.900  0.770   12.000    Y    Y      Y    ps_6-31g*
  C20       1.949  1.900  0.770   12.000    Y    Y      Y    ps_6-31g*
  C21       1.949  1.900  0.770   12.000    Y    Y      Y    ps_6-31g*
  C22       1.949  1.900  0.770   12.000    Y    Y      Y    ps_6-31g*
  C23       1.949  1.900  0.770   12.000    Y    Y      Y    ps_6-31g*
  C24       1.949  1.900  0.770   12.000    Y    Y      Y    ps_6-31g*
  C25       1.949  1.900  0.770   12.000    Y    Y      Y    ps_6-31g*
  C26       1.949  1.900  0.770   12.000    Y    Y      Y    ps_6-31g*
  C27       1.949  1.900  0.770   12.000    Y    Y      Y    ps_6-31g*
  C28       1.949  1.900  0.770   12.000    Y    Y      Y    ps_6-31g*
  C29       1.949  1.900  0.770   12.000    Y    Y      Y    ps_6-31g*
  H30       1.597  1.150  0.320    1.008    Y    Y      Y    ps_6-31g*
  H31       1.597  1.150  0.320    1.008    Y    Y      Y    ps_6-31g*
  H32       1.597  1.150  0.320    1.008    Y    Y      Y    ps_6-31g*
  H33       1.597  1.150  0.320    1.008    Y    Y      Y    ps_6-31g*
  H34       1.597  1.150  0.320    1.008    Y    Y      Y    ps_6-31g*
  H35       1.597  1.150  0.320    1.008    Y    Y      Y    ps_6-31g*
  H36       1.597  1.150  0.320    1.008    Y    Y      Y    ps_6-31g*
  H37       1.597  1.150  0.320    1.008    Y    Y      Y    ps_6-31g*
  H38       1.597  1.150  0.320    1.008    Y    Y      Y    ps_6-31g*
  H39       1.597  1.150  0.320    1.008    Y    Y      Y    ps_6-31g*
  H40       1.597  1.150  0.320    1.008    Y    Y      Y    ps_6-31g*
  H41       1.597  1.150  0.320    1.008    Y    Y      Y    ps_6-31g*
  H42       1.597  1.150  0.320    1.008    Y    Y      Y    ps_6-31g*
  H43       1.597  1.150  0.320    1.008    Y    Y      Y    ps_6-31g*
  H44       1.597  1.150  0.320    1.008    Y    Y      Y    ps_6-31g*
  H45       1.597  1.150  0.320    1.008    Y    Y      Y    ps_6-31g*
  H46       1.597  1.150  0.320    1.008    Y    Y      Y    ps_6-31g*
  H47       1.597  1.150  0.320    1.008    Y    Y      Y    ps_6-31g*
  H48       1.597  1.150  0.320    1.008    Y    Y      Y    ps_6-31g*
  H49       1.597  1.150  0.320    1.008    Y    Y      Y    ps_6-31g*
  H50       1.597  1.150  0.320    1.008    Y    Y      Y    ps_6-31g*
  H51       1.597  1.150  0.320    1.008    Y    Y      Y    ps_6-31g*
  H52       1.597  1.150  0.320    1.008    Y    Y      Y    ps_6-31g*
  H53       1.597  1.150  0.320    1.008    Y    Y      Y    ps_6-31g*
  H54       1.597  1.150  0.320    1.008    Y    Y      Y    ps_6-31g*
  H55       1.597  1.150  0.320    1.008    Y    Y      Y    ps_6-31g*
  H56       1.597  1.150  0.320    1.008    Y    Y      Y    ps_6-31g*
  H57       1.597  1.150  0.320    1.008    Y    Y      Y    ps_6-31g*
  H58       1.597  1.150  0.320    1.008    Y    Y      Y    ps_6-31g*
  H59       1.597  1.150  0.320    1.008    Y    Y      Y    ps_6-31g*
  H60       1.597  1.150  0.320    1.008    Y    Y      Y    ps_6-31g*
  H61       1.597  1.150  0.320    1.008    Y    Y      Y    ps_6-31g*
  H62       1.597  1.150  0.320    1.008    Y    Y      Y    ps_6-31g*
  H63       1.597  1.150  0.320    1.008    Y    Y      Y    ps_6-31g*
  H64       1.597  1.150  0.320    1.008    Y    Y      Y    ps_6-31g*
  C65       1.949  1.900  0.770   12.000    Y    Y      Y    ps_6-31g*
  H66       1.597  1.150  0.320    1.008    Y    Y      Y    ps_6-31g*
  H67       1.597  1.150  0.320    1.008    Y    Y      Y    ps_6-31g*
  H68       1.597  1.150  0.320    1.008    Y    Y      Y    ps_6-31g*
  C69       1.949  1.900  0.770   12.000    Y    Y      Y    ps_6-31g*
  H70       1.597  1.150  0.320    1.008    Y    Y      Y    ps_6-31g*
  H71       1.597  1.150  0.320    1.008    Y    Y      Y    ps_6-31g*
  H72       1.597  1.150  0.320    1.008    Y    Y      Y    ps_6-31g*
  H73       1.597  1.150  0.320    1.008    Y    Y      Y    ps_6-31g*
  H74       1.597  1.150  0.320    1.008    Y    Y      Y    ps_6-31g*
  H75       1.597  1.150  0.320    1.008    Y    Y      Y    ps_6-31g*
  H76       1.597  1.150  0.320    1.008    Y    Y      Y    ps_6-31g*
  C104      1.949  1.900  0.770   12.000    Y    Y      Y    ps_6-31g*
  C105      1.949  1.900  0.770   12.000    Y    Y      Y    ps_6-31g*
  C106      1.949  1.900  0.770   12.000    Y    Y      Y    ps_6-31g*
  C107      1.949  1.900  0.770   12.000    Y    Y      Y    ps_6-31g*
  H108      1.597  1.150  0.320    1.008    Y    Y      Y    ps_6-31g*
  H109      1.597  1.150  0.320    1.008    Y    Y      Y    ps_6-31g*
  H110      1.597  1.150  0.320    1.008    Y    Y      Y    ps_6-31g*
  H111      1.597  1.150  0.320    1.008    Y    Y      Y    ps_6-31g*
  H112      1.597  1.150  0.320    1.008    Y    Y      Y    ps_6-31g*
  H113      1.597  1.150  0.320    1.008    Y    Y      Y    ps_6-31g*
  H114      1.597  1.150  0.320    1.008    Y    Y      Y    ps_6-31g*
  H115      1.597  1.150  0.320    1.008    Y    Y      Y    ps_6-31g*
  H116      1.597  1.150  0.320    1.008    Y    Y      Y    ps_6-31g*
  Br117     2.095  2.095  1.140   78.918    Y    Y      Y    lav3p*
  O118      1.702  1.600  0.730   15.995    Y    Y      Y    ps_6-31g*
  Na119     2.308  1.492  1.540   22.990    Y    Y      Y    ps_6-31g*
 
  atom      formal  2spin      esp    mulk    frag
  P1           0       0        Y    0.000       0
  Pd2          2       0        Y    0.000       0
  C73         -1       0        Y    0.000       0
  C104        -1       0        Y    0.000       0
  
  end of program pre
   
 Time(pre)  user:       4.855  user+sys:       4.855  wallclock:       1.131
  
  start of program onee
  
  smallest eigenvalue of S:    3.005E-04
  number of canonical orbitals.....          764
  end of program onee
   
 Time(onee)  user:      16.735  user+sys:      16.735  wallclock:       2.882
  
  start of program hfig
  
  initial wavefunction generated automatically from atomic wavefunctions
  Only one state below 0.010000
  Skip d-d repulsion considerations 
 
  Irreducible     Total no   No of occupied orbitals 
  representation  orbitals   Shell_1  Shell_2    ...
  No Symm          764        180
  ------------------------
  Orbital occupation/shell    1.000
 
  end of program hfig
   
 Time(hfig)  user:       3.058  user+sys:       3.058  wallclock:       1.272
  
  start of program probe
  
  end of program probe
   
 Time(probe)  user:       1.793  user+sys:       1.793  wallclock:       0.544
  
  start of program grid
  
   grid     grid set  grid #  grid sym
  ------    --------  ------  --------
  coarse        0        0        1
  medium        2        1        1
  fine          0        0        1
  ultrafine     4        2        1
  charge       -1        3        1
  gradient      4        2        1
  density       0        0        1
  DFT-fine    -11        4        1
  DFT-med.    -10        5        1
  DFT-grad    -12        6        1
  DFT-der2     -8        7        1
  DFT-cphf     -9        8        1
  LMP2-enrg     4        2        1
  LMP2-grad     2        1        1
  DFT-cphf2   -15        9        1
  PBF-dens      0        0        1
  plotting      0        0        1
  Rel-grad    -17        0        1
  
  number of gridpoints: 
     atom           P1         Pd2         C73         C74         C75         C76         C77
  grid # 1         616         347          78          91          93          98          93
  grid # 2         438         309         329         318         317         384         319
  grid # 3           6         198          24          10           6           6           6
  grid # 4        8582        8582        8582        8582        8582        8582        8582
  grid # 5        1192        1192        1192        1192        1192        1192        1192
  grid # 6        9488        9488        6164        6164        6164        6164        6164
  grid # 7       23054       32756       14018       14018       14018       14018       14018
  grid # 8         724        1144         750         750         750         750         750
  grid # 9         380        2168         406         406         406         406         406
   
  number of gridpoints: 
     atom          C78         F79         H80         H82         H83         H14          C3
  grid # 1          92         585         115         105         115         107          88
  grid # 2         318         566         463         425         463         430         367
  grid # 3          18         363         399          79         389         118           6
  grid # 4        8582        8582        8582        8582        8582        8582        8582
  grid # 5        1192        1192        1192        1192        1192        1192        1192
  grid # 6        6164        6164        6164        6164        6164        6164        6164
  grid # 7       14018       23160       15170       15170       15170       15170       14018
  grid # 8         750         778         792         792         792         792         750
  grid # 9         406         424         420         420         420         420         406
   
  number of gridpoints: 
     atom           C4          C5          C6          C7          C8          C9         C10
  grid # 1          88          90          81          78          79          80          93
  grid # 2         365         383         239         242         243         237         323
  grid # 3           6           7           6           6           6           6           8
  grid # 4        8582        8582        8582        8582        8582        8582        8582
  grid # 5        1192        1192        1192        1192        1192        1192        1192
  grid # 6        6164        6164        6164        6164        6164        6164        6164
  grid # 7       14018       14018       14018       14018       14018       14018       14018
  grid # 8         750         750         750         750         750         750         750
  grid # 9         406         406         406         406         406         406         406
   
  number of gridpoints: 
     atom          C11         C12         C13         C14         C15         C16         C17
  grid # 1          95          95          94         100          97          98          90
  grid # 2         320         321         321         356         353         360         323
  grid # 3          21          20          10           6           7           9          16
  grid # 4        8582        8582        8582        8582        8582        8582        8582
  grid # 5        1192        1192        1192        1192        1192        1192        1192
  grid # 6        6164        6164        6164        6164        6164        6164        6164
  grid # 7       14018       14018       14018       14018       14018       14018       14018
  grid # 8         750         750         750         750         750         750         750
  grid # 9         406         406         406         406         406         406         406
   
  number of gridpoints: 
     atom          C18         C19         C20         C21         C22         C23         C24
  grid # 1          98          94          97          90          81          90          79
  grid # 2         361         325         357         303         237         301         241
  grid # 3          12          16           9           6           6           6           6
  grid # 4        8582        8582        8582        8582        8582        8582        8582
  grid # 5        1192        1192        1192        1192        1192        1192        1192
  grid # 6        6164        6164        6164        6164        6164        6164        6164
  grid # 7       14018       14018       14018       14018       14018       14018       14018
  grid # 8         750         750         750         750         750         750         750
  grid # 9         406         406         406         406         406         406         406
   
  number of gridpoints: 
     atom          C25         C26         C27         C28         C29         H30         H31
  grid # 1          91          81          81          82          79         101         100
  grid # 2         303         237         236         237         246         423         422
  grid # 3           6           6           6           6           6         145         167
  grid # 4        8582        8582        8582        8582        8582        8582        8582
  grid # 5        1192        1192        1192        1192        1192        1192        1192
  grid # 6        6164        6164        6164        6164        6164        6164        6164
  grid # 7       14018       14018       14018       14018       14018       15170       15170
  grid # 8         750         750         750         750         750         792         792
  grid # 9         406         406         406         406         406         420         420
   
  number of gridpoints: 
     atom          H32         H33         H34         H35         H36         H37         H38
  grid # 1         103         100         101         100          97         100          98
  grid # 2         435         427         427         423         417         425         408
  grid # 3         108         108         149          68          60         109          57
  grid # 4        8582        8582        8582        8582        8582        8582        8582
  grid # 5        1192        1192        1192        1192        1192        1192        1192
  grid # 6        6164        6164        6164        6164        6164        6164        6164
  grid # 7       15170       15170       15170       15170       15170       15170       15170
  grid # 8         792         792         792         792         792         792         792
  grid # 9         420         420         420         420         420         420         420
   
  number of gridpoints: 
     atom          H39         H40         H41         H42         H43         H44         H45
  grid # 1         117         117         111         102         104         106         108
  grid # 2         466         466         434         425         433         426         452
  grid # 3         397         390         189          76         141          73         265
  grid # 4        8582        8582        8582        8582        8582        8582        8582
  grid # 5        1192        1192        1192        1192        1192        1192        1192
  grid # 6        6164        6164        6164        6164        6164        6164        6164
  grid # 7       15170       15170       15170       15170       15170       15170       15170
  grid # 8         792         792         792         792         792         792         792
  grid # 9         420         420         420         420         420         420         420
   
  number of gridpoints: 
     atom          H46         H47         H48         H49         H50         H51         H52
  grid # 1         106         110         103         106         104          98         109
  grid # 2         435         451         415         435         432         419         444
  grid # 3         162         305          11         224         198          64         214
  grid # 4        8582        8582        8582        8582        8582        8582        8582
  grid # 5        1192        1192        1192        1192        1192        1192        1192
  grid # 6        6164        6164        6164        6164        6164        6164        6164
  grid # 7       15170       15170       15170       15170       15170       15170       15170
  grid # 8         792         792         792         792         792         792         792
  grid # 9         420         420         420         420         420         420         420
   
  number of gridpoints: 
     atom          H53         H54         H55         H56         H57         H58         H59
  grid # 1         105         108         104         109         109         106         104
  grid # 2         436         451         442         452         449         438         439
  grid # 3         239         299         180         281         272         171         184
  grid # 4        8582        8582        8582        8582        8582        8582        8582
  grid # 5        1192        1192        1192        1192        1192        1192        1192
  grid # 6        6164        6164        6164        6164        6164        6164        6164
  grid # 7       15170       15170       15170       15170       15170       15170       15170
  grid # 8         792         792         792         792         792         792         792
  grid # 9         420         420         420         420         420         420         420
   
  number of gridpoints: 
     atom          H60         H61         H62         H63         H64         C65         H66
  grid # 1         110         105         108         111         109          82         108
  grid # 2         453         442         445         460         454         232         444
  grid # 3         319         212         241         337         319           6         255
  grid # 4        8582        8582        8582        8582        8582        8582        8582
  grid # 5        1192        1192        1192        1192        1192        1192        1192
  grid # 6        6164        6164        6164        6164        6164        6164        6164
  grid # 7       15170       15170       15170       15170       15170       14018       15170
  grid # 8         792         792         792         792         792         750         792
  grid # 9         420         420         420         420         420         406         420
   
  number of gridpoints: 
     atom          H67         H68         C69         H70         H71         H72         H73
  grid # 1         103         102          80         108         105         100         107
  grid # 2         428         425         239         446         433         425         444
  grid # 3         164         149           6         265         167          81         264
  grid # 4        8582        8582        8582        8582        8582        8582        8582
  grid # 5        1192        1192        1192        1192        1192        1192        1192
  grid # 6        6164        6164        6164        6164        6164        6164        6164
  grid # 7       15170       15170       14018       15170       15170       15170       15170
  grid # 8         792         792         750         792         792         792         792
  grid # 9         420         420         406         420         420         420         420
   
  number of gridpoints: 
     atom          H74         H75         H76        C104        C105        C106        C107
  grid # 1         109         109         108          90          82          81          79
  grid # 2         446         446         446         326         239         239         242
  grid # 3         267         258         254           6           6           6           6
  grid # 4        8582        8582        8582        8582        8582        8582        8582
  grid # 5        1192        1192        1192        1192        1192        1192        1192
  grid # 6        6164        6164        6164        6164        6164        6164        6164
  grid # 7       15170       15170       15170       14018       14018       14018       14018
  grid # 8         792         792         792         750         750         750         750
  grid # 9         420         420         420         406         406         406         406
   
  number of gridpoints: 
     atom         H108        H109        H110        H111        H112        H113        H114
  grid # 1         109         107         104         108         103         105         108
  grid # 2         451         448         427         449         433         442         451
  grid # 3         286         257         103         285         180         217         300
  grid # 4        8582        8582        8582        8582        8582        8582        8582
  grid # 5        1192        1192        1192        1192        1192        1192        1192
  grid # 6        6164        6164        6164        6164        6164        6164        6164
  grid # 7       15170       15170       15170       15170       15170       15170       15170
  grid # 8         792         792         792         792         792         792         792
  grid # 9         420         420         420         420         420         420         420
   
  number of gridpoints: 
     atom         H115        H116       Br117        O118       Na119       total
  grid # 1         105         104         471         113         657       12360
  grid # 2         432         441         458         469         593       39911
  grid # 3         123         168         113          12          48       12839
  grid # 4        8582        8582        8582        8582        8582      883946
  grid # 5        1192        1192        1192        1192        1192      122776
  grid # 6        6164        6164        9488        6164        9488      648188
  grid # 7       15170       15170       11604       23358       21102     1561596
  grid # 8         792         792         714         774         642       79962
  grid # 9         420         420         360         412         338       44276
   
  end of program grid
   
 Time(grid)  user:     783.350  user+sys:     783.350  wallclock:      52.587
  
  start of program rwr
  
  end of program rwr
   
 Time(rwr)  user:      74.251  user+sys:      74.251  wallclock:      19.310
  
  start of program scf
  
 number of electrons..........        360
 number of alpha electrons....        180
 number of beta electrons.....        180
 number of orbitals, total....        764
 number of doubly-occ'd orbs..        180
 number of open shell orbs....          0
 number of occupied orbitals..        180
 number of virtual orbitals...        584
 number of hamiltonians.......          1
 number of shells.............          1
 SCF type: DFT=Becke_3_Parameter/HF+Slater+Becke88+PW91+PW-GGAIIC (B3PW91-D3)
 Energy computed using pseudospectral method.
 Convergence Criterion:
    Energy (econv):       1.00E-05
    RMS density (dconv):  5.00E-06
  
       i  u  d  i  g                   
       t  p  i  c  r                                 RMS    maximum
       e  d  i  u  i                       energy  density   DIIS  
       r  t  s  t  d       total energy    change  change    error 
  
etot    1  N  N  5  M   -2333.51517246162           1.8E-03  1.7E-01
etot    2  Y  Y  6  M   -2337.51939706220  4.0E+00  2.8E-03  1.1E-01
etot    3  Y  Y  6  M   -2338.80572883264  1.3E+00  9.6E-04  5.9E-02
etot    4  N  Y  2  U   -2339.08525839194  2.8E-01  8.1E-04  2.8E-02
etot    5  Y  Y  6  M   -2339.14723551365  6.2E-02  6.1E-04  1.7E-02
etot    6  N  Y  2  U   -2339.15313172172  5.9E-03  5.0E-04  7.6E-03
etot    7  Y  Y  6  M   -2339.16235215757  9.2E-03  7.9E-05  4.4E-03
etot    8  N  Y  2  U   -2339.16708533455  4.7E-03  3.2E-05  1.0E-03
etot    9  N  Y  2  U   -2339.16735595618  2.7E-04  1.8E-05  4.2E-04
etot   10  N  Y  2  U   -2339.16736471041  8.8E-06  7.1E-06  1.0E-04
etot   11  N  Y  2  U   -2339.16736712228  2.4E-06  1.7E-06  2.2E-05
etot   12  N  N  2  U   -2339.16736715575  3.3E-08  0.0E+00  0.0E+00
 
  Computing the dispersion energy correction and its gradients...
  
  
 Energy components, in hartrees:
   (A)  Nuclear repulsion............    7202.41614530717
   (E)  Total one-electron terms.....  -17604.13974179782
   (F)    Electron-nuclear...........  -19841.17200917083
   (H)    Kinetic....................    2237.03226737301
   (I)  Total two-electron terms.....    8062.55622933489
   (J)    Coulomb....................    8367.70423225008
   (K)    Exchange+Correlation.......    -305.14800291519
   (L)  Electronic energy............   -9541.58351246293  (E+I)
   (N0) D3 correction................      -0.21444693345
   (N)  Total energy.................   -2339.38181408921  (A+L+N0)
   (O)  Gas phase energy.............   -2339.38181408921
  
 SCFE: SCF energy: DFT(b3pw91-d3)     -2339.38181408921 hartrees   iterations:  12
  
 
 HOMO energy:    -0.19397
 LUMO energy:    -0.04427
 
  Orbital energies (hartrees): 
   -77.08472   -38.42984   -24.67016   -19.06505   -10.23614   -10.20714
   -10.20466   -10.20248   -10.20209   -10.19369   -10.19348   -10.19251
   -10.19156   -10.19096   -10.18944   -10.18919   -10.18870   -10.18729
   -10.18563   -10.17933   -10.17823   -10.17809   -10.17327   -10.17132
   -10.16782   -10.16678   -10.16549   -10.16325   -10.16232   -10.16149
   -10.15900   -10.15840   -10.15742   -10.15402   -10.15373   -10.15143
   -10.15085   -10.14885   -10.14622   -10.14158   -10.14015   -10.11697
   -10.11509    -6.58306    -4.74131    -4.74051    -4.73803    -3.32954
    -2.19416    -2.06378    -2.05777    -2.02777    -1.20175    -1.12385
    -1.12265    -1.12101    -0.92929    -0.89062    -0.87094    -0.84579
    -0.83160    -0.82843    -0.81915    -0.81168    -0.78274    -0.78149
    -0.76790    -0.74544    -0.74150    -0.73286    -0.72754    -0.72650
    -0.70414    -0.69781    -0.68987    -0.68844    -0.68722    -0.68407
    -0.67705    -0.66947    -0.66722    -0.66044    -0.65605    -0.64230
    -0.63393    -0.61417    -0.60680    -0.60316    -0.59308    -0.58627
    -0.56479    -0.55285    -0.54176    -0.53814    -0.52736    -0.51630
    -0.51199    -0.49908    -0.49305    -0.47654    -0.47229    -0.46950
    -0.46778    -0.46173    -0.45757    -0.45607    -0.45384    -0.44816
    -0.44565    -0.44385    -0.44219    -0.43960    -0.43692    -0.43443
    -0.43272    -0.43197    -0.42895    -0.42513    -0.42426    -0.42250
    -0.41738    -0.41411    -0.41278    -0.40999    -0.40466    -0.40185
    -0.39968    -0.39515    -0.39114    -0.38922    -0.38363    -0.38178
    -0.38091    -0.37838    -0.37415    -0.37335    -0.37217    -0.37089
    -0.36984    -0.36760    -0.36676    -0.36381    -0.36128    -0.35628
    -0.35515    -0.34800    -0.34729    -0.34662    -0.34195    -0.34052
    -0.33960    -0.33720    -0.33311    -0.32963    -0.32772    -0.32596
    -0.32434    -0.32233    -0.32055    -0.31756    -0.31586    -0.31399
    -0.31157    -0.30573    -0.29966    -0.28731    -0.26507    -0.26067
    -0.26048    -0.25501    -0.25209    -0.25032    -0.24349    -0.23925
    -0.23574    -0.22676    -0.21810    -0.20999    -0.20565    -0.19397
    -0.04427    -0.04176    -0.02669    -0.01863    -0.01216     0.00202
     0.00732     0.02131     0.03293     0.03630
 
  end of program scf
   
 Time(scf)  user:     960.950  user+sys:     960.950  wallclock:      91.702
  
  start of program der1a
  
  end of program der1a
   
 Time(der1a)  user:      46.158  user+sys:      46.158  wallclock:       3.816
  
  start of program rwr
  
  end of program rwr
   
 Time(rwr)  user:      59.018  user+sys:      59.018  wallclock:      22.523
  
  start of program der1b
  
   
  forces (hartrees/bohr) : total     
   
 atom  label           x              y              z
 ---- --------   -------------  -------------  -------------
    1 P1          7.092177E-04   6.364344E-04   1.150321E-03
    2 Pd2        -5.396784E-03   9.156578E-03   3.992069E-03
    3 C73         1.103504E-03  -2.013075E-03   8.744440E-04
    4 C74        -1.170235E-03   7.460061E-04  -4.491477E-04
    5 C75        -1.910047E-04  -1.308427E-03   4.503726E-04
    6 C76         8.249971E-04  -1.052515E-03   2.212769E-04
    7 C77         4.620388E-04  -4.524406E-04   3.629344E-04
    8 C78         1.532307E-04   1.279053E-03  -7.411942E-04
    9 F79        -1.319387E-03   2.762157E-03  -1.237638E-03
   10 H80        -1.104118E-03   1.407593E-04   3.553539E-04
   11 H82         5.925896E-04  -1.652746E-04  -1.171064E-04
   12 H83         7.488849E-04   5.327258E-04  -5.092003E-04
   13 H14        -4.844781E-04  -7.309110E-05   5.414292E-04
   14 C3         -7.774366E-05   3.127943E-05   3.187334E-04
   15 C4          3.144673E-04   1.714500E-04  -2.966170E-04
   16 C5         -4.786752E-04  -5.195305E-04  -6.741889E-04
   17 C6          5.436092E-04  -1.464444E-04  -1.251099E-04
   18 C7         -2.032416E-04  -2.179664E-04   1.846325E-05
   19 C8         -2.890639E-04   2.879200E-04  -1.276389E-04
   20 C9          5.001179E-04   1.197645E-04  -4.650470E-04
   21 C10        -1.353712E-03   1.184064E-04  -4.409284E-04
   22 C11         2.474789E-04   9.307553E-05   1.288569E-03
   23 C12         2.298384E-03   5.997436E-05   1.984340E-04
   24 C13         3.928088E-04  -3.025293E-04  -7.657754E-05
   25 C14        -3.244976E-05   1.957201E-04  -7.681705E-04
   26 C15        -1.086030E-03   3.487116E-05   1.304038E-03
   27 C16         2.467876E-04   1.008854E-04  -4.575759E-04
   28 C17         5.218344E-04   8.367928E-04  -4.858443E-05
   29 C18        -2.889588E-04  -8.870540E-04  -1.479294E-03
   30 C19        -9.744934E-04  -1.243761E-03   7.121819E-04
   31 C20        -3.324566E-04   1.948160E-04  -1.699339E-04
   32 C21         6.865468E-04   5.687383E-04  -1.021084E-04
   33 C22         5.439412E-05  -2.115761E-04   2.700023E-04
   34 C23         1.001914E-04  -7.724461E-05  -4.637585E-05
   35 C24        -9.477672E-05   5.030190E-04  -4.447656E-04
   36 C25        -9.603933E-05  -7.060099E-04  -3.126830E-04
   37 C26        -2.143182E-04  -4.818372E-04   6.648832E-04
   38 C27         1.204433E-04   1.637213E-04   1.685540E-05
   39 C28         1.834135E-04   5.096668E-04   2.228575E-04
   40 C29         1.222229E-04   2.457687E-04   2.822848E-04
   41 H30        -1.484242E-04   4.983665E-04  -1.747926E-04
   42 H31         1.761950E-04  -7.158011E-05   4.706926E-05
   43 H32        -1.058010E-04   3.066882E-04   1.120658E-04
   44 H33         6.494774E-05   5.799875E-04  -3.720632E-04
   45 H34        -5.230786E-04  -1.981105E-04   2.291929E-04
   46 H35         6.392545E-05  -8.332752E-05  -1.740417E-04
   47 H36         1.419186E-04   3.020472E-04   6.222747E-04
   48 H37        -4.017752E-04   2.142716E-04  -1.072425E-04
   49 H38        -7.902627E-04   2.491278E-04   5.440844E-04
   50 H39         1.352886E-04   1.177116E-04   8.150266E-04
   51 H40         1.101256E-03  -6.417721E-05   3.370484E-04
   52 H41         6.892382E-04  -3.385927E-04   2.136022E-04
   53 H42         6.618986E-06   7.237677E-05  -3.829370E-04
   54 H43         1.718480E-04  -4.080174E-04  -1.400134E-04
   55 H44        -1.708984E-04   1.567008E-04   1.404356E-04
   56 H45         3.711247E-04  -3.038087E-04  -2.187659E-04
   57 H46        -1.877148E-04   4.599541E-04   1.081757E-04
   58 H47        -2.097183E-04  -3.424955E-04   4.139435E-04
   59 H48        -3.766199E-04   4.280498E-05   2.039893E-04
   60 H49         3.054117E-04  -1.162675E-04  -1.907799E-04
   61 H50         2.663632E-05   5.741196E-04  -2.526493E-05
   62 H51        -1.925702E-04  -3.521018E-04   1.677200E-04
   63 H52         7.816613E-05   4.521455E-05   3.378987E-05
   64 H53         5.322367E-04  -5.351863E-04  -3.999305E-04
   65 H54        -3.308127E-04  -1.482403E-05   2.765127E-04
   66 H55        -3.530246E-04  -3.717519E-05  -2.562922E-04
   67 H56         1.850271E-04  -1.729051E-04  -1.811325E-04
   68 H57        -6.479948E-05   3.711464E-04  -1.519358E-04
   69 H58         8.784079E-05  -1.283839E-04   1.261756E-04
   70 H59        -8.893034E-05   2.341401E-04  -3.041078E-05
   71 H60         1.880549E-04  -4.630486E-04  -2.967367E-04
   72 H61        -2.953814E-04  -2.083210E-04   1.070946E-04
   73 H62         1.612969E-04   2.178203E-04  -1.934171E-04
   74 H63         5.133161E-06  -5.622203E-06   8.116848E-06
   75 H64         6.842363E-05  -3.288222E-04  -3.120207E-04
   76 C65        -3.005424E-04  -1.973931E-04   3.010578E-04
   77 H66         3.917142E-05   2.192388E-04  -2.147223E-04
   78 H67         2.718904E-04  -1.620241E-04   7.012291E-05
   79 H68        -1.576432E-04  -2.492745E-04   4.022009E-04
   80 C69         3.730938E-05  -5.157040E-04   1.702409E-04
   81 H70        -5.503999E-04  -2.861769E-04   1.825101E-04
   82 H71         4.189077E-04  -2.497932E-04   1.753560E-04
   83 H72         3.075839E-04   5.338575E-05   1.378932E-04
   84 H73        -3.823643E-04  -2.712039E-04   9.700720E-05
   85 H74        -4.053408E-04  -8.832712E-05   1.293754E-04
   86 H75         1.925677E-04   2.040760E-04  -5.203737E-05
   87 H76         7.212060E-06  -2.178811E-04  -1.488182E-04
   88 C104        1.676813E-03  -9.010981E-04  -6.316486E-05
   89 C105       -5.392917E-04   3.475378E-04   1.854258E-04
   90 C106       -5.617166E-04   3.693119E-04  -1.493343E-04
   91 C107       -1.079155E-04   2.162351E-04  -1.653095E-04
   92 H108       -4.599505E-05  -1.968899E-04  -1.211032E-04
   93 H109        1.548287E-04  -5.890362E-05   7.657741E-05
   94 H110        1.267688E-04   3.280519E-04   5.035149E-04
   95 H111       -2.693944E-04  -7.177752E-05  -1.279684E-04
   96 H112        1.689296E-04  -4.066326E-05  -1.490159E-04
   97 H113        1.468014E-04  -2.206208E-04   1.361610E-04
   98 H114       -1.010378E-04  -9.866520E-05  -1.679782E-04
   99 H115        3.212520E-04   8.555253E-05   2.738549E-04
  100 H116        2.361563E-04   1.159242E-04  -3.648239E-05
  101 Br117       3.047513E-03  -6.075336E-03   2.910111E-04
  102 O118       -1.510534E-03  -2.180313E-03  -7.252897E-03
  103 Na119       1.287424E-03   7.259049E-04   4.518841E-04
 -------------   -------------  -------------  -------------
     total       -4.310713E-04   4.836927E-04  -1.047905E-05
   
  end of program der1b
   
 Time(der1b)  user:     290.193  user+sys:     290.193  wallclock:      25.228
  
  start of program geopt
  
 ----------------------------------------------------------------------------
  Geometry optimization step  1
  Total energy:     -2339.38181408921 hartrees
 ----------------------------------------------------------------------------
  
  
  Level shifts adjusted to satisfy step-size constraints
   Step size:    0.3000156
   Cos(theta):   0.5961020
   Final level shift:  -2.2312910E-02
  
  gradient maximum:        3.2639E-02 .  (  2.2500E-03 )
  gradient rms:            2.5572E-03 .  (  1.5000E-03 )
  displacement maximum:    1.3147E-01 .  (  9.0000E-03 )
  displacement rms:        1.6540E-02 .  (  6.0000E-03 )
  
  predicted energy change:  -5.1517E-03
  step size:     0.30001
  trust radius:  0.30000
  
  molecular structure not yet converged...
  
  center of mass moved by:
     x:     7.8061E-02     y:     5.6102E-02     z:    -6.3786E-02
  
  new geometry: 
                                   angstroms
  atom               x                 y                 z
  P1           -0.6133821130     -0.4072955114      0.0512607693 
  Pd2          -0.0367313266      0.1180795133      2.2879126024 
  C73           1.2283483033     -4.0870621532      4.1216894133 
  C74           2.1362304711     -3.3359812824      3.3907489159 
  C75           1.7029856944     -2.1466991811      2.8028081407 
  C76           0.3783883808     -1.7074959862      2.9406190278 
  C77          -0.4987204647     -2.4810075399      3.7036113247 
  C78          -0.0855510214     -3.6783259520      4.2884089893 
  F79           1.6354461042     -5.2424113955      4.6873363231 
  H80           3.1602236118     -3.6825003384      3.2857311874 
  H82          -1.5130353470     -2.1452302002      3.8746183389 
  H83          -0.7631483837     -4.2835607834      4.8836499012 
  H14           2.4169119854     -1.5698255534      2.2217739862 
  C3            0.7815966518      0.2053664662     -1.1377570114 
  C4           -1.0154358021     -2.2754013271     -0.2924754820 
  C5           -2.1950996211      0.3632570744     -0.5703800057 
  C6            1.0484567962     -0.6249469163     -2.4037200373 
  C7            2.0687732882      0.1927883182     -0.2947243157 
  C8            0.2375827193     -3.1206272495     -0.0220691998 
  C9           -2.1200641927     -2.6493028230      0.7061400155 
  C10          -2.4089392685      0.1895172272     -1.9494807575 
  C11          -3.6435316502      0.3551573149     -2.5619453682 
  C12          -4.7431589139      0.6694573170     -1.7750301261 
  C13          -4.5344985857      0.9568781377     -0.4329547192 
  C14          -3.2717100270      0.8947101755      0.1842399338 
  C15          -3.2877412214      1.6182264366      1.5070976654 
  C16          -3.5366612016      0.9620409560      2.7299806532 
  C17          -3.8765884261      1.7267391799      3.8549032622 
  C18          -3.9736518997      3.1229516137      3.8058482158 
  C19          -3.6838654257      3.7483572228      2.5955852284 
  C20          -3.3487562107      3.0330723355      1.4428863575 
  C21          -3.1351198140      3.8096239262      0.1484395811 
  C22          -4.4828395030      4.2109933543     -0.4775054751 
  C23          -3.4891784167     -0.5529735022      2.8271632230 
  C24          -3.0214510633     -1.0635438457      4.1932185129 
  C25          -4.3925117902      3.9305686610      5.0218042918 
  C26          -2.2846387482      5.0752974584      0.3281673085 
  C27          -4.8463248608     -1.1711539152      2.4614339952 
  C28          -3.3576556680      3.8414497053      6.1527868397 
  C29          -5.7830594793      3.5152835974      5.5187682082 
  H30           1.3139165843     -1.6627769597     -2.1907884928 
  H31           0.2169206567     -0.6182247350     -3.1141976287 
  H32           1.9842796408      0.8469197334      0.5794213400 
  H33           2.3127872103     -0.8187906711      0.0484075960 
  H34           1.0320530728     -2.9334535445     -0.7505254585 
  H35           0.6416742806     -2.9597004715      0.9732962887 
  H36          -1.8109421243     -2.4851432902      1.7384194346 
  H37          -3.0404644723     -2.0864608323      0.5109483085 
  H38          -1.5792745742     -0.1185535101     -2.5697564188 
  H39          -3.7410446104      0.2015135314     -3.6335698037 
  H40          -5.7392791734      0.7475298797     -2.2025736482 
  H41          -5.3661633608      1.3109253109      0.1711770639 
  H42          -4.1117514252      1.2146730527      4.7856863894 
  H43          -3.7380823074      4.8329121731      2.5438872598 
  H44          -2.6034870032      3.1538994334     -0.5497675765 
  H45          -5.0494729090      4.8449273071      0.2164196156 
  H46          -5.1008420262      3.3467158179     -0.7288621574 
  H47          -4.3145280108      4.7848744929     -1.3968523616 
  H48          -2.7512567330     -0.8868160600      2.0914290742 
  H49          -3.7255484686     -0.8079351775      4.9949600037 
  H50          -2.9658122973     -2.1580135799      4.1722458822 
  H51          -2.0257701102     -0.6831142803      4.4546407178 
  H52          -4.4490627458      4.9821594195      4.7090252480 
  H53          -2.8355127406      5.8625163092      0.8588155489 
  H54          -2.0227711131      5.4780628508     -0.6573311312 
  H55          -1.3611666803      4.8654754637      0.8714194755 
  H56          -5.6214186695     -0.8409018561      3.1646802961 
  H57          -4.7914403767     -2.2657763796      2.5046809237 
  H58          -5.1598054884     -0.8889455131      1.4518584565 
  H59          -3.2457756252      2.8076634579      6.5075541912 
  H60          -3.6612097407      4.4478790990      7.0145206431 
  H61          -2.3763242550      4.2112512037      5.8256737179 
  H62          -5.7817400933      2.4825215380      5.8876772312 
  H63          -6.5231421224      3.5829470391      4.7141527273 
  H64          -6.1098910775      4.1615348804      6.3421545979 
[...]
    C17      X     0.00001  -0.00001   0.00003
    C17      Y     0.00002  -0.00001   0.00003
    C17      Z    -0.00003   0.00003  -0.00011
    C18      X     0.00000  -0.00000  -0.00000
    C18      Y    -0.00000   0.00000   0.00001
    C18      Z     0.00000   0.00000   0.00001
    C19      X     0.00000  -0.00000   0.00000
    C19      Y    -0.00001   0.00002   0.00001
    C19      Z     0.00000   0.00000   0.00000
    C20      X     0.00000   0.00001  -0.00000
    C20      Y     0.00000   0.00000   0.00000
    C20      Z     0.00000  -0.00002   0.00000
    C21      X     0.00001   0.00002   0.00001
    C21      Y    -0.00001  -0.00006  -0.00001
    C21      Z    -0.00001  -0.00005  -0.00001
    C22      X    -0.00000  -0.00003  -0.00001
    C22      Y    -0.00001  -0.00003  -0.00001
    C22      Z    -0.00001  -0.00002  -0.00001
    C23      X     0.00001  -0.00001  -0.00029
    C23      Y    -0.00000   0.00000   0.00017
    C23      Z    -0.00001   0.00001   0.00018
    C24      X    -0.00001   0.00000  -0.00044
    C24      Y     0.00004  -0.00001   0.00065
    C24      Z     0.00000   0.00001   0.00002
    C25      X    -0.00000  -0.00000  -0.00000
    C25      Y    -0.00000   0.00001   0.00001
    C25      Z    -0.00000  -0.00000  -0.00000
    C26      X     0.00003   0.00003   0.00002
    C26      Y    -0.00002  -0.00000  -0.00001
    C26      Z     0.00000  -0.00003  -0.00000
    C27      X     0.00001  -0.00001  -0.00002
    C27      Y    -0.00002   0.00000   0.00002
    C27      Z    -0.00005  -0.00005  -0.00006
    C28      X    -0.00001  -0.00000  -0.00000
    C28      Y     0.00000   0.00000   0.00001
    C28      Z     0.00000   0.00000   0.00000
    C29      X    -0.00000  -0.00000  -0.00000
    C29      Y     0.00000   0.00000   0.00002
    C29      Z    -0.00001   0.00000   0.00000
    H30      X     0.00302  -0.00032  -0.00010
    H30      Y    -0.00987  -0.00332   0.00013
    H30      Z     0.00154  -0.00023  -0.00001
    H31      X     0.00150   0.02703   0.00031
    H31      Y     0.00017  -0.00058  -0.00004
    H31      Z     0.00105   0.01289   0.00022
    H32      X    -0.00006  -0.00038   0.00004
    H32      Y     0.00034   0.00087  -0.00012
    H32      Z     0.00020   0.00111  -0.00023
    H33      X    -0.00045   0.00020   0.00006
    H33      Y    -0.00092  -0.00018  -0.00028
    H33      Z     0.00003   0.00011   0.00003
    H34      X     0.14891   0.00006   0.00204
    H34      Y     0.05925  -0.00002   0.00070
    H34      Z    -0.12985  -0.00011  -0.00168
    H35      X    -0.33232   0.00075  -0.00405
    H35      Y    -0.12358   0.00015  -0.00164
    H35      Z    -0.84975   0.00161  -0.01072
    H36      X    -0.00592   0.00050   0.00315
    H36      Y    -0.00291   0.00013   0.00062
    H36      Z    -0.02595   0.00176   0.00976
    H37      X    -0.00558   0.00076  -0.00120
    H37      Y     0.00315  -0.00055   0.00049
    H37      Z    -0.00100   0.00012  -0.00084
    H38      X    -0.00144  -0.72176  -0.00367
    H38      Y     0.00049   0.25699   0.00128
    H38      Z     0.00111   0.55569   0.00284
    H39      X    -0.00002   0.01651   0.00009
    H39      Y    -0.00002   0.01595   0.00007
    H39      Z    -0.00019   0.11394   0.00061
    H40      X    -0.00038   0.01400   0.00009
    H40      Y     0.00002  -0.00120  -0.00002
    H40      Z    -0.00015   0.00437   0.00004
    H41      X    -0.00058   0.00918  -0.00031
    H41      Y     0.00022  -0.00380   0.00014
    H41      Z     0.00041  -0.00732   0.00019
    H42      X    -0.00013   0.00010  -0.00037
    H42      Y    -0.00019   0.00013  -0.00044
    H42      Z     0.00042  -0.00036   0.00123
    H43      X    -0.00001  -0.00000  -0.00002
    H43      Y     0.00016  -0.00031  -0.00011
    H43      Z    -0.00002  -0.00000   0.00002
    H44      X    -0.00006  -0.00026  -0.00007
    H44      Y     0.00012   0.00091   0.00011
    H44      Z     0.00012   0.00064   0.00013
    H45      X    -0.00005  -0.00003  -0.00003
    H45      Y     0.00009   0.00009   0.00007
    H45      Z     0.00008   0.00007   0.00004
    H46      X     0.00010   0.00037   0.00009
    H46      Y     0.00009   0.00038   0.00008
    H46      Z     0.00001   0.00006  -0.00000
    H47      X     0.00000   0.00002  -0.00000
    H47      Y    -0.00002  -0.00009  -0.00006
    H47      Z     0.00002   0.00018   0.00011
    H48      X    -0.00016   0.00011   0.00318
    H48      Y    -0.00003  -0.00010  -0.00178
    H48      Z     0.00002  -0.00008  -0.00351
    H49      X     0.00017   0.00006  -0.00120
    H49      Y    -0.00006  -0.00003  -0.00053
    H49      Z    -0.00008  -0.00007   0.00087
    H50      X     0.00002   0.00002  -0.00517
    H50      Y    -0.00053   0.00011  -0.00076
    H50      Z    -0.00003  -0.00003   0.00305
    H51      X     0.00001  -0.00001  -0.00000
    H51      Y     0.00005  -0.00002   0.00163
    H51      Z     0.00002   0.00001   0.00125
    H52      X     0.00000   0.00000   0.00000
    H52      Y    -0.00000  -0.00007  -0.00009
    H52      Z     0.00001   0.00002   0.00002
    H53      X    -0.00005  -0.00009  -0.00003
    H53      Y     0.00014   0.00011   0.00008
    H53      Z     0.00010   0.00010   0.00005
    H54      X     0.00001  -0.00005  -0.00001
    H54      Y    -0.00003  -0.00019  -0.00006
    H54      Z     0.00005   0.00039   0.00013
    H55      X    -0.00035  -0.00018  -0.00021
    H55      Y     0.00013   0.00006   0.00008
    H55      Z    -0.00017  -0.00012  -0.00012
    H56      X    -0.00024  -0.00004   0.00010
    H56      Y     0.00015   0.00003   0.00001
    H56      Z     0.00020   0.00005  -0.00000
    H57      X     0.00002   0.00002  -0.00001
    H57      Y     0.00016   0.00004  -0.00026
    H57      Z    -0.00006   0.00001  -0.00009
    H58      X     0.00014   0.00012   0.00040
    H58      Y    -0.00011  -0.00009  -0.00026
    H58      Z     0.00046   0.00053   0.00111
    H59      X    -0.00000  -0.00000   0.00001
    H59      Y    -0.00006  -0.00002  -0.00005
    H59      Z     0.00002   0.00002   0.00004
    H60      X     0.00001   0.00002   0.00003
    H60      Y    -0.00001  -0.00006  -0.00007
    H60      Z    -0.00000  -0.00008  -0.00009
    H61      X     0.00007   0.00001  -0.00002
    H61      Y     0.00003   0.00001  -0.00001
    H61      Z    -0.00003   0.00000   0.00002
    H62      X    -0.00000  -0.00000  -0.00001
    H62      Y    -0.00002  -0.00001  -0.00010
    H62      Z     0.00000   0.00001   0.00006
    H63      X     0.00005   0.00000   0.00001
    H63      Y    -0.00000   0.00000   0.00000
    H63      Z     0.00004   0.00001   0.00002
    H64      X    -0.00001   0.00003   0.00004
    H64      Y     0.00002  -0.00006  -0.00009
    H64      Z     0.00002  -0.00007  -0.00009
    C65      X     0.00095  -0.00099  -0.00004
    C65      Y    -0.00010   0.00093  -0.00001
    C65      Z    -0.00046  -0.00065   0.00005
    H66      X    -0.00065   0.00100  -0.00003
    H66      Y    -0.00109  -0.00863   0.00020
    H66      Z    -0.00065   0.00062   0.00015
    H67      X    -0.01252   0.01757   0.00031
    H67      Y     0.00411  -0.00497  -0.00016
    H67      Z    -0.00313   0.00248   0.00017
    H68      X    -0.00341  -0.00634   0.00082
    H68      Y    -0.00158  -0.00554   0.00039
    H68      Z     0.00343   0.00727  -0.00134
    C69      X    -0.00001  -0.00051  -0.00001
    C69      Y     0.00002   0.00003   0.00001
    C69      Z     0.00012  -0.00034   0.00003
    H70      X     0.00037   0.00156   0.00012
    H70      Y     0.00027   0.00067   0.00012
    H70      Z    -0.00020  -0.00035  -0.00008
    H71      X    -0.00041   0.00443  -0.00001
    H71      Y     0.00006  -0.00134  -0.00000
    H71      Z    -0.00030   0.00421   0.00001
    H72      X     0.00029   0.00034   0.00008
    H72      Y    -0.00062  -0.00006  -0.00020
    H72      Z    -0.00110   0.00035  -0.00036
    H73      X    -0.00093  -0.00069   0.00016
    H73      Y    -0.00050   0.00047   0.00012
    H73      Z     0.00047  -0.00110  -0.00010
    H74      X     0.00034  -0.00004   0.00005
    H74      Y     0.00050  -0.00000   0.00001
    H74      Z    -0.00029   0.00013  -0.00001
    H75      X    -0.02436   0.00000  -0.00022
    H75      Y    -0.11438   0.00072  -0.00074
    H75      Z    -0.00361  -0.00002   0.00008
    H76      X     0.00001   0.00003  -0.00011
    H76      Y    -0.00213   0.00067  -0.00002
    H76      Z     0.00019   0.00008  -0.00038
    C104     X    -0.00000   0.00001  -0.00001
    C104     Y     0.00001  -0.00000  -0.00002
    C104     Z    -0.00000   0.00001  -0.00001
    C105     X     0.00006   0.00000  -0.00009
    C105     Y    -0.00006   0.00000  -0.00029
    C105     Z    -0.00006   0.00001  -0.00022
    C106     X     0.00001   0.00000   0.00000
    C106     Y    -0.00001   0.00001   0.00003
    C106     Z    -0.00001   0.00001   0.00003
    C107     X    -0.00001   0.00000  -0.00000
    C107     Y     0.00001   0.00000  -0.00001
    C107     Z    -0.00001   0.00000   0.00000
    H108     X     0.00004  -0.00008   0.00089
    H108     Y    -0.00002   0.00000   0.00009
    H108     Z     0.00002  -0.00010   0.00074
    H109     X    -0.00035  -0.00000   0.00168
    H109     Y    -0.00011  -0.00000   0.00022
    H109     Z     0.00010   0.00001  -0.00097
    H110     X    -0.00036   0.00001  -0.00140
    H110     Y     0.00094  -0.00002   0.00336
    H110     Z     0.00075  -0.00001   0.00313
    H111     X     0.00004  -0.00008  -0.00001
    H111     Y     0.00000  -0.00001  -0.00001
    H111     Z     0.00005  -0.00011   0.00001
    H112     X    -0.00001   0.00000   0.00002
    H112     Y    -0.00018  -0.00001   0.00020
    H112     Z     0.00007   0.00001  -0.00008
    H113     X     0.00006  -0.00001   0.00003
    H113     Y     0.00002   0.00000  -0.00002
    H113     Z    -0.00003   0.00002   0.00000
    H114     X    -0.00005  -0.00010  -0.00018
    H114     Y    -0.00003  -0.00001  -0.00005
    H114     Z    -0.00007  -0.00010  -0.00021
    H115     X    -0.00004   0.00003   0.00014
    H115     Y     0.00030  -0.00007  -0.00026
    H115     Z     0.00022  -0.00004  -0.00021
    H116     X     0.00000   0.00001   0.00005
    H116     Y    -0.00011   0.00002   0.00005
    H116     Z     0.00004  -0.00000  -0.00004
    Br117    X    -0.00000  -0.00000  -0.00000
    Br117    Y    -0.00001  -0.00000  -0.00001
    Br117    Z     0.00000   0.00000   0.00000
    O118     X     0.00000   0.00000   0.00002
    O118     Y    -0.00000  -0.00001   0.00004
    O118     Z     0.00001  -0.00001  -0.00002
    Na119    X    -0.00001   0.00000   0.00000
    Na119    Y     0.00000   0.00000   0.00000
    Na119    Z     0.00000   0.00000   0.00000
  
  Number of imaginary frequencies:   0
   
  Writing vibrational animation data to L_Ar_NaOtBu_Br_O_trans_PL274_4.vib
  Writing IR vibrational spectrum data to L_Ar_NaOtBu_Br_O_trans_PL274_4_vib.spm
  rotational symmetry number:  1

  rotational temperatures (K):      0.003655      0.002991      0.002375
   
  The Quasi-Harmonic approximation will be applied to compute
  vibrational constributions to thermodynamic properties.
  Frequencies will be adjusted to a minimum value of  100.00 cm^-1.

  vibrational temperatures:
       mode:      1        2        3        4        5        6
  temp. (K):   143.88   143.88   143.88   143.88   143.88   143.88
   
       mode:      7        8        9       10       11       12
  temp. (K):   143.88   143.88   143.88   143.88   143.88   143.88
   
       mode:     13       14       15       16       17       18
  temp. (K):   143.88   143.88   143.88   144.19   149.24   155.18
   
       mode:     19       20       21       22       23       24
  temp. (K):   162.33   176.74   177.41   188.67   198.70   209.10
   
       mode:     25       26       27       28       29       30
  temp. (K):   214.21   220.23   228.93   233.10   236.33   238.19
   
       mode:     31       32       33       34       35       36
  temp. (K):   255.52   264.05   272.01   277.32   283.73   291.22
   
       mode:     37       38       39       40       41       42
  temp. (K):   320.20   320.73   327.95   346.93   350.12   352.61
   
       mode:     43       44       45       46       47       48
  temp. (K):   357.12   361.80   364.76   371.60   380.32   383.25
   
       mode:     49       50       51       52       53       54
  temp. (K):   392.17   399.32   404.76   407.73   412.80   433.01
   
       mode:     55       56       57       58       59       60
  temp. (K):   438.14   441.01   450.96   453.67   460.47   463.11
   
       mode:     61       62       63       64       65       66
  temp. (K):   487.04   505.83   507.61   514.64   527.13   535.67
   
       mode:     67       68       69       70       71       72
  temp. (K):   537.40   549.52   565.20   567.51   570.98   581.71
   
       mode:     73       74       75       76       77       78
  temp. (K):   589.27   597.42   608.76   617.57   627.35   638.95
   
       mode:     79       80       81       82       83       84
  temp. (K):   662.93   681.97   690.98   696.97   699.71   724.17
   
       mode:     85       86       87       88       89       90
  temp. (K):   738.94   751.89   765.47   788.17   802.72   809.42
   
       mode:     91       92       93       94       95       96
  temp. (K):   835.27   843.15   862.50   863.90   873.11   914.38
   
       mode:     97       98       99      100      101      102
  temp. (K):   920.75   950.35   963.72   971.43  1042.77  1078.41
   
       mode:    103      104      105      106      107      108
  temp. (K):  1108.27  1113.05  1146.54  1164.22  1191.18  1196.90
   
       mode:    109      110      111      112      113      114
  temp. (K):  1199.10  1204.56  1211.80  1214.88  1242.77  1305.04
   
       mode:    115      116      117      118      119      120
  temp. (K):  1309.03  1314.26  1317.55  1324.80  1329.05  1363.75
   
       mode:    121      122      123      124      125      126
  temp. (K):  1364.68  1372.52  1373.04  1379.68  1381.97  1382.48
   
       mode:    127      128      129      130      131      132
  temp. (K):  1383.83  1388.80  1391.09  1400.52  1406.89  1409.10
   
       mode:    133      134      135      136      137      138
  temp. (K):  1409.85  1411.73  1416.09  1417.75  1425.95  1438.58
   
       mode:    139      140      141      142      143      144
  temp. (K):  1467.91  1470.95  1485.11  1503.27  1515.12  1515.54
   
       mode:    145      146      147      148      149      150
  temp. (K):  1518.20  1521.06  1524.17  1530.49  1558.21  1569.39
   
       mode:    151      152      153      154      155      156
  temp. (K):  1596.08  1602.84  1621.48  1631.10  1638.46  1642.05
   
       mode:    157      158      159      160      161      162
  temp. (K):  1648.27  1664.22  1685.75  1718.85  1720.01  1732.82
   
       mode:    163      164      165      166      167      168
  temp. (K):  1737.17  1742.95  1743.75  1762.01  1772.06  1773.71
   
       mode:    169      170      171      172      173      174
  temp. (K):  1780.74  1785.17  1799.35  1807.77  1814.55  1825.26
   
       mode:    175      176      177      178      179      180
  temp. (K):  1843.34  1854.49  1868.85  1869.36  1893.59  1899.05
   
       mode:    181      182      183      184      185      186
  temp. (K):  1926.61  1927.75  1930.85  1936.59  1953.57  1963.25
   
       mode:    187      188      189      190      191      192
  temp. (K):  1994.40  2014.68  2027.74  2036.16  2045.39  2046.31
   
       mode:    193      194      195      196      197      198
  temp. (K):  2049.09  2050.25  2050.88  2053.36  2056.15  2062.29
   
       mode:    199      200      201      202      203      204
  temp. (K):  2069.28  2076.88  2083.73  2085.64  2095.86  2104.29
   
       mode:    205      206      207      208      209      210
  temp. (K):  2110.01  2122.77  2151.99  2157.52  2161.84  2165.88
   
       mode:    211      212      213      214      215      216
  temp. (K):  2170.89  2171.86  2175.38  2177.03  2179.57  2179.81
   
       mode:    217      218      219      220      221      222
  temp. (K):  2181.18  2181.63  2185.38  2188.31  2188.89  2190.21
   
       mode:    223      224      225      226      227      228
  temp. (K):  2190.66  2194.69  2198.80  2200.75  2203.81  2204.49
   
       mode:    229      230      231      232      233      234
  temp. (K):  2204.94  2210.06  2215.11  2216.50  2217.17  2220.91
   
       mode:    235      236      237      238      239      240
  temp. (K):  2224.28  2226.36  2228.40  2233.58  2241.04  2319.11
   
       mode:    241      242      243      244      245      246
  temp. (K):  2329.47  2363.21  2372.57  2374.79  2386.68  4328.65
   
       mode:    247      248      249      250      251      252
  temp. (K):  4351.70  4369.13  4373.64  4375.00  4378.83  4382.48
   
       mode:    253      254      255      256      257      258
  temp. (K):  4383.02  4385.09  4386.10  4386.28  4386.89  4388.34
   
       mode:    259      260      261      262      263      264
  temp. (K):  4390.56  4390.73  4398.21  4433.62  4449.82  4454.54
   
       mode:    265      266      267      268      269      270
  temp. (K):  4455.28  4469.43  4472.58  4475.16  4479.97  4480.38
   
       mode:    271      272      273      274      275      276
  temp. (K):  4481.32  4483.59  4490.45  4492.93  4494.71  4494.97
   
       mode:    277      278      279      280      281      282
  temp. (K):  4497.20  4500.89  4503.00  4503.46  4511.27  4515.35
   
       mode:    283      284      285      286      287      288
  temp. (K):  4528.09  4537.00  4540.02  4550.04  4551.15  4555.90
   
       mode:    289      290      291      292      293      294
  temp. (K):  4560.17  4574.44  4586.64  4589.28  4590.31  4605.12
   
       mode:    295      296      297      298      299      300
  temp. (K):  4605.99  4613.25  4615.04  4618.34  4625.54  4628.27
   
       mode:    301      302      303
  temp. (K):  4652.06  4703.48  4710.36
   
   
  Thermodynamic properties calculated assuming an ideal gas

  In the table below, the units for temperature
  are kelvins, the units for U, H, and G are
  kcal/mol and the units for Cv and S are cal/(mol K)

  The zero point energy (ZPE):    560.840 kcal/mol
  is not included in U, H, or G in the table below
  
 
  =============================================================================
  Thermodynamic properties for P = 1.00E+00 atm, calculated at   1 temperatures


  T =   298.15 K, P = 1.00E+00 atm
   
                  U         Cv          S          H          G        ln(Q)
              =========  =========  =========  =========  =========  =========
  trans.          0.889      2.981     45.917      1.481    -12.209   20.60648
  rot.            0.889      2.981     38.457      0.889    -10.577   17.85207
  vib.           30.508    195.779    185.051     30.508    -24.665   41.63009
  elec.           0.000      0.000      0.000      0.000      0.000    0.00000
  ----------------------------------------------------------------------------
  total          32.285    201.740    269.424     32.878    -47.451   80.08864
   
   Total internal energy, Utot(SCFE + ZPE + U):   -2338.445636 hartrees
   Total enthalpy, Htot (Utot + nRT), with n=1:   -2338.444692 hartrees
    Total Gibbs free energy, Gtot (Htot - T*S):   -2338.572704 hartrees
   
  end of program freq
   
 Time(freq)  user:       1.011  user+sys:       1.011  wallclock:       0.479
  
  start of program post
  
  Writing input files for PBF
  end of program post
   
 Time(post)  user:       0.249  user+sys:       0.249  wallclock:       0.096

 Total cpu seconds     user:  194710.491   user+sys:  194710.491
  
 Total elapsed time:    23383 seconds

Job L_Ar_NaOtBu_Br_O_trans_PL274_4 completed on bp1-compute086 at Sat Dec 13 22:03:55 2025
