Job L_Ar_Br_N_N_trans_PL274_3 started on bp1-compute056 at Sun Dec  7 14:50:31 2025
jobid: bp1-compute056-0-69359420

  +--------------------------------------------------------------------+
  |  Jaguar version 12.5, release 138                                  |
  |                                                                    |
  |  Copyright Schrodinger, Inc.                                       |
  |  All Rights Reserved.                                              |
  |                                                                    |
  |  The following have contributed to Jaguar (listed alphabetically): |
  |  Ty Balduf, Mike Beachy, Chandler Bennett, Art Bochevarov,         |
  |  Dale Braden, Yixiang Cao, Alan Chien, Chris Cortis,               |
  |  Rich Friesner, Jim Furness, Bill Goddard, Hod Greeley,            |
  |  Tom Hughes, Leif Jacobson, Jean-Marc Langlois, Daniel Levine,     |
  |  Rob Murphy, Dean Philipp, Tom Pollard, Murco Ringnalda,           |
  |  Daniel Mainz, Pablo Videla, Mark Watson, Haoyu Yu.                |
  |                                                                    |
  |  Use of this program should be acknowledged in publications as:    |
  |                                                                    |
  |  Jaguar, version 12.5, Schrodinger, Inc., New York, NY, 2024.      |
  |                                                                    |
  |  A. D. Bochevarov, E. Harder, T. F. Hughes, J. R. Greenwood,       |
  |  D. A. Braden, D. M. Philipp, D. Rinaldo, M. D. Halls,             |
  |  J. Zhang, R. A. Friesner, "Jaguar: A High-Performance Quantum     |
  |  Chemistry Software Program with Strengths in Life and Materials   |
  |  Sciences", Int. J. Quantum Chem., 2013, 113(18), 2110-2142.       |
  +--------------------------------------------------------------------+
  
  start of program pre
  
  Job name: L_Ar_Br_N_N_trans_PL274_3
  Executables used: /software/local/apps/schrodinger2024-3/jaguar-v12.5/bin/Linux-x86_64
  Temporary files : /tmp/ar21627/L_Ar_Br_N_N_trans_PL274_3#bp1-compute056-0-69359420
  Basis file : using default basis file from /software/local/apps/schrodinger2024-3
  Maestro file (input):  L_Ar_Br_N_N_trans_PL274_3.mae
  Maestro file (output): L_Ar_Br_N_N_trans_PL274_3.01.mae
  
 Contents of input file: &gen and (if present) &atomic sections only
 ----------------Contents start----------------
&gen
dftname=b3pw91-d3
basis=6-31G*
numd=5
ip11=2
iaccg=3
isolv=2
igeopt=1
solvent=benzene
ifreq=1
&
&atomic
atom basis
Pd2 lacv3p*
Br3 lacv3p*
&
 -----------------Contents end-----------------
 
  PS calculation requested. Using PS version of 6-31g*
  basis set:               non_standard                    
  net molecular charge:    0
  multiplicity:            1
  
  Using up to  18 threads per process
  
  This run will use ECP on            2  atoms
  number of basis functions....          772
  
 Input geometry:
                                   angstroms
  atom               x                 y                 z
  P1            0.0000000000      0.0000000000      0.0000000000 
  Pd2           0.0000000000      0.0000000000      2.3339396406 
  C73           4.7343304745     -0.6338590944      2.4333233563 
  C74           4.2548537180      0.5904189896      1.9923882193 
  C75           2.8735637352      0.7954996930      1.9412577787 
  C76           1.9863332754     -0.2213042038      2.3047588937 
  C77           2.5026570242     -1.4360515294      2.7749276994 
  C78           3.8805366019     -1.6505867606      2.8379174178 
  F79           6.0677567012     -0.8406816394      2.4796410839 
  H80           4.9534184493      1.3733865177      1.7074459886 
  H82           1.8397073536     -2.2367310757      3.0920491160 
  H83           4.2929815685     -2.5919117506      3.1935552711 
  H14           2.5061815984      1.7705485869      1.6356878188 
  C3           -1.6056626385      0.8033321470     -0.6881909302 
  C4            1.5337337515      0.6545685128     -0.9568555123 
  C5           -0.0972126299     -1.7994233329     -0.4323860696 
  C6           -1.5790037158      1.1269333559     -2.1884265800 
  C7           -1.9309671840      2.0904319169      0.0829408190 
  C8            1.8270290969      2.1224893023     -0.6061627700 
  C9            2.7173205182     -0.1890115746     -0.4668326952 
  C10          -0.1398583968     -1.9627174613     -1.8301881189 
  C11          -0.1614611141     -3.2173708652     -2.4285540913 
  C12          -0.1427643587     -4.3602157113     -1.6326153637 
  C13          -0.1217075052     -4.2176246354     -0.2508584587 
  C14          -0.1062703443     -2.9577280400      0.3738865648 
  C15          -0.1295655929     -3.0361189071      1.8800083599 
  C16           0.8969748427     -3.7692420645      2.5488501474 
  C17           0.6568225751     -4.2820904738      3.8197374993 
  C18          -0.5678211191     -4.1178281599      4.4674932069 
  C19          -1.5621826003     -3.3950075908      3.8128970497 
  C20          -1.3767404909     -2.8523934114      2.5429822717 
  C21          -2.5392631474     -2.1433547961      1.8734625631 
  C22          -3.1004882445     -2.9731166835      0.7091910076 
  C23           2.2137131408     -4.0862227776      1.8631450532 
  C24           3.2037505134     -4.7709304127      2.8132926466 
  C25          -0.8285937055     -4.7475321792      5.8207925092 
  C26          -3.6386103204     -1.7935205502      2.8869768294 
  C27           1.9901825719     -4.9259319639      0.5965055331 
  C28           0.2227623562     -4.3547844176      6.8663998304 
  C29          -0.9272130237     -6.2754120078      5.6877710072 
  H30          -0.8111159986      1.8579864877     -2.4584771950 
  H31          -1.4414156078      0.2314916528     -2.8007274681 
  H32          -1.8705857079      1.9614727626      1.1659358861 
  H33          -1.2753557262      2.9173608777     -0.2100957726 
  H34           1.1062855971      2.8204103679     -1.0421744860 
  H35           1.8585150539      2.2932622766      0.4707408148 
  H36           2.8548823885     -0.0852748585      0.6144983683 
  H37           2.5944345793     -1.2508907032     -0.7108697476 
  H38          -0.1697027688     -1.0953004566     -2.4754440397 
  H39          -0.1952165748     -3.2956166364     -3.5134032213 
  H40          -0.1540579300     -5.3518370574     -2.0803268062 
  H41          -0.1247326005     -5.1011181662      0.3834746721 
  H42           1.4465849531     -4.8408221172      4.3155995527 
  H43          -2.5155059694     -3.2490450760      4.3151031472 
  H44          -2.1522235123     -1.2115419920      1.4460825859 
  H45          -3.4697189848     -3.9440983911      1.0628917190 
  H46          -2.3333170014     -3.1574382346     -0.0507128158 
  H47          -3.9364484344     -2.4467769137      0.2313027147 
  H48           2.6534691033     -3.1358605513      1.5523303584 
  H49           2.8944350752     -5.7955835895      3.0540526809 
  H50           4.2008158051     -4.8266061108      2.3574038620 
  H51           3.2772944797     -4.2182185072      3.7575600408 
  H52          -1.8021305017     -4.3773062812      6.1694839112 
  H53          -4.1769208264     -2.6883682273      3.2205273661 
  H54          -4.3751144016     -1.1200417260      2.4357394214 
  H55          -3.2155792594     -1.3144795470      3.7745983298 
  H56           1.5180577989     -5.8867064461      0.8386267577 
  H57           2.9459760037     -5.1329987735      0.0975165049 
  H58           1.3418135419     -4.4010091185     -0.1131613066 
  H59           1.2146890987     -4.7424673952      6.6029295837 
  H60          -0.0435655688     -4.7697588187      7.8457303648 
  H61           0.3006185217     -3.2668520711      6.9485175202 
  H62           0.0239569280     -6.6983608988      5.3413357942 
  H63          -1.7059826119     -6.5639009699      4.9709033079 
  H64          -1.1637315914     -6.7328748623      6.6568032843 
  C65           1.4480559012      0.5462247043     -2.4868667091 
  H66           2.3258776629      1.0486408576     -2.9147830743 
  H67           1.4751720250     -0.4877271388     -2.8381618532 
  H68           0.5633105768      1.0417197669     -2.8986773662 
  C69          -2.7326609717     -0.2144462900     -0.4611764371 
  H70          -3.6893831710      0.2261208770     -0.7743182257 
  H71          -2.5763663256     -1.1162460966     -1.0569001291 
  H72          -2.8206577061     -0.5168175251      0.5864572599 
  H73          -2.5498263840      1.5644793089     -2.4593704723 
  H74          -2.9601692608      2.3889618883     -0.1598539197 
  H75           2.8164323810      2.3747666704     -1.0183618815 
  H76           3.6360708928      0.1611195571     -0.9588122296 
  N118          0.0132200336     -0.1627647388      4.5250319239 
  H119          0.2205578640     -1.1468023947      4.6861531002 
  H120         -0.9763220806     -0.0025752389      4.7157005332 
  C121          0.8448586447      0.7182125557      5.2766703603 
  C122          2.5017792137      2.5130200037      6.6283318981 
  C123          2.0908668294      0.2995059955      5.7429176869 
  C124          0.4243220822      2.0349216129      5.4817722016 
  C125          1.2526342143      2.9246479270      6.1590814293 
  C126          2.9154992036      1.1992258893      6.4149180317 
  H127          2.4331454288     -0.7120761035      5.5444026481 
  H128         -0.5361527874      2.3531092610      5.0816965362 
  H129          0.9206248357      3.9491298898      6.3149108909 
  H130          3.8906108038      0.8686177225      6.7655361813 
  H131          3.1483064429      3.2135357897      7.1521568833 
  Br3          -2.5147689766      0.3599118220      2.4241877568 
   
  principal moments of inertia:
        amu*angstrom^2:              7328.41897              8055.98216              8691.73573
                g*cm^2:          1.21691245E-36          1.33772714E-36          1.44329649E-36
   
  rotational constants:
               cm^(-1):      0.00230031      0.00209256      0.00193950
                   GHz:      0.06896153      0.06273338      0.05814477
   
  Molecular weight:     797.24 amu
   
  Stoichiometry: PdC41PNH56BrF
  Molecular Point Group: C1      
  Point Group used: C1
  
 
Number of optimization coordinates:   334
Number of independent coordinates:    334
Number of non-redundant coordinates:  300
Number of frozen coordinates:           0
Number of harmonic constraints:         0
 
Number of geometric degrees of freedom:   300
Maximum geometric degrees of freedom:     300
 " " " " " excluding dummy atoms:         300
 
 
  bond lengths (angstroms):
 
 P1      -Pd2     :   2.333940      P1      -C3      :   1.922785
 P1      -C4      :   1.922595      P1      -C5      :   1.853195
 Pd2     -C76     :   1.998836      Pd2     -N118    :   2.197169
 Pd2     -Br3     :   2.541996      C73     -C74     :   1.386787
 C73     -C78     :   1.387946      C73     -F79     :   1.350165
 C74     -C75     :   1.397367      C74     -H80     :   1.087301
 C75     -C76     :   1.397570      C75     -H14     :   1.085847
 C76     -C77     :   1.401164      C77     -C78     :   1.395903
 C77     -H82     :   1.086810      C78     -H83     :   1.087512
 C3      -C6      :   1.534971      C3      -C7      :   1.535283
 C3      -C69     :   1.535426      C4      -C8      :   1.537465
 C4      -C9      :   1.533828      C4      -C65     :   1.536233
 C5      -C10     :   1.407954      C5      -C14     :   1.411321
 C6      -H30     :   1.094083      C6      -H31     :   1.093462
 C6      -H73     :   1.098796      C7      -H32     :   1.092316
 C7      -H33     :   1.095221      C7      -H74     :   1.098784
 C8      -H34     :   1.093925      C8      -H35     :   1.090814
 C8      -H75     :   1.101123      C9      -H36     :   1.094971
 C9      -H37     :   1.096468      C9      -H76     :   1.099426
 C10     -C11     :   1.390203      C10     -H38     :   1.081507
 C11     -C12     :   1.392825      C11     -H39     :   1.088191
 C12     -C13     :   1.389254      C12     -H40     :   1.088065
 C13     -C14     :   1.406373      C13     -H41     :   1.087634
 C14     -C15     :   1.508340      C15     -C16     :   1.427797
 C15     -C20     :   1.424337      C16     -C17     :   1.391345
 C16     -C23     :   1.518047      C17     -C18     :   1.395106
 C17     -H42     :   1.087099      C18     -C19     :   1.392738
 C18     -C25     :   1.515239      C19     -C20     :   1.393378
 C19     -H43     :   1.087355      C20     -C21     :   1.517383
 C21     -C22     :   1.535906      C21     -C26     :   1.535630
 C21     -H44     :   1.095778      C22     -H45     :   1.097379
 C22     -H46     :   1.095436      C22     -H47     :   1.097379
 C23     -C24     :   1.533551      C23     -C27     :   1.536051
 C23     -H48     :   1.092328      C24     -H49     :   1.097067
 C24     -H50     :   1.097758      C24     -H51     :   1.096604
 C25     -C28     :   1.533915      C25     -C29     :   1.536827
 C25     -H52     :   1.098375      C26     -H53     :   1.096260
 C26     -H54     :   1.095275      C26     -H55     :   1.093758
 C27     -H56     :   1.097548      C27     -H57     :   1.097911
 C27     -H58     :   1.095241      C28     -H59     :   1.097102
 C28     -H60     :   1.096459      C28     -H61     :   1.093801
 C29     -H62     :   1.097100      C29     -H63     :   1.097090
 C29     -H64     :   1.097377      C65     -H66     :   1.098228
 C65     -H67     :   1.092337      C65     -H68     :   1.094476
 C69     -H70     :   1.098851      C69     -H71     :   1.092043
 C69     -H72     :   1.093942      N118    -H119    :   1.018469
 N118    -H120    :   1.020396      N118    -C121    :   1.425729
 C121    -C123    :   1.394718      C121    -C124    :   1.397369
 C122    -C125    :   1.396423      C122    -C126    :   1.393831
 C122    -H131    :   1.087710      C123    -C126    :   1.393233
 C123    -H127    :   1.086214      C124    -C125    :   1.391568
 C124    -H128    :   1.088033      C125    -H129    :   1.088153
 C126    -H130    :   1.087694
 
  bond angles:
 
 C3      -P1      -Pd2     : 110.972120  C4      -P1      -Pd2     : 119.847261
 C4      -P1      -C3      : 110.230510  C5      -P1      -Pd2     : 103.492568
 C5      -P1      -C3      : 106.162361  C5      -P1      -C4      : 104.851140
 C76     -Pd2     -P1      :  89.163517  N118    -Pd2     -P1      : 175.737662
 N118    -Pd2     -C76     :  90.021628  Br3     -Pd2     -P1      :  92.034591
 Br3     -Pd2     -C76     : 177.848592  Br3     -Pd2     -N118    :  88.913398
 C78     -C73     -C74     : 121.782682  F79     -C73     -C74     : 119.182959
 F79     -C73     -C78     : 119.032746  C75     -C74     -C73     : 118.879348
 H80     -C74     -C73     : 119.795663  H80     -C74     -C75     : 121.319603
 C76     -C75     -C74     : 120.746462  H14     -C75     -C74     : 118.458904
 H14     -C75     -C76     : 120.778337  C75     -C76     -Pd2     : 123.649584
 C77     -C76     -Pd2     : 117.211662  C77     -C76     -C75     : 118.953265
 C78     -C77     -C76     : 120.805285  H82     -C77     -C76     : 120.786378
 H82     -C77     -C78     : 118.406648  C77     -C78     -C73     : 118.781365
 H83     -C78     -C73     : 119.742301  H83     -C78     -C77     : 121.476264
 C6      -C3      -P1      : 115.048828  C7      -C3      -P1      : 110.330044
 C7      -C3      -C6      : 108.532817  C69     -C3      -P1      : 106.444118
 C69     -C3      -C6      : 107.277359  C69     -C3      -C7      : 109.021606
 C8      -C4      -P1      : 111.328855  C9      -C4      -P1      : 105.624600
 C9      -C4      -C8      : 107.759894  C65     -C4      -P1      : 115.288184
 C65     -C4      -C8      : 107.767123  C65     -C4      -C9      : 108.810033
 C10     -C5      -P1      : 110.233098  C14     -C5      -P1      : 131.602104
 C14     -C5      -C10     : 118.150445  H30     -C6      -C3      : 113.222272
 H31     -C6      -C3      : 112.137981  H31     -C6      -H30     : 108.702504
 H73     -C6      -C3      : 108.035529  H73     -C6      -H30     : 107.048004
 H73     -C6      -H31     : 107.408808  H32     -C7      -C3      : 112.786550
 H33     -C7      -C3      : 111.823920  H33     -C7      -H32     : 108.743104
 H74     -C7      -C3      : 108.376125  H74     -C7      -H32     : 107.633966
 H74     -C7      -H33     : 107.244240  H34     -C8      -C4      : 113.112428
 H35     -C8      -C4      : 112.344183  H35     -C8      -H34     : 108.217707
 H75     -C8      -C4      : 107.744284  H75     -C8      -H34     : 107.255725
 H75     -C8      -H35     : 107.924662  H36     -C9      -C4      : 111.120829
 H37     -C9      -C4      : 112.027171  H37     -C9      -H36     : 109.003419
 H76     -C9      -C4      : 109.070464  H76     -C9      -H36     : 107.863901
 H76     -C9      -H37     : 107.606712  C11     -C10     -C5      : 122.171472
 H38     -C10     -C5      : 120.009230  H38     -C10     -C11     : 117.814852
 C12     -C11     -C10     : 119.626659  H39     -C11     -C10     : 119.634814
 H39     -C11     -C12     : 120.738361  C13     -C12     -C11     : 118.970446
 H40     -C12     -C11     : 120.831437  H40     -C12     -C13     : 120.195522
 C14     -C13     -C12     : 122.272186  H41     -C13     -C12     : 119.779208
 H41     -C13     -C14     : 117.946899  C13     -C14     -C5      : 118.785623
 C15     -C14     -C5      : 127.821421  C15     -C14     -C13     : 113.380953
 C16     -C15     -C14     : 118.903497  C20     -C15     -C14     : 118.137972
 C20     -C15     -C16     : 118.537320  C17     -C16     -C15     : 119.541413
 C23     -C16     -C15     : 121.281565  C23     -C16     -C17     : 119.035012
 C18     -C17     -C16     : 122.155756  H42     -C17     -C16     : 118.730824
 H42     -C17     -C18     : 119.107483  C19     -C18     -C17     : 118.008699
 C25     -C18     -C17     : 121.119453  C25     -C18     -C19     : 120.836205
 C20     -C19     -C18     : 122.374338  H43     -C19     -C18     : 118.590472
 H43     -C19     -C20     : 119.035042  C19     -C20     -C15     : 119.374823
 C21     -C20     -C15     : 121.718086  C21     -C20     -C19     : 118.825379
 C22     -C21     -C20     : 111.221613  C26     -C21     -C20     : 111.328200
 C26     -C21     -C22     : 111.209958  H44     -C21     -C20     : 107.388042
 H44     -C21     -C22     : 107.026628  H44     -C21     -C26     : 108.454595
 H45     -C22     -C21     : 110.893812  H46     -C22     -C21     : 111.152275
 H46     -C22     -H45     : 108.080047  H47     -C22     -C21     : 110.447484
 H47     -C22     -H45     : 107.965120  H47     -C22     -H46     : 108.186498
 C24     -C23     -C16     : 111.921790  C27     -C23     -C16     : 111.124799
 C27     -C23     -C24     : 111.147709  H48     -C23     -C16     : 107.220968
 H48     -C23     -C24     : 107.749097  H48     -C23     -C27     : 107.431664
 H49     -C24     -C23     : 111.775037  H50     -C24     -C23     : 110.591909
 H50     -C24     -H49     : 107.448871  H51     -C24     -C23     : 110.595166
 H51     -C24     -H49     : 107.499052  H51     -C24     -H50     : 108.798993
 C28     -C25     -C18     : 112.609148  C29     -C25     -C18     : 110.297803
 C29     -C25     -C28     : 110.949000  H52     -C25     -C18     : 107.217153
 H52     -C25     -C28     : 107.746241  H52     -C25     -C29     : 107.800618
 H53     -C26     -C21     : 111.493177  H54     -C26     -C21     : 110.460630
 H54     -C26     -H53     : 107.282191  H55     -C26     -C21     : 111.008267
 H55     -C26     -H53     : 107.488212  H55     -C26     -H54     : 108.972106
 H56     -C27     -C23     : 111.053018  H57     -C27     -C23     : 110.560219
 H57     -C27     -H56     : 108.037828  H58     -C27     -C23     : 111.005134
 H58     -C27     -H56     : 107.929030  H58     -C27     -H57     : 108.135280
 H59     -C28     -C25     : 111.439610  H60     -C28     -C25     : 110.209475
 H60     -C28     -H59     : 107.479844  H61     -C28     -C25     : 110.770870
 H61     -C28     -H59     : 107.767044  H61     -C28     -H60     : 109.066824
 H62     -C29     -C25     : 110.791487  H63     -C29     -C25     : 111.317567
 H63     -C29     -H62     : 107.921921  H64     -C29     -C25     : 110.599923
 H64     -C29     -H62     : 107.757842  H64     -C29     -H63     : 108.324015
 H66     -C65     -C4      : 108.132879  H67     -C65     -C4      : 112.685254
 H67     -C65     -H66     : 106.730829  H68     -C65     -C4      : 112.823543
 H68     -C65     -H66     : 107.002851  H68     -C65     -H67     : 109.122361
 H70     -C69     -C3      : 109.339266  H71     -C69     -C3      : 111.203527
 H71     -C69     -H70     : 107.472123  H72     -C69     -C3      : 112.572628
 H72     -C69     -H70     : 108.281951  H72     -C69     -H71     : 107.799103
 H119    -N118    -Pd2     : 103.330140  H120    -N118    -Pd2     :  99.722482
 H120    -N118    -H119    : 108.635216  C121    -N118    -Pd2     : 118.912457
 C121    -N118    -H119    : 113.258057  C121    -N118    -H120    : 111.725152
 C123    -C121    -N118    : 120.787076  C124    -C121    -N118    : 118.952235
 C124    -C121    -C123    : 120.177041  C126    -C122    -C125    : 119.466318
 H131    -C122    -C125    : 120.244579  H131    -C122    -C126    : 120.288524
 C126    -C123    -C121    : 119.745472  H127    -C123    -C121    : 119.999987
 H127    -C123    -C126    : 120.201911  C125    -C124    -C121    : 119.654426
 H128    -C124    -C121    : 119.160514  H128    -C124    -C125    : 121.160978
 C124    -C125    -C122    : 120.500549  H129    -C125    -C122    : 120.154666
 H129    -C125    -C124    : 119.343576  C123    -C126    -C122    : 120.455125
 H130    -C126    -C122    : 120.214803  H130    -C126    -C123    : 119.328351
 
  torsional angles:
 
 P1      -Pd2     -C76     -C75     :  72.376372
 P1      -Pd2     -C76     -C77     :-112.635271
 P1      -Pd2     -N118    -H119    :   7.362352
 P1      -Pd2     -N118    -H120    :-104.586093
 P1      -Pd2     -N118    -C121    : 133.836247
 P1      -C3      -C6      -H30     : -62.414350
 P1      -C3      -C6      -H31     :  61.038361
 P1      -C3      -C6      -H73     : 179.212713
 P1      -C3      -C7      -H32     : -47.424336
 P1      -C3      -C7      -H33     :  75.508746
 P1      -C3      -C7      -H74     :-166.488178
 P1      -C3      -C69     -H70     : 176.041312
 P1      -C3      -C69     -H71     : -65.439252
 P1      -C3      -C69     -H72     :  55.648284
 P1      -C4      -C8      -H34     : -72.838633
 P1      -C4      -C8      -H35     :  50.044642
 P1      -C4      -C8      -H75     : 168.788703
 P1      -C4      -C9      -H36     : -59.491374
 P1      -C4      -C9      -H37     :  62.706428
 P1      -C4      -C9      -H76     :-178.273785
 P1      -C4      -C65     -H66     : 173.880044
 P1      -C4      -C65     -H67     : -68.396111
 P1      -C4      -C65     -H68     :  55.737973
 P1      -C5      -C10     -C11     : 177.394568
 P1      -C5      -C10     -H38     :  -3.389515
 P1      -C5      -C14     -C13     :-176.820098
 P1      -C5      -C14     -C15     :   4.530288
 Pd2     -P1      -C3      -C6      : 167.485301
 Pd2     -P1      -C3      -C7      :  44.302779
 Pd2     -P1      -C3      -C69     : -73.845573
 Pd2     -P1      -C4      -C8      : -59.577909
 Pd2     -P1      -C4      -C9      :  57.115866
 Pd2     -P1      -C4      -C65     : 177.275819
 Pd2     -P1      -C5      -C10     : 178.535013
 Pd2     -P1      -C5      -C14     :  -2.902598
 Pd2     -C76     -C75     -C74     : 177.483032
 Pd2     -C76     -C75     -H14     :  -1.025865
 Pd2     -C76     -C77     -C78     :-177.439468
 Pd2     -C76     -C77     -H82     :   3.040877
 Pd2     -N118    -C121    -C123    : -98.682416
 Pd2     -N118    -C121    -C124    :  77.997678
 C73     -C74     -C75     -C76     :  -1.127081
 C73     -C74     -C75     -H14     : 177.415755
 C73     -C78     -C77     -C76     :   0.392896
 C73     -C78     -C77     -H82     : 179.923753
 C74     -C73     -C78     -C77     :   1.115187
 C74     -C73     -C78     -H83     :-178.979352
 C74     -C75     -C76     -C77     :   2.576841
 C75     -C74     -C73     -C78     :  -0.753734
 C75     -C74     -C73     -F79     : 179.713104
 C75     -C76     -Pd2     -N118    :-111.807504
 C75     -C76     -Pd2     -Br3     : -51.484228
 C75     -C76     -C77     -C78     :  -2.206696
 C75     -C76     -C77     -H82     : 178.273649
 C76     -Pd2     -P1      -C3      :-159.777955
 C76     -Pd2     -P1      -C4      : -29.469173
 C76     -Pd2     -P1      -C5      :  86.735058
 C76     -Pd2     -N118    -H119    : -71.605533
 C76     -Pd2     -N118    -H120    : 176.446022
 C76     -Pd2     -N118    -C121    :  54.868363
 C76     -C75     -C74     -H80     : 179.719112
 C76     -C77     -C78     -H83     :-179.510857
 C77     -C76     -Pd2     -N118    :  63.180854
 C77     -C76     -Pd2     -Br3     : 123.504130
 C77     -C76     -C75     -H14     :-175.932057
 C77     -C78     -C73     -F79     :-179.350970
 C78     -C73     -C74     -H80     : 178.413260
 F79     -C73     -C74     -H80     :  -1.119902
 F79     -C73     -C78     -H83     :   0.554490
 H80     -C74     -C75     -H14     :  -1.738052
 H82     -C77     -C78     -H83     :   0.020000
 C3      -P1      -Pd2     -N118    : 121.222816
 C3      -P1      -Pd2     -Br3     :  18.434528
 C3      -P1      -C4      -C8      :  71.057599
 C3      -P1      -C4      -C9      :-172.248626
 C3      -P1      -C4      -C65     : -52.088673
 C3      -P1      -C5      -C10     :  61.614306
 C3      -P1      -C5      -C14     :-119.823304
 C4      -P1      -Pd2     -N118    :-108.468402
 C4      -P1      -Pd2     -Br3     : 148.743310
 C4      -P1      -C3      -C6      :  32.307140
 C4      -P1      -C3      -C7      : -90.875382
 C4      -P1      -C3      -C69     : 150.976266
 C4      -P1      -C5      -C10     : -55.085682
 C4      -P1      -C5      -C14     : 123.476708
 C5      -P1      -Pd2     -N118    :   7.735829
 C5      -P1      -Pd2     -Br3     : -95.052459
 C5      -P1      -C3      -C6      : -80.722472
 C5      -P1      -C3      -C7      : 156.095006
 C5      -P1      -C3      -C69     :  37.946653
 C5      -P1      -C4      -C8      :-175.074042
 C5      -P1      -C4      -C9      : -58.380267
 C5      -P1      -C4      -C65     :  61.779686
 C5      -C10     -C11     -C12     :   0.099110
 C5      -C10     -C11     -H39     : 179.951888
 C5      -C14     -C13     -C12     :  -0.704018
 C5      -C14     -C13     -H41     : 179.772709
 C5      -C14     -C15     -C16     :-124.133445
 C5      -C14     -C15     -C20     :  79.786210
 C6      -C3      -C7      -H32     :-174.324211
 C6      -C3      -C7      -H33     : -51.391130
 C6      -C3      -C7      -H74     :  66.611947
 C6      -C3      -C69     -H70     : -60.309294
 C6      -C3      -C69     -H71     :  58.210142
 C6      -C3      -C69     -H72     : 179.297678
 C7      -C3      -C6      -H30     :  61.720378
 C7      -C3      -C6      -H31     :-174.826911
 C7      -C3      -C6      -H73     : -56.652559
 C7      -C3      -C69     -H70     :  57.034020
 C7      -C3      -C69     -H71     : 175.553457
 C7      -C3      -C69     -H72     : -63.359008
 C8      -C4      -C9      -H36     :  59.596595
 C8      -C4      -C9      -H37     :-178.205603
 C8      -C4      -C9      -H76     : -59.185816
 C8      -C4      -C65     -H66     :  48.864151
 C8      -C4      -C65     -H67     : 166.587996
 C8      -C4      -C65     -H68     : -69.277921
 C9      -C4      -C8      -H34     : 171.778273
 C9      -C4      -C8      -H35     : -65.338452
 C9      -C4      -C8      -H75     :  53.405609
 C9      -C4      -C65     -H66     : -67.720801
 C9      -C4      -C65     -H67     :  50.003044
 C9      -C4      -C65     -H68     : 174.137127
 C10     -C5      -C14     -C13     :   1.650016
 C10     -C5      -C14     -C15     :-176.999598
 C10     -C11     -C12     -C13     :   0.895032
 C10     -C11     -C12     -H40     :-179.689896
 C11     -C10     -C5      -C14     :  -1.386240
 C11     -C12     -C13     -C14     :  -0.593808
 C11     -C12     -C13     -H41     : 178.920987
 C12     -C11     -C10     -H38     :-179.133222
 C12     -C13     -C14     -C15     : 178.133879
 C13     -C12     -C11     -H39     :-178.956087
 C13     -C14     -C15     -C16     :  57.155936
 C13     -C14     -C15     -C20     : -98.924409
 C14     -C5      -C10     -H38     : 177.829677
 C14     -C13     -C12     -H40     : 179.987306
 C14     -C15     -C16     -C17     :-155.964994
 C14     -C15     -C16     -C23     :  19.660997
 C14     -C15     -C20     -C19     : 155.820022
 C14     -C15     -C20     -C21     : -20.853546
 C15     -C14     -C13     -H41     :  -1.389394
 C15     -C16     -C17     -C18     :   0.707478
 C15     -C16     -C17     -H42     : 179.812620
 C15     -C16     -C23     -C24     : 174.978922
 C15     -C16     -C23     -C27     : -60.103423
 C15     -C16     -C23     -H48     :  57.024454
 C15     -C20     -C19     -C18     :  -0.026484
 C15     -C20     -C19     -H43     : 179.831726
 C15     -C20     -C21     -C22     :  68.324915
 C15     -C20     -C21     -C26     :-167.046447
 C15     -C20     -C21     -H44     : -48.467438
 C16     -C15     -C20     -C19     :  -0.349133
 C16     -C15     -C20     -C21     :-177.022701
 C16     -C17     -C18     -C19     :  -1.068748
 C16     -C17     -C18     -C25     : 176.777268
 C16     -C23     -C24     -H49     :  70.529399
 C16     -C23     -C24     -H50     :-169.799734
 C16     -C23     -C24     -H51     : -49.207055
 C16     -C23     -C27     -H56     : -61.195222
 C16     -C23     -C27     -H57     : 178.887872
 C16     -C23     -C27     -H58     :  58.879959
 C17     -C16     -C15     -C20     :   0.019609
 C17     -C16     -C23     -C24     :  -9.373414
 C17     -C16     -C23     -C27     : 115.544241
 C17     -C16     -C23     -H48     :-127.327882
 C17     -C18     -C19     -C20     :   0.722401
 C17     -C18     -C19     -H43     :-179.136413
 C17     -C18     -C25     -C28     :  54.964025
 C17     -C18     -C25     -C29     : -69.575499
 C17     -C18     -C25     -H52     : 173.304766
 C18     -C17     -C16     -C23     :-175.017240
 C18     -C19     -C20     -C21     : 176.743812
 C18     -C25     -C28     -H59     : -64.955024
 C18     -C25     -C28     -H60     : 175.807740
 C18     -C25     -C28     -H61     :  55.016039
 C18     -C25     -C29     -H62     :  63.286423
 C18     -C25     -C29     -H63     : -56.812968
 C18     -C25     -C29     -H64     :-177.291349
 C19     -C18     -C17     -H42     : 179.829366
 C19     -C18     -C25     -C28     :-127.250797
 C19     -C18     -C25     -C29     : 108.209678
 C19     -C18     -C25     -H52     :  -8.910057
 C19     -C20     -C21     -C22     :-108.366380
 C19     -C20     -C21     -C26     :  16.262257
 C19     -C20     -C21     -H44     : 134.841267
 C20     -C15     -C16     -C23     : 175.645601
 C20     -C19     -C18     -C25     :-177.130001
 C20     -C21     -C22     -H45     :  60.640490
 C20     -C21     -C22     -H46     : -59.617110
 C20     -C21     -C22     -H47     :-179.711145
 C20     -C21     -C26     -H53     : -71.659482
 C20     -C21     -C26     -H54     : 169.151214
 C20     -C21     -C26     -H55     :  48.154494
 C21     -C20     -C19     -H43     :  -3.397978
 C22     -C21     -C26     -H53     :  52.975706
 C22     -C21     -C26     -H54     : -66.213598
 C22     -C21     -C26     -H55     : 172.789682
 C23     -C16     -C17     -H42     :   4.087902
 C24     -C23     -C27     -H56     :  64.156506
 C24     -C23     -C27     -H57     : -55.760401
 C24     -C23     -C27     -H58     :-175.768314
 C25     -C18     -C17     -H42     :  -2.324618
 C25     -C18     -C19     -H43     :   3.011185
 C26     -C21     -C22     -H45     : -64.054714
 C26     -C21     -C22     -H46     : 175.687686
 C26     -C21     -C22     -H47     :  55.593652
 C27     -C23     -C24     -H49     : -54.375565
 C27     -C23     -C24     -H50     :  65.295302
 C27     -C23     -C24     -H51     :-174.112019
 C28     -C25     -C29     -H62     : -62.199993
 C28     -C25     -C29     -H63     : 177.700616
 C28     -C25     -C29     -H64     :  57.222236
 C29     -C25     -C28     -H59     :  59.226046
 C29     -C25     -C28     -H60     : -60.011190
 C29     -C25     -C28     -H61     : 179.197109
 H30     -C6      -C3      -C69     : 179.382883
 H31     -C6      -C3      -C69     : -57.164406
 H32     -C7      -C3      -C69     :  69.130494
 H33     -C7      -C3      -C69     :-167.936424
 H34     -C8      -C4      -C65     :  54.510131
 H35     -C8      -C4      -C65     : 177.393406
 H36     -C9      -C4      -C65     : 176.186175
 H37     -C9      -C4      -C65     : -61.616023
 H38     -C10     -C11     -H39     :   0.719556
 H39     -C11     -C12     -H40     :   0.458986
 H40     -C12     -C13     -H41     :  -0.497899
 H44     -C21     -C22     -H45     : 177.653438
 H44     -C21     -C22     -H46     :  57.395838
 H44     -C21     -C22     -H47     : -62.698197
 H44     -C21     -C26     -H53     : 170.403239
 H44     -C21     -C26     -H54     :  51.213935
 H44     -C21     -C26     -H55     : -69.782784
 H48     -C23     -C24     -H49     :-171.831721
 H48     -C23     -C24     -H50     : -52.160854
 H48     -C23     -C24     -H51     :  68.431825
 H48     -C23     -C27     -H56     :-178.194448
 H48     -C23     -C27     -H57     :  61.888645
 H48     -C23     -C27     -H58     : -58.119268
 H52     -C25     -C28     -H59     : 177.015202
 H52     -C25     -C28     -H60     :  57.777966
 H52     -C25     -C28     -H61     : -63.013735
 H52     -C25     -C29     -H62     :-179.956050
 H52     -C25     -C29     -H63     :  59.944559
 H52     -C25     -C29     -H64     : -60.533822
 C65     -C4      -C8      -H75     : -63.862533
 C65     -C4      -C9      -H76     :  57.403763
 C69     -C3      -C6      -H73     :  61.009947
 C69     -C3      -C7      -H74     : -49.933348
 N118    -C121    -C123    -C126    : 176.661059
 N118    -C121    -C123    -H127    :  -0.706190
 N118    -C121    -C124    -C125    :-176.995538
 N118    -C121    -C124    -H128    :   1.240509
 H119    -N118    -Pd2     -Br3     : 110.263910
 H119    -N118    -C121    -C123    :  22.923436
 H119    -N118    -C121    -C124    :-160.396469
 H120    -N118    -Pd2     -Br3     :  -1.684535
 H120    -N118    -C121    -C123    : 145.992975
 H120    -N118    -C121    -C124    : -37.326931
 C121    -N118    -Pd2     -Br3     :-123.262195
 C121    -C123    -C126    -C122    :   0.225139
 C121    -C123    -C126    -H130    :-179.298625
 C121    -C124    -C125    -C122    :   0.324738
 C121    -C124    -C125    -H129    : 179.925363
 C122    -C125    -C124    -H128    :-177.875139
 C122    -C126    -C123    -H127    : 177.587000
 C123    -C121    -C124    -C125    :  -0.294680
 C123    -C121    -C124    -H128    : 177.941368
 C123    -C126    -C122    -C125    :  -0.195826
 C123    -C126    -C122    -H131    :-179.919724
 C124    -C121    -C123    -C126    :   0.021516
 C124    -C121    -C123    -H127    :-177.345733
 C124    -C125    -C122    -C126    :  -0.080786
 C124    -C125    -C122    -H131    : 179.643235
 C125    -C122    -C126    -H130    : 179.323704
 C126    -C122    -C125    -H129    :-179.678167
 H127    -C123    -C126    -H130    :  -1.936764
 H128    -C124    -C125    -H129    :   1.725486
 H129    -C125    -C122    -H131    :   0.045855
 H130    -C126    -C122    -H131    :  -0.400194
 
  nuclear repulsion energy.......          7300.001940919 hartrees
  
  Detected an organometallic with only one TM atom. 
  
  Oxidation state on metal       2 is     2
  Formal multiplet on metal      2 is     1
  Formal charge on ligand        3 is    -1
  Formal multiplet on ligand     3 is     1
  Formal charge on ligand        5 is    -1
  Formal multiplet on ligand     5 is     1
  
 
  Will use High-Quality Initial guess for organometallics
       including d-d repulsion (iguess=30)
 
 Non-default options chosen:
   SCF calculation type: DFT(b3pw91-d3)              
   DFT=Becke_3_Parameter/HF+Slater+Becke88+PW91+PW-GGAIIC (B3PW91-D3)
   Geometry will be optimized in redundant internal coordinates
   Solvation energy will be computed using PBF
     -solute cavity energy will not be included
     -surface area terms will not be included
   Vibrational frequencies and related properties will be computed
      from analytic second derivatives
   IR intensities will be computed
   Thermochemical properties will be computed
   Maximum number of geometry steps: 100
   Scaling standard convergence criteria by a factor of   5.00
   Solvent: benzene                                                         
   Internal dielectric constant:    1.000
   Continuum dielectric constant:   2.283
   Solvent probe molecule radius:   2.600
  
 Non-default print settings:
     11=  2
  
 Temporary integer options set:
     21= -1  73=  2
  
  atom       vdw   vdw2    cov     mass  grid  daf  charge   basis
  P1        2.147  2.074  1.060   30.974    Y    Y      Y    ps_6-31g*
  Pd2       1.450  1.450  1.280  105.903    Y    Y      Y    lacv3p*
  C73       1.949  1.900  0.770   12.000    Y    Y      Y    ps_6-31g*
  C74       1.949  1.900  0.770   12.000    Y    Y      Y    ps_6-31g*
  C75       1.949  1.900  0.770   12.000    Y    Y      Y    ps_6-31g*
  C76       1.949  1.900  0.770   12.000    Y    Y      Y    ps_6-31g*
  C77       1.949  1.900  0.770   12.000    Y    Y      Y    ps_6-31g*
  C78       1.949  1.900  0.770   12.000    Y    Y      Y    ps_6-31g*
  F79       1.736  1.682  0.720   18.998    Y    Y      Y    ps_6-31g*
  H80       1.597  1.150  0.320    1.008    Y    Y      Y    ps_6-31g*
  H82       1.597  1.150  0.320    1.008    Y    Y      Y    ps_6-31g*
  H83       1.597  1.150  0.320    1.008    Y    Y      Y    ps_6-31g*
  H14       1.597  1.150  0.320    1.008    Y    Y      Y    ps_6-31g*
  C3        1.949  1.900  0.770   12.000    Y    Y      Y    ps_6-31g*
  C4        1.949  1.900  0.770   12.000    Y    Y      Y    ps_6-31g*
  C5        1.949  1.900  0.770   12.000    Y    Y      Y    ps_6-31g*
  C6        1.949  1.900  0.770   12.000    Y    Y      Y    ps_6-31g*
  C7        1.949  1.900  0.770   12.000    Y    Y      Y    ps_6-31g*
  C8        1.949  1.900  0.770   12.000    Y    Y      Y    ps_6-31g*
  C9        1.949  1.900  0.770   12.000    Y    Y      Y    ps_6-31g*
  C10       1.949  1.900  0.770   12.000    Y    Y      Y    ps_6-31g*
  C11       1.949  1.900  0.770   12.000    Y    Y      Y    ps_6-31g*
  C12       1.949  1.900  0.770   12.000    Y    Y      Y    ps_6-31g*
  C13       1.949  1.900  0.770   12.000    Y    Y      Y    ps_6-31g*
  C14       1.949  1.900  0.770   12.000    Y    Y      Y    ps_6-31g*
  C15       1.949  1.900  0.770   12.000    Y    Y      Y    ps_6-31g*
  C16       1.949  1.900  0.770   12.000    Y    Y      Y    ps_6-31g*
  C17       1.949  1.900  0.770   12.000    Y    Y      Y    ps_6-31g*
  C18       1.949  1.900  0.770   12.000    Y    Y      Y    ps_6-31g*
  C19       1.949  1.900  0.770   12.000    Y    Y      Y    ps_6-31g*
  C20       1.949  1.900  0.770   12.000    Y    Y      Y    ps_6-31g*
  C21       1.949  1.900  0.770   12.000    Y    Y      Y    ps_6-31g*
  C22       1.949  1.900  0.770   12.000    Y    Y      Y    ps_6-31g*
  C23       1.949  1.900  0.770   12.000    Y    Y      Y    ps_6-31g*
  C24       1.949  1.900  0.770   12.000    Y    Y      Y    ps_6-31g*
  C25       1.949  1.900  0.770   12.000    Y    Y      Y    ps_6-31g*
  C26       1.949  1.900  0.770   12.000    Y    Y      Y    ps_6-31g*
  C27       1.949  1.900  0.770   12.000    Y    Y      Y    ps_6-31g*
  C28       1.949  1.900  0.770   12.000    Y    Y      Y    ps_6-31g*
  C29       1.949  1.900  0.770   12.000    Y    Y      Y    ps_6-31g*
  H30       1.597  1.150  0.320    1.008    Y    Y      Y    ps_6-31g*
  H31       1.597  1.150  0.320    1.008    Y    Y      Y    ps_6-31g*
  H32       1.597  1.150  0.320    1.008    Y    Y      Y    ps_6-31g*
  H33       1.597  1.150  0.320    1.008    Y    Y      Y    ps_6-31g*
  H34       1.597  1.150  0.320    1.008    Y    Y      Y    ps_6-31g*
  H35       1.597  1.150  0.320    1.008    Y    Y      Y    ps_6-31g*
  H36       1.597  1.150  0.320    1.008    Y    Y      Y    ps_6-31g*
  H37       1.597  1.150  0.320    1.008    Y    Y      Y    ps_6-31g*
  H38       1.597  1.150  0.320    1.008    Y    Y      Y    ps_6-31g*
  H39       1.597  1.150  0.320    1.008    Y    Y      Y    ps_6-31g*
  H40       1.597  1.150  0.320    1.008    Y    Y      Y    ps_6-31g*
  H41       1.597  1.150  0.320    1.008    Y    Y      Y    ps_6-31g*
  H42       1.597  1.150  0.320    1.008    Y    Y      Y    ps_6-31g*
  H43       1.597  1.150  0.320    1.008    Y    Y      Y    ps_6-31g*
  H44       1.597  1.150  0.320    1.008    Y    Y      Y    ps_6-31g*
  H45       1.597  1.150  0.320    1.008    Y    Y      Y    ps_6-31g*
  H46       1.597  1.150  0.320    1.008    Y    Y      Y    ps_6-31g*
  H47       1.597  1.150  0.320    1.008    Y    Y      Y    ps_6-31g*
  H48       1.597  1.150  0.320    1.008    Y    Y      Y    ps_6-31g*
  H49       1.597  1.150  0.320    1.008    Y    Y      Y    ps_6-31g*
  H50       1.597  1.150  0.320    1.008    Y    Y      Y    ps_6-31g*
  H51       1.597  1.150  0.320    1.008    Y    Y      Y    ps_6-31g*
  H52       1.597  1.150  0.320    1.008    Y    Y      Y    ps_6-31g*
  H53       1.597  1.150  0.320    1.008    Y    Y      Y    ps_6-31g*
  H54       1.597  1.150  0.320    1.008    Y    Y      Y    ps_6-31g*
  H55       1.597  1.150  0.320    1.008    Y    Y      Y    ps_6-31g*
  H56       1.597  1.150  0.320    1.008    Y    Y      Y    ps_6-31g*
  H57       1.597  1.150  0.320    1.008    Y    Y      Y    ps_6-31g*
  H58       1.597  1.150  0.320    1.008    Y    Y      Y    ps_6-31g*
  H59       1.597  1.150  0.320    1.008    Y    Y      Y    ps_6-31g*
  H60       1.597  1.150  0.320    1.008    Y    Y      Y    ps_6-31g*
  H61       1.597  1.150  0.320    1.008    Y    Y      Y    ps_6-31g*
  H62       1.597  1.150  0.320    1.008    Y    Y      Y    ps_6-31g*
  H63       1.597  1.150  0.320    1.008    Y    Y      Y    ps_6-31g*
  H64       1.597  1.150  0.320    1.008    Y    Y      Y    ps_6-31g*
  C65       1.949  1.900  0.770   12.000    Y    Y      Y    ps_6-31g*
  H66       1.597  1.150  0.320    1.008    Y    Y      Y    ps_6-31g*
  H67       1.597  1.150  0.320    1.008    Y    Y      Y    ps_6-31g*
  H68       1.597  1.150  0.320    1.008    Y    Y      Y    ps_6-31g*
  C69       1.949  1.900  0.770   12.000    Y    Y      Y    ps_6-31g*
  H70       1.597  1.150  0.320    1.008    Y    Y      Y    ps_6-31g*
  H71       1.597  1.150  0.320    1.008    Y    Y      Y    ps_6-31g*
  H72       1.597  1.150  0.320    1.008    Y    Y      Y    ps_6-31g*
  H73       1.597  1.150  0.320    1.008    Y    Y      Y    ps_6-31g*
  H74       1.597  1.150  0.320    1.008    Y    Y      Y    ps_6-31g*
  H75       1.597  1.150  0.320    1.008    Y    Y      Y    ps_6-31g*
  H76       1.597  1.150  0.320    1.008    Y    Y      Y    ps_6-31g*
  N118      1.831  1.600  0.750   14.003    Y    Y      Y    ps_6-31g*
  H119      1.597  1.150  0.320    1.008    Y    Y      Y    ps_6-31g*
  H120      1.597  1.150  0.320    1.008    Y    Y      Y    ps_6-31g*
  C121      1.949  1.900  0.770   12.000    Y    Y      Y    ps_6-31g*
  C122      1.949  1.900  0.770   12.000    Y    Y      Y    ps_6-31g*
  C123      1.949  1.900  0.770   12.000    Y    Y      Y    ps_6-31g*
  C124      1.949  1.900  0.770   12.000    Y    Y      Y    ps_6-31g*
  C125      1.949  1.900  0.770   12.000    Y    Y      Y    ps_6-31g*
  C126      1.949  1.900  0.770   12.000    Y    Y      Y    ps_6-31g*
  H127      1.597  1.150  0.320    1.008    Y    Y      Y    ps_6-31g*
  H128      1.597  1.150  0.320    1.008    Y    Y      Y    ps_6-31g*
  H129      1.597  1.150  0.320    1.008    Y    Y      Y    ps_6-31g*
  H130      1.597  1.150  0.320    1.008    Y    Y      Y    ps_6-31g*
  H131      1.597  1.150  0.320    1.008    Y    Y      Y    ps_6-31g*
  Br3       2.095  2.095  1.140   78.918    Y    Y      Y    lav3p*
 
  atom      formal  2spin      esp    mulk    frag
  P1           0       0        Y    0.000       0
  Pd2          2       0        Y    0.000       0
  C73         -1       0        Y    0.000       0
  N118         0       0        Y    0.000       0
  Br3         -1       0        Y    0.000       0
  
  end of program pre
   
 Time(pre)  user:       4.821  user+sys:       4.821  wallclock:       1.801
  
  start of program onee
  
  smallest eigenvalue of S:    3.046E-04
  number of canonical orbitals.....          768
  end of program onee
   
 Time(onee)  user:      20.639  user+sys:      20.639  wallclock:       4.326
  
  start of program hfig
  
  initial wavefunction generated automatically from atomic wavefunctions
  Only one state below 0.010000
  Skip d-d repulsion considerations 
 
  Irreducible     Total no   No of occupied orbitals 
  representation  orbitals   Shell_1  Shell_2    ...
  No Symm          768        179
  ------------------------
  Orbital occupation/shell    1.000
 
  end of program hfig
   
 Time(hfig)  user:       3.401  user+sys:       3.401  wallclock:       1.722
  
  start of program probe
  
  end of program probe
   
 Time(probe)  user:       1.818  user+sys:       1.818  wallclock:       0.663
  
  start of program grid
  
   grid     grid set  grid #  grid sym
  ------    --------  ------  --------
  coarse        0        0        1
  medium        2        1        1
  fine          0        0        1
  ultrafine     4        2        1
  charge       -1        3        1
  gradient      4        2        1
  density       0        0        1
  DFT-fine    -11        4        1
  DFT-med.    -10        5        1
  DFT-grad    -12        6        1
  DFT-der2     -8        7        1
  DFT-cphf     -9        8        1
  LMP2-enrg     4        2        1
  LMP2-grad     2        1        1
  DFT-cphf2   -15        9        1
  PBF-dens      0        0        1
  plotting      0        0        1
  Rel-grad    -17        0        1
  
  number of gridpoints: 
     atom           P1         Pd2         C73         C74         C75         C76         C77
  grid # 1         607         343          77          91          91          98          93
  grid # 2         428         306         331         316         292         381         317
  grid # 3           8         209          28          17          13           7           7
  grid # 4        8714        8714        8714        8714        8714        8714        8714
  grid # 5        1192        1192        1192        1192        1192        1192        1192
  grid # 6        9132        9132        5922        5922        5922        5922        5922
  grid # 7       23034       32968       13950       13950       13950       13950       13950
  grid # 8         722        1150         748         748         748         748         748
  grid # 9         366        2198         394         394         394         394         394
   
  number of gridpoints: 
     atom          C78         F79         H80         H82         H83         H14          C3
  grid # 1          92         584         115          99         105         102          90
  grid # 2         317         565         461         404         428         413         365
  grid # 3          12         346         363          31         162         138           6
  grid # 4        8714        8714        8714        8714        8714        8714        8714
  grid # 5        1192        1192        1192        1192        1192        1192        1192
  grid # 6        5922        5922        5922        5922        5922        5922        5922
  grid # 7       13950       23190       15206       15206       15206       15206       13950
  grid # 8         748         770         786         786         786         786         748
  grid # 9         394         420         420         420         420         420         394
   
  number of gridpoints: 
     atom           C4          C5          C6          C7          C8          C9         C10
  grid # 1          89          89          81          81          79          79          92
  grid # 2         372         382         235         238         241         239         322
  grid # 3           6           8           6           6           6           6           8
  grid # 4        8714        8714        8714        8714        8714        8714        8714
  grid # 5        1192        1192        1192        1192        1192        1192        1192
  grid # 6        5922        5922        5922        5922        5922        5922        5922
  grid # 7       13950       13950       13950       13950       13950       13950       13950
  grid # 8         748         748         748         748         748         748         748
  grid # 9         394         394         394         394         394         394         394
   
  number of gridpoints: 
     atom          C11         C12         C13         C14         C15         C16         C17
  grid # 1          94          93          89          98         100          94          95
  grid # 2         321         316         288         350         362         337         326
  grid # 3          24          13           6           6           7           8          19
  grid # 4        8714        8714        8714        8714        8714        8714        8714
  grid # 5        1192        1192        1192        1192        1192        1192        1192
  grid # 6        5922        5922        5922        5922        5922        5922        5922
  grid # 7       13950       13950       13950       13950       13950       13950       13950
  grid # 8         748         748         748         748         748         748         748
  grid # 9         394         394         394         394         394         394         394
   
  number of gridpoints: 
     atom          C18         C19         C20         C21         C22         C23         C24
  grid # 1         100          95          96          91          81          90          81
  grid # 2         358         325         356         305         240         304         237
  grid # 3          11          18           9           6           6           6           6
  grid # 4        8714        8714        8714        8714        8714        8714        8714
  grid # 5        1192        1192        1192        1192        1192        1192        1192
  grid # 6        5922        5922        5922        5922        5922        5922        5922
  grid # 7       13950       13950       13950       13950       13950       13950       13950
  grid # 8         748         748         748         748         748         748         748
  grid # 9         394         394         394         394         394         394         394
   
  number of gridpoints: 
     atom          C25         C26         C27         C28         C29         H30         H31
  grid # 1          89          80          79          81          80         102         101
  grid # 2         302         239         243         239         244         419         421
  grid # 3           6           6           6           6           6         145         162
  grid # 4        8714        8714        8714        8714        8714        8714        8714
  grid # 5        1192        1192        1192        1192        1192        1192        1192
  grid # 6        5922        5922        5922        5922        5922        5922        5922
  grid # 7       13950       13950       13950       13950       13950       15206       15206
  grid # 8         748         748         748         748         748         786         786
  grid # 9         394         394         394         394         394         420         420
   
  number of gridpoints: 
     atom          H32         H33         H34         H35         H36         H37         H38
  grid # 1          94         105         106         100          96         103          96
  grid # 2         431         439         436         404         395         438         401
  grid # 3         124         222         188         115          35         160          49
  grid # 4        8714        8714        8714        8714        8714        8714        8714
  grid # 5        1192        1192        1192        1192        1192        1192        1192
  grid # 6        5922        5922        5922        5922        5922        5922        5922
  grid # 7       15206       15206       15206       15206       15206       15206       15206
  grid # 8         786         786         786         786         786         786         786
  grid # 9         420         420         420         420         420         420         420
   
  number of gridpoints: 
     atom          H39         H40         H41         H42         H43         H44         H45
  grid # 1         118         117         106          99         103          76         110
  grid # 2         464         464         423         418         429         370         454
  grid # 3         400         390         162          62         127           6         288
  grid # 4        8714        8714        8714        8714        8714        8714        8714
  grid # 5        1192        1192        1192        1192        1192        1192        1192
  grid # 6        5922        5922        5922        5922        5922        5922        5922
  grid # 7       15206       15206       15206       15206       15206       15206       15206
  grid # 8         786         786         786         786         786         786         786
  grid # 9         420         420         420         420         420         420         420
   
  number of gridpoints: 
     atom          H46         H47         H48         H49         H50         H51         H52
  grid # 1         104         108         100         108         108          98         109
  grid # 2         419         438         415         441         443         418         443
  grid # 3          85         215          70         243         267         138         220
  grid # 4        8714        8714        8714        8714        8714        8714        8714
  grid # 5        1192        1192        1192        1192        1192        1192        1192
  grid # 6        5922        5922        5922        5922        5922        5922        5922
  grid # 7       15206       15206       15206       15206       15206       15206       15206
  grid # 8         786         786         786         786         786         786         786
  grid # 9         420         420         420         420         420         420         420
   
  number of gridpoints: 
     atom          H53         H54         H55         H56         H57         H58         H59
  grid # 1         106         103          95         103         109          96         107
  grid # 2         441         439         428         438         455         398         445
  grid # 3         242         238         144         223         305          65         226
  grid # 4        8714        8714        8714        8714        8714        8714        8714
  grid # 5        1192        1192        1192        1192        1192        1192        1192
  grid # 6        5922        5922        5922        5922        5922        5922        5922
  grid # 7       15206       15206       15206       15206       15206       15206       15206
  grid # 8         786         786         786         786         786         786         786
  grid # 9         420         420         420         420         420         420         420
   
  number of gridpoints: 
     atom          H60         H61         H62         H63         H64         C65         H66
  grid # 1         108         108         107         111         109          82         107
  grid # 2         452         448         447         458         454         232         445
  grid # 3         322         255         250         334         321           6         265
  grid # 4        8714        8714        8714        8714        8714        8714        8714
  grid # 5        1192        1192        1192        1192        1192        1192        1192
  grid # 6        5922        5922        5922        5922        5922        5922        5922
  grid # 7       15206       15206       15206       15206       15206       13950       15206
  grid # 8         786         786         786         786         786         748         786
  grid # 9         420         420         420         420         420         394         420
   
  number of gridpoints: 
     atom          H67         H68         C69         H70         H71         H72         H73
  grid # 1         102          98          79         107         101          85         109
  grid # 2         422         415         240         442         420         378         446
  grid # 3         175         116           6         232          92          19         269
  grid # 4        8714        8714        8714        8714        8714        8714        8714
  grid # 5        1192        1192        1192        1192        1192        1192        1192
  grid # 6        5922        5922        5922        5922        5922        5922        5922
  grid # 7       15206       15206       13950       15206       15206       15206       15206
  grid # 8         786         786         748         786         786         786         786
  grid # 9         420         420         394         420         420         420         420
   
  number of gridpoints: 
     atom          H74         H75         H76        N118        H119        H120        C121
  grid # 1         108         108         107         100         103         104          97
  grid # 2         446         442         443         311         414         423         353
  grid # 3         252         237         228           6          79         149          33
  grid # 4        8714        8714        8714        8714        8714        8714        8714
  grid # 5        1192        1192        1192        1192        1192        1192        1192
  grid # 6        5922        5922        5922        5922        5922        5922        5922
  grid # 7       15206       15206       15206       13958       15206       15206       13950
  grid # 8         786         786         786         756         786         786         748
  grid # 9         420         420         420         406         420         420         394
   
  number of gridpoints: 
     atom         C122        C123        C124        C125        C126        H127        H128
  grid # 1          97          96          96          96          96         111         113
  grid # 2         325         323         326         326         327         445         456
  grid # 3          47          34          40          47          42         189         280
  grid # 4        8714        8714        8714        8714        8714        8714        8714
  grid # 5        1192        1192        1192        1192        1192        1192        1192
  grid # 6        5922        5922        5922        5922        5922        5922        5922
  grid # 7       13950       13950       13950       13950       13950       15206       15206
  grid # 8         748         748         748         748         748         786         786
  grid # 9         394         394         394         394         394         420         420
   
  number of gridpoints: 
     atom         H129        H130        H131         Br3       total
  grid # 1         118         118         118         467       11635
  grid # 2         466         465         467         401       38770
  grid # 3         418         395         419          92       12533
  grid # 4        8714        8714        8714        8714      888828
  grid # 5        1192        1192        1192        1192      121584
  grid # 6        5922        5922        5922        9132      613674
  grid # 7       15206       15206       15206       11582     1528218
  grid # 8         786         786         786         694       78776
  grid # 9         420         420         420         358       43422
   
  end of program grid
   
 Time(grid)  user:     903.637  user+sys:     903.637  wallclock:      61.585
  
  start of program rwr
  
  end of program rwr
   
 Time(rwr)  user:     100.784  user+sys:     100.784  wallclock:      26.526
  
  start of program scf
  
 number of electrons..........        358
 number of alpha electrons....        179
 number of beta electrons.....        179
 number of orbitals, total....        768
 number of doubly-occ'd orbs..        179
 number of open shell orbs....          0
 number of occupied orbitals..        179
 number of virtual orbitals...        589
 number of hamiltonians.......          1
 number of shells.............          1
 SCF type: DFT=Becke_3_Parameter/HF+Slater+Becke88+PW91+PW-GGAIIC (B3PW91-D3)
 Energy computed using pseudospectral method.
 Convergence Criterion:
    Energy (econv):       1.00E-05
    RMS density (dconv):  5.00E-06
  
       i  u  d  i  g                   
       t  p  i  c  r                                 RMS    maximum
       e  d  i  u  i                       energy  density   DIIS  
       r  t  s  t  d       total energy    change  change    error 
  
etot    1  N  N  5  M   -2225.46960003585           1.9E-03  2.0E-01
etot    2  Y  Y  6  M   -2229.30134918687  3.8E+00  3.3E-03  1.2E-01
etot    3  Y  Y  6  M   -2230.43396496383  1.1E+00  1.4E-03  6.7E-02
etot    4  N  Y  2  U   -2230.85715365794  4.2E-01  9.8E-04  3.5E-02
etot    5  Y  Y  6  M   -2231.03473510953  1.8E-01  5.4E-04  2.2E-02
etot    6  N  Y  2  U   -2231.05357733524  1.9E-02  6.8E-04  1.3E-02
etot    7  Y  Y  6  M   -2231.05049334923 -3.1E-03  1.7E-04  5.1E-03
etot    8  Y  Y  6  M   -2231.06098640998  1.0E-02  5.9E-05  1.7E-03
etot    9  N  Y  2  U   -2231.06300088756  2.0E-03  1.4E-05  2.1E-04
etot   10  N  Y  2  U   -2231.06301801880  1.7E-05  5.0E-06  1.9E-04
etot   11  N  Y  2  U   -2231.06302264220  4.6E-06  1.7E-06  2.6E-05
etot   12  N  N  2  U   -2231.06302277080  1.3E-07  0.0E+00  0.0E+00
 
  Computing the dispersion energy correction and its gradients...
  
  
 Energy components, in hartrees:
   (A)  Nuclear repulsion............    7300.00194091934
   (E)  Total one-electron terms.....  -17639.20496962595
   (F)    Electron-nuclear...........  -19770.44847212213
   (H)    Kinetic....................    2131.24350249618
   (I)  Total two-electron terms.....    8108.14000593582
   (J)    Coulomb....................    8407.65606972773
   (K)    Exchange+Correlation.......    -299.51606379190
   (L)  Electronic energy............   -9531.06496369013  (E+I)
   (N0) D3 correction................      -0.21223951435
   (N)  Total energy.................   -2231.27526228515  (A+L+N0)
   (O)  Gas phase energy.............   -2231.27526228515
  
 SCFE: SCF energy: DFT(b3pw91-d3)     -2231.27526228515 hartrees   iterations:  12
  
 
 HOMO energy:    -0.17789
 LUMO energy:    -0.04178
 
  Orbital energies (hartrees): 
   -77.08931   -24.67808   -14.36641   -10.24398   -10.21683   -10.20646
   -10.19976   -10.19883   -10.19758   -10.18871   -10.18502   -10.18447
   -10.18249   -10.18208   -10.18017   -10.17961   -10.17845   -10.17679
   -10.17394   -10.17370   -10.17301   -10.17213   -10.17139   -10.16888
   -10.16744   -10.16720   -10.16596   -10.16554   -10.16414   -10.16365
   -10.16161   -10.16052   -10.16046   -10.16011   -10.16007   -10.15939
   -10.15760   -10.14610   -10.14244   -10.13318   -10.13200   -10.13037
   -10.12987   -10.12939    -6.58802    -4.74590    -4.74538    -4.74357
    -3.33797    -2.07108    -2.06859    -2.03622    -1.21076    -0.94509
    -0.89234    -0.86704    -0.86066    -0.84736    -0.83534    -0.82295
    -0.82161    -0.81118    -0.78382    -0.78082    -0.77172    -0.75565
    -0.75112    -0.73744    -0.73655    -0.73055    -0.72576    -0.70601
    -0.70267    -0.69317    -0.69126    -0.69018    -0.68301    -0.67553
    -0.66416    -0.65421    -0.63744    -0.62852    -0.62043    -0.61705
    -0.61448    -0.60626    -0.59937    -0.59298    -0.58885    -0.55612
    -0.55281    -0.54676    -0.54004    -0.53542    -0.53329    -0.52381
    -0.51420    -0.49282    -0.49135    -0.48482    -0.48158    -0.47864
    -0.47560    -0.47400    -0.46715    -0.46420    -0.46212    -0.46052
    -0.45335    -0.45040    -0.44852    -0.44708    -0.44120    -0.44059
    -0.43848    -0.43609    -0.43518    -0.42843    -0.42473    -0.42407
    -0.42197    -0.42083    -0.41757    -0.41588    -0.40995    -0.40648
    -0.40409    -0.39607    -0.39540    -0.39341    -0.38967    -0.38668
    -0.38282    -0.38110    -0.37954    -0.37517    -0.37306    -0.36982
    -0.36547    -0.36405    -0.36185    -0.36092    -0.35734    -0.35622
    -0.35424    -0.35210    -0.34817    -0.34640    -0.34537    -0.34246
    -0.34003    -0.33929    -0.33549    -0.33137    -0.32599    -0.32329
    -0.32221    -0.31999    -0.31627    -0.31298    -0.31021    -0.30322
    -0.29552    -0.29367    -0.28483    -0.26699    -0.26231    -0.26069
    -0.25412    -0.24993    -0.24005    -0.23771    -0.23537    -0.23386
    -0.22559    -0.21245    -0.20657    -0.19786    -0.17789    -0.04178
    -0.03844    -0.02468    -0.01321    -0.00877    -0.00395    -0.00119
     0.00682     0.00901     0.03431
 
  end of program scf
   
 Time(scf)  user:     984.144  user+sys:     984.144  wallclock:     125.031
  
  start of program der1a
  
  end of program der1a
   
 Time(der1a)  user:      53.899  user+sys:      53.899  wallclock:       4.573
  
  start of program rwr
  
  end of program rwr
   
 Time(rwr)  user:      71.042  user+sys:      71.042  wallclock:      28.467
  
  start of program der1b
  
   
  forces (hartrees/bohr) : total     
   
 atom  label           x              y              z
 ---- --------   -------------  -------------  -------------
    1 P1         -1.955903E-03   1.703909E-05   1.848181E-02
    2 Pd2         1.245029E-02   1.319885E-02  -1.549185E-02
    3 C73         3.440782E-04  -5.362490E-04  -7.615469E-04
    4 C74         3.849690E-03   9.325462E-03   1.603825E-02
    5 C75         1.215132E-02   1.232121E-02   4.770039E-02
    6 C76        -8.982970E-03  -4.622832E-03   2.919835E-02
    7 C77         6.494450E-03   2.067001E-02   5.243309E-03
    8 C78         6.260121E-03   5.147080E-03   1.569507E-03
    9 F79        -1.474303E-03   3.683316E-04  -2.045519E-04
   10 H80        -3.206392E-04  -9.402555E-04  -3.479110E-04
   11 H82         4.483576E-03   1.424087E-02   4.404157E-03
   12 H83         1.638673E-03   4.946958E-03  -7.761312E-04
   13 H14         5.891651E-03  -8.635888E-03   9.528078E-03
   14 C3         -4.600815E-03  -2.454920E-03  -1.019942E-03
   15 C4          3.389295E-03  -5.637002E-03   1.562301E-03
   16 C5          4.672267E-03   2.693765E-03  -1.606970E-02
   17 C6         -3.677965E-03   3.391923E-03   7.232303E-04
   18 C7          1.066242E-02   1.372337E-02  -9.496293E-03
   19 C8         -8.373289E-03   4.462614E-03  -4.267057E-03
   20 C9          7.157695E-04  -1.260951E-02  -2.080035E-02
   21 C10        -4.401503E-03  -1.212563E-02  -4.220493E-03
   22 C11         2.977098E-04  -3.958964E-04   5.281676E-04
   23 C12        -1.297533E-02   2.484751E-03  -7.385898E-03
   24 C13        -4.566253E-02   6.716575E-03  -1.146308E-02
   25 C14        -1.662717E-03   2.684071E-02   1.277569E-02
   26 C15        -1.289953E-02  -1.677745E-02   3.026597E-04
   27 C16        -1.426501E-02  -8.039965E-03  -1.091642E-02
   28 C17        -2.159249E-03  -9.907680E-05   4.742578E-03
   29 C18         5.894626E-04   1.928599E-03   1.349471E-03
   30 C19         5.059795E-03   1.962173E-03   8.229170E-03
   31 C20         1.990534E-03   5.689808E-04  -8.197481E-03
   32 C21        -5.121883E-05  -5.164071E-02  -6.623991E-03
   33 C22        -5.636283E-03  -9.475484E-03   4.159197E-03
   34 C23        -2.453683E-03  -1.291750E-02  -8.183458E-03
   35 C24         1.750910E-03  -5.866960E-04  -4.454021E-03
   36 C25         1.566769E-04  -1.544874E-03  -1.097407E-03
   37 C26        -1.675807E-02  -3.166731E-02   3.616482E-03
   38 C27         4.148578E-02  -1.133431E-02   1.027102E-02
   39 C28        -6.863606E-04  -1.733513E-03  -1.973765E-03
   40 C29        -5.673591E-04  -5.996773E-05   1.072461E-03
   41 H30        -5.851739E-03   2.465403E-03   2.649748E-03
   42 H31        -2.089810E-03   1.606854E-03  -1.680490E-03
   43 H32         1.279712E-03   9.035424E-03  -1.173646E-02
   44 H33         2.592380E-03   1.186251E-03  -3.393864E-03
   45 H34        -2.577728E-03  -3.709634E-04  -1.068956E-03
   46 H35        -7.027038E-03   5.511537E-03  -1.163593E-02
   47 H36        -1.394143E-03  -1.525321E-02  -4.449126E-02
   48 H37        -1.262909E-03  -5.847827E-04  -1.680660E-03
   49 H38        -3.541347E-03  -5.305762E-03   3.069037E-03
   50 H39        -8.389513E-05  -6.631936E-04   5.111320E-04
   51 H40         1.920917E-04   6.093783E-04   8.817575E-04
   52 H41        -2.067353E-02   6.019933E-03  -4.037803E-03
   53 H42        -4.416805E-03   7.234448E-04   3.035357E-04
   54 H43         2.291660E-03  -2.387850E-03  -6.251412E-04
   55 H44         5.221011E-03  -5.009151E-02   5.405033E-03
   56 H45        -5.793361E-04  -8.976846E-04  -1.126844E-03
   57 H46        -7.487300E-03  -4.521778E-05   2.324061E-03
   58 H47        -2.863342E-04  -1.551722E-03   1.932286E-03
   59 H48        -8.520425E-04  -4.949331E-03  -6.589366E-03
   60 H49        -1.802557E-04  -5.581375E-05  -9.223815E-04
   61 H50        -1.484736E-03   5.392438E-04   3.371969E-04
   62 H51         3.637241E-03  -2.340470E-03  -6.479309E-04
   63 H52        -3.306611E-04  -4.954872E-05   5.184073E-04
   64 H53        -2.634642E-03  -8.646375E-03  -3.774070E-03
   65 H54        -2.755611E-03  -7.635293E-03   3.387984E-03
   66 H55        -1.072074E-02  -1.009445E-02  -4.384117E-04
   67 H56         3.304872E-03  -1.248599E-03   5.861924E-05
   68 H57         3.005350E-03  -1.067230E-03   1.906316E-03
   69 H58         4.974956E-02  -1.070178E-02   9.312118E-03
   70 H59        -1.679563E-04   4.258550E-05   1.770386E-05
   71 H60         4.733616E-04   1.289146E-03   4.932408E-04
   72 H61         2.185173E-04   1.458211E-03   1.705505E-03
   73 H62        -5.535989E-05   2.069821E-04  -2.475393E-04
   74 H63         8.449023E-04   6.344789E-04   5.771411E-04
   75 H64        -1.534502E-04  -2.849431E-04  -2.941097E-04
   76 C65         4.108526E-03   3.886424E-03  -4.908977E-03
   77 H66         1.144871E-03  -8.376550E-05   1.216896E-03
   78 H67         4.033185E-03   2.709829E-03   3.205104E-04
   79 H68         1.044926E-02  -4.277769E-03  -8.683495E-04
   80 C69        -2.780159E-03  -4.338260E-03  -1.763360E-02
   81 H70         8.449182E-04   1.219705E-03   1.108659E-03
   82 H71        -3.113472E-04   1.038088E-03  -4.202749E-03
   83 H72        -9.623636E-03   1.318772E-02  -3.873050E-02
   84 H73         4.356846E-05  -1.047151E-03   6.868032E-04
   85 H74         6.826836E-04  -3.223861E-04   5.583505E-04
   86 H75        -1.861219E-03   9.592392E-05   1.994178E-03
   87 H76        -2.502610E-04   1.466033E-04  -1.075786E-03
   88 N118       -3.254104E-03  -2.778348E-03  -3.591633E-03
   89 H119       -4.543914E-04  -7.466512E-04   1.633470E-03
   90 H120       -6.758570E-04  -1.524125E-03  -3.229692E-04
   91 C121        2.875275E-03   1.192096E-03  -2.774459E-04
   92 C122       -5.908867E-04  -2.169624E-04  -1.271879E-04
   93 C123        3.299162E-04   2.123127E-04  -1.084463E-03
   94 C124        7.324119E-04  -1.338159E-03  -5.901638E-04
   95 C125       -1.656674E-04  -9.992851E-05   1.044607E-04
   96 C126       -5.593384E-04   4.124788E-04  -1.610577E-04
   97 H127       -4.686516E-04  -7.156711E-04  -2.542935E-05
   98 H128       -1.617095E-04   3.979039E-04   2.677029E-04
   99 H129        2.252624E-04  -5.908146E-04  -5.345112E-05
  100 H130       -3.860603E-04   7.841951E-05  -9.896721E-05
  101 H131       -3.889173E-04  -3.707047E-04  -2.712738E-04
  102 Br3         2.400901E-02   1.348394E-01   7.837710E-02
 -------------   -------------  -------------  -------------
     total       -1.480276E-03  -7.564724E-04   9.886691E-04
   
  end of program der1b
   
 Time(der1b)  user:     319.698  user+sys:     319.698  wallclock:      39.134
  
  start of program geopt
  
 ----------------------------------------------------------------------------
  Geometry optimization step  1
  Total energy:     -2231.27526228515 hartrees
 ----------------------------------------------------------------------------
  
  
  Level shifts adjusted to satisfy step-size constraints
   Step size:    0.3000549
   Cos(theta):   0.7322597
   Final level shift:  -1.2896397E+00
  
  gradient maximum:        1.0264E+00 .  (  2.2500E-03 )
  gradient rms:            1.5324E-01 .  (  1.5000E-03 )
  displacement maximum:    5.8046E-02 .  (  9.0000E-03 )
  displacement rms:        1.0429E-02 .  (  6.0000E-03 )
  
  predicted energy change:  -2.8998E-01
  step size:     0.19060
  trust radius:  0.30000
  
  molecular structure not yet converged...
  
  center of mass moved by:
     x:     1.6961E-02     y:     1.8329E-01     z:     8.4714E-02
  
  new geometry: 
                                   angstroms
  atom               x                 y                 z
  P1            0.0127936323      0.0004746860     -0.0154664321 
  Pd2           0.0401435962      0.1700591910      2.3309126277 
  C73           4.7377477636     -0.6675819862      2.7031030809 
  C74           4.3351644338      0.5483132524      2.1767516559 
  C75           2.9685816749      0.8044051587      2.0458487006 
  C76           2.0140629933     -0.1462700934      2.4179090648 
  C77           2.4554529633     -1.3528048861      2.9733670139 
  C78           3.8197421205     -1.6216710514      3.1152627826 
  F79           6.0566282424     -0.9267290196      2.8278110265 
  H80           5.0804326608      1.2847411628      1.8867059243 
  H82           1.7430111733     -2.1073046546      3.2973312797 
  H83           4.1728365178     -2.5577826254      3.5395266947 
  H14           2.6601002727      1.7754505676      1.6769100022 
  C3           -1.5127293121      0.8419211419     -0.8471503699 
  C4            1.5510876910      0.5003080171     -1.0641380923 
  C5           -0.1818075536     -1.8136309234     -0.3970721959 
  C6           -1.4300223767      1.0237635387     -2.3688015559 
  C7           -1.7492829265      2.2376582216     -0.2515047491 
  C8            1.8907642483      1.9866183971     -0.8631583209 
  C9            2.7173600624     -0.3399753514     -0.5330065745 
  C10          -0.2575869563     -1.9636255846     -1.7981738125 
  C11          -0.3522406590     -3.1982959344     -2.4252121526 
  C12          -0.3758175551     -4.3534465339     -1.6565634257 
  C13          -0.3209399215     -4.2364788439     -0.2749381851 
  C14          -0.2404203632     -2.9965959505      0.3886921255 
  C15          -0.2267756317     -3.1726070345      1.8886059579 
  C16           0.8360575613     -3.9322068361      2.4832947251 
  C17           0.6406709428     -4.5583151595      3.7124459448 
  C18          -0.5717189935     -4.4995802444      4.3954762586 
  C19          -1.6025030946     -3.7675149954      3.8170754782 
  C20          -1.4673547360     -3.1119556167      2.5941522351 
  C21          -2.7137244698     -2.4690233635      2.0133419122 
  C22          -3.2747619535     -3.2912973960      0.8422583107 
  C23           2.1564167128     -4.2000414080      1.7682312704 
  C24           3.1778477600     -4.8989873215      2.6737340632 
  C25          -0.7756356455     -5.2483746664      5.6970610324 
  C26          -3.7953195839     -2.2461210405      3.0774605030 
  C27           1.9821617991     -5.0252337863      0.4864519570 
  C28           0.2830352497     -4.8973750702      6.7502462680 
  C29          -0.8148903898     -6.7630941424      5.4412429923 
  H30          -0.6112723865      1.6782434948     -2.6800990362 
  H31          -1.3367974792      0.0701387230     -2.8953720391 
  H32          -1.7218585243      2.2447934868      0.8387407849 
  H33          -1.0225944291      2.9668369827     -0.6273551800 
  H34           1.1836081490      2.6577140736     -1.3602360167 
  H35           1.9357762444      2.2665739068      0.1881971017 
  H36           2.8899758128     -0.1391434952      0.5290828521 
  H37           2.5465614209     -1.4140327629     -0.6743176913 
  H38          -0.2583306130     -1.0910341390     -2.4349083758 
  H39          -0.4085583077     -3.2485409273     -3.5106879890 
  H40          -0.4444631218     -5.3335840313     -2.1235681328 
  H41          -0.3683606982     -5.1283928664      0.3430869018 
  H42           1.4564762842     -5.1311800787      4.1443237542 
  H43          -2.5508208820     -3.7023082783      4.3439493287 
  H44          -2.4262243093     -1.4860661508      1.6328717020 
  H45          -3.5503794397     -4.3021696766      1.1688994902 
  H46          -2.5422432390     -3.3848643746      0.0350174624 
  H47          -4.1736435831     -2.8126107534      0.4342013886 
  H48           2.5829963499     -3.2306749616      1.5006999821 
  H49           2.8936579414     -5.9382466787      2.8803346594 
  H50           4.1666674181     -4.9159196388      2.1979840503 
  H51           3.2610256228     -4.3826255816      3.6372237432 
  H52          -1.7548251226     -4.9490655863      6.0948380812 
  H53          -4.2488974994     -3.1964325056      3.3876669567 
  H54          -4.5986910916     -1.6162774242      2.6833634413 
  H55          -3.3808536273     -1.7730366810      3.9699430961 
  H56           1.5619596181     -6.0144548571      0.7085309956 
  H57           2.9504294666     -5.1712093450     -0.0109899939 
  H58           1.3022293218     -4.5250453529     -0.2119052857 
  H59           1.2835370906     -5.2195371338      6.4359724464 
  H60           0.0574337022     -5.4006853915      7.6978353847 
  H61           0.3183896136     -3.8172793603      6.9213614824 
  H62           0.1446480744     -7.1155910288      5.0429510192 
  H63          -1.5971967525     -7.0249312885      4.7183929661 
  H64          -1.0105566084     -7.3075259290      6.3737106091 
  C65           1.4715881655      0.2454753467     -2.5777345843 
  H66           2.3660438775      0.6806819361     -3.0433931914 
  H67           1.4760718311     -0.8174963592     -2.8268967088 
  H68           0.6072589004      0.7204658914     -3.0472849457 
  C69          -2.7272197509     -0.0684710236     -0.6192387677 
  H70          -3.6264954084      0.4196977981     -1.0195026943 
  H71          -2.6105802487     -1.0194484553     -1.1438736377 
  H72          -2.8985200354     -0.2839689918      0.4361670066 
  H73          -2.3646706196      1.4926647310     -2.7058995265 
  H74          -2.7459504237      2.5816408969     -0.5601519718 
  H75           2.8817303817      2.1682311411     -1.3063135787 
  H76           3.6313467747     -0.0731502913     -1.0828462615 
  N118         -0.0192948398      0.1144320030      4.5255481413 
  H119          0.1352055908     -0.8691332278      4.7408619338 
[...]
    H46      X    -0.00559  -0.01319  -0.00122   0.00002  -0.00016   0.00003
    H46      Y     0.00227   0.00436   0.00043  -0.00002   0.00018   0.00009
    H46      Z     0.00948   0.02275   0.00199  -0.00003   0.00037   0.00015
    H47      X    -0.00267  -0.00503   0.00012  -0.00011   0.00022  -0.00064
    H47      Y     0.00066   0.00206   0.00001   0.00003  -0.00002   0.00003
    H47      Z    -0.00101  -0.00136   0.00002  -0.00003   0.00007  -0.00033
    H48      X     0.00015  -0.00020   0.00006  -0.00064  -0.00031   0.00034
    H48      Y     0.00102  -0.00152   0.00017  -0.00417  -0.00027   0.00018
    H48      Z    -0.00102   0.00126  -0.00014   0.00663   0.00046  -0.00040
    H49      X    -0.00015   0.00005   0.00000   0.00076   0.00007  -0.00008
    H49      Y     0.00015  -0.00002   0.00003  -0.00036  -0.00045   0.00033
    H49      Z     0.00008  -0.00001  -0.00003  -0.00019   0.00009  -0.00005
    H50      X     0.00000  -0.00070  -0.00015  -0.00001  -0.00055   0.00056
    H50      Y     0.00002  -0.00010  -0.00001  -0.00166   0.00005  -0.00006
    H50      Z     0.00004   0.00045   0.00009  -0.00042   0.00036  -0.00039
    H51      X    -0.00005   0.00021   0.00002  -0.00318   0.00011  -0.00017
    H51      Y     0.00020   0.00142   0.00012   0.01637   0.00004  -0.00022
    H51      Z     0.00031   0.00149   0.00011   0.00796  -0.00024   0.00005
    H52      X    -0.01232   0.00022   0.00005  -0.00000   0.00039  -0.00122
    H52      Y     0.00161  -0.00003  -0.00001   0.00001   0.00001  -0.00003
    H52      Z     0.00833  -0.00014  -0.00002   0.00002  -0.00039   0.00073
    H53      X    -0.00182   0.00015   0.00001   0.00001   0.00012   0.00037
    H53      Y    -0.01037   0.00037   0.00000   0.00001   0.00026   0.00059
    H53      Z     0.00752  -0.00027  -0.00001  -0.00000   0.00005  -0.00003
    H54      X     0.01262   0.00014   0.00020  -0.00009   0.00045  -0.00030
    H54      Y    -0.00817  -0.00013  -0.00012   0.00006  -0.00003   0.00031
    H54      Z     0.00954   0.00007   0.00010  -0.00004   0.00039   0.00006
    H55      X     0.00893   0.00034   0.00005  -0.00005  -0.00104  -0.00091
    H55      Y     0.01290   0.00065   0.00008  -0.00008  -0.00088  -0.00096
    H55      Z     0.01482   0.00075   0.00009  -0.00008  -0.00086  -0.00053
    H56      X    -0.00011  -0.00472  -0.00016  -0.00037   0.00001  -0.00003
    H56      Y    -0.00018  -0.00910  -0.00033  -0.00099  -0.00021   0.00018
    H56      Z     0.00013   0.00649   0.00024   0.00057   0.00001   0.00004
    H57      X     0.00047   0.00756   0.00014   0.00037  -0.00038   0.00038
    H57      Y    -0.00008  -0.00142  -0.00001  -0.00006   0.00021  -0.00023
    H57      Z    -0.00013  -0.00258  -0.00001  -0.00012   0.00027  -0.00029
    H58      X     0.00099   0.03103   0.00142  -0.00046   0.00013  -0.00018
    H58      Y    -0.00014  -0.00490  -0.00020  -0.00027  -0.00000  -0.00001
    H58      Z     0.00131   0.03945   0.00180  -0.00070   0.00015  -0.00024
    H59      X    -0.00355  -0.00007   0.00001   0.00021   0.00068  -0.00129
    H59      Y     0.00038   0.00001  -0.00000  -0.00010  -0.00025   0.00040
    H59      Z     0.00067   0.00004   0.00001  -0.00005  -0.00001   0.00014
    H60      X     0.00017  -0.00000  -0.00000   0.00004   0.00012  -0.00015
    H60      Y    -0.00024   0.00004   0.00002   0.00004  -0.00024  -0.00026
    H60      Z     0.00205  -0.00018  -0.00011  -0.00006  -0.00051   0.00104
    H61      X     0.00007  -0.00003  -0.00001  -0.00011   0.00009   0.00008
    H61      Y     0.00090   0.00015   0.00003   0.00031  -0.00053   0.00029
    H61      Z    -0.00011   0.00000   0.00001  -0.00000  -0.00017  -0.00064
    H62      X    -0.00359  -0.00004   0.00000  -0.00006  -0.00002  -0.00014
    H62      Y     0.00131   0.00000  -0.00000   0.00001  -0.00000   0.00012
    H62      Z     0.00090   0.00002   0.00001   0.00000   0.00011  -0.00007
    H63      X    -0.00071   0.00001   0.00001   0.00007  -0.00018   0.00005
    H63      Y    -0.00094   0.00001   0.00001   0.00007  -0.00027   0.00009
    H63      Z    -0.00087   0.00002   0.00002   0.00004  -0.00010  -0.00003
    H64      X    -0.00011   0.00001   0.00001  -0.00002   0.00004  -0.00001
    H64      Y    -0.00091   0.00006   0.00004  -0.00004   0.00029  -0.00029
    H64      Z     0.00179  -0.00016  -0.00011   0.00014  -0.00056   0.00057
    C65      X     0.00005   0.00009  -0.00018  -0.00001   0.00003  -0.00001
    C65      Y    -0.00012   0.00024  -0.00241   0.00001   0.00002  -0.00002
    C65      Z     0.00004  -0.00001   0.00000  -0.00003   0.00002  -0.00001
    H66      X     0.00002  -0.00132   0.00531   0.00010   0.00004  -0.00001
    H66      Y    -0.00001  -0.00026   0.00156   0.00006  -0.00003   0.00002
    H66      Z     0.00000   0.00042  -0.00116  -0.00017  -0.00014   0.00007
    H67      X     0.00018  -0.00057   0.00716  -0.00007  -0.00007   0.00003
    H67      Y     0.00056  -0.00231   0.02294  -0.00000  -0.00026   0.00018
    H67      Z     0.00015  -0.00069   0.00562  -0.00005  -0.00009   0.00007
    H68      X    -0.00085   0.00035  -0.00414   0.00056  -0.00008   0.00002
    H68      Y     0.00092  -0.00035   0.00567  -0.00058   0.00009  -0.00001
    H68      Z    -0.00063   0.00026  -0.00431   0.00062  -0.00006  -0.00002
    C69      X     0.00001  -0.00002  -0.00009  -0.00000   0.00001  -0.00001
    C69      Y    -0.00005   0.00010  -0.00048  -0.00001   0.00001  -0.00003
    C69      Z     0.00004  -0.00001  -0.00030  -0.00002   0.00004   0.00004
    H70      X    -0.00026   0.00055  -0.00099   0.00010  -0.00028  -0.00012
    H70      Y     0.00034  -0.00070   0.00155  -0.00005   0.00015   0.00015
    H70      Z    -0.00009   0.00011  -0.00009   0.00002  -0.00008  -0.00006
    H71      X     0.00008  -0.00035   0.00227   0.00003  -0.00008   0.00010
    H71      Y     0.00020  -0.00040   0.00411   0.00008  -0.00009   0.00025
    H71      Z     0.00025  -0.00037   0.00320   0.00007   0.00000   0.00044
    H72      X     0.00009  -0.00010   0.00017  -0.00003   0.00011   0.00002
    H72      Y     0.00009  -0.00015   0.00036  -0.00004  -0.00001  -0.00007
    H72      Z    -0.00060   0.00042   0.00033   0.00017  -0.00070  -0.00097
    H73      X    -0.00009   0.00066  -0.00084   0.00012  -0.00015  -0.00006
    H73      Y     0.00008  -0.00052  -0.00082  -0.00011   0.00023   0.00006
    H73      Z    -0.00002   0.00022  -0.00102   0.00004  -0.00026  -0.00001
    H74      X    -0.00014   0.00024   0.00005   0.00008  -0.00032   0.00003
    H74      Y     0.00017  -0.00036  -0.00001  -0.00009   0.00041   0.00004
    H74      Z    -0.00006   0.00008   0.00013   0.00005  -0.00025   0.00007
    H75      X     0.00005  -0.00035  -0.00069   0.00007   0.00012  -0.00008
    H75      Y     0.00001  -0.00007  -0.00013   0.00005  -0.00000   0.00003
    H75      Z    -0.00001   0.00014   0.00020  -0.00006  -0.00008   0.00005
    H76      X     0.00071  -0.00023  -0.00060   0.00066   0.00004  -0.00000
    H76      Y     0.00011  -0.00004  -0.00011   0.00011  -0.00004   0.00006
    H76      Z    -0.00033   0.00012   0.00025   0.00055  -0.00004  -0.00000
    N118     X     0.00023  -0.00001  -0.00001   0.00002  -0.03860  -0.05961
    N118     Y    -0.00025  -0.00000  -0.00000   0.00002  -0.04084   0.04994
    N118     Z    -0.00002  -0.00001  -0.00000   0.00002   0.00621   0.01101
    H119     X    -0.00118  -0.00003  -0.00001  -0.00110  -0.21058   0.24145
    H119     Y     0.00249   0.00013   0.00008  -0.00071   0.57788  -0.69941
    H119     Z    -0.00039   0.00001   0.00000   0.00088   0.03160  -0.02316
    H120     X    -0.00165   0.00015   0.00019   0.00030   0.73912   0.58507
    H120     Y     0.00073  -0.00002   0.00002  -0.00032  -0.00916   0.00920
    H120     Z     0.00026  -0.00003  -0.00005  -0.00033  -0.14860  -0.12679
    C121     X    -0.00002   0.00001   0.00001   0.00003   0.00045  -0.00014
    C121     Y     0.00003   0.00001   0.00000   0.00002  -0.00027   0.00014
    C121     Z     0.00001   0.00001   0.00001   0.00002   0.00089  -0.00009
    C122     X     0.00002   0.00005   0.00000   0.00001   0.00014   0.00008
    C122     Y     0.00003   0.00005   0.00000   0.00001   0.00001  -0.00007
    C122     Z     0.00003   0.00005   0.00000   0.00001   0.00008   0.00000
    C123     X     0.00007   0.00001  -0.00000  -0.00013   0.00019   0.00024
    C123     Y    -0.00018  -0.00003   0.00000   0.00025   0.00053  -0.00041
    C123     Z    -0.00006  -0.00001  -0.00000   0.00005   0.00055   0.00001
    C124     X     0.00012  -0.00005  -0.00000   0.00001   0.00009   0.00009
    C124     Y    -0.00004   0.00001  -0.00000  -0.00001   0.00060  -0.00025
    C124     Z     0.00005  -0.00002  -0.00000  -0.00000   0.00034  -0.00024
    C125     X     0.00000  -0.00003  -0.00000  -0.00000  -0.00008  -0.00010
    C125     Y    -0.00002   0.00006   0.00001   0.00001  -0.00016  -0.00001
    C125     Z    -0.00001   0.00002   0.00000   0.00000  -0.00023  -0.00010
    C126     X     0.00010   0.00007   0.00001   0.00005  -0.00010   0.00002
    C126     Y    -0.00003  -0.00003  -0.00000  -0.00004   0.00007   0.00008
    C126     Z     0.00004   0.00003   0.00000   0.00001  -0.00013   0.00011
    H127     X    -0.00080  -0.00013   0.00002   0.00114  -0.00017   0.00021
    H127     Y     0.00194   0.00032  -0.00004  -0.00239  -0.00278   0.00247
    H127     Z     0.00065   0.00012  -0.00001  -0.00029  -0.00096   0.00111
    H128     X    -0.00134   0.00049  -0.00000  -0.00007   0.00130  -0.00006
    H128     Y     0.00051  -0.00016   0.00000   0.00000  -0.00120  -0.00073
    H128     Z    -0.00058   0.00021   0.00001  -0.00005   0.00092   0.00010
    H129     X    -0.00009   0.00028   0.00004   0.00006  -0.00053   0.00011
    H129     Y     0.00025  -0.00068  -0.00010  -0.00015   0.00132  -0.00012
    H129     Z     0.00008  -0.00022  -0.00003  -0.00006   0.00057   0.00003
    H130     X    -0.00110  -0.00080  -0.00010  -0.00039   0.00156  -0.00009
    H130     Y     0.00038   0.00028   0.00003   0.00018  -0.00043  -0.00002
    H130     Z    -0.00040  -0.00028  -0.00003  -0.00016   0.00074  -0.00006
    H131     X    -0.00028  -0.00050  -0.00005  -0.00014  -0.00018  -0.00001
    H131     Y    -0.00032  -0.00054  -0.00005  -0.00021  -0.00019  -0.00003
    H131     Z    -0.00034  -0.00058  -0.00006  -0.00022   0.00021  -0.00004
    Br3      X    -0.00000   0.00000   0.00000  -0.00000  -0.00003  -0.00001
    Br3      Y    -0.00000   0.00000   0.00000   0.00000  -0.00002  -0.00001
    Br3      Z     0.00001  -0.00000   0.00000   0.00000   0.00002   0.00002
  
  Number of imaginary frequencies:   1
   
  Writing vibrational animation data to L_Ar_Br_N_N_trans_PL274_3.vib
  Writing IR vibrational spectrum data to L_Ar_Br_N_N_trans_PL274_3_vib.spm
  rotational symmetry number:  1

  rotational temperatures (K):      0.003422      0.002889      0.002569
   
  The Quasi-Harmonic approximation will be applied to compute
  vibrational constributions to thermodynamic properties.
  Frequencies will be adjusted to a minimum value of  100.00 cm^-1.

    1 vibrational frequencies below    0.0 cm-1 not included in zero-point
  energy or thermochemical analysis.  Set freqcut to change the frequency
  cutoff value.

  vibrational temperatures:
       mode:      2        3        4        5        6        7
  temp. (K):   143.88   143.88   143.88   143.88   143.88   143.88
   
       mode:      8        9       10       11       12       13
  temp. (K):   143.88   143.88   143.88   143.88   143.88   143.88
   
       mode:     14       15       16       17       18       19
  temp. (K):   143.88   143.88   148.00   149.93   163.70   167.63
   
       mode:     20       21       22       23       24       25
  temp. (K):   171.33   178.46   196.43   200.37   202.31   211.08
   
       mode:     26       27       28       29       30       31
  temp. (K):   221.67   225.31   232.43   239.68   255.08   264.07
   
       mode:     32       33       34       35       36       37
  temp. (K):   277.58   282.31   289.10   313.45   319.01   328.24
   
       mode:     38       39       40       41       42       43
  temp. (K):   339.74   342.52   355.98   361.03   367.18   371.37
   
       mode:     44       45       46       47       48       49
  temp. (K):   374.10   384.16   399.54   408.01   415.55   431.75
   
       mode:     50       51       52       53       54       55
  temp. (K):   443.30   446.71   451.49   461.67   470.59   489.80
   
       mode:     56       57       58       59       60       61
  temp. (K):   497.16   508.64   515.92   523.94   528.20   543.79
   
       mode:     62       63       64       65       66       67
  temp. (K):   545.18   562.85   571.54   584.89   591.91   600.66
   
       mode:     68       69       70       71       72       73
  temp. (K):   604.82   608.44   615.62   616.99   630.54   642.92
   
       mode:     74       75       76       77       78       79
  temp. (K):   668.58   698.80   703.15   726.10   743.21   752.71
   
       mode:     80       81       82       83       84       85
  temp. (K):   756.63   776.34   784.35   794.92   808.62   837.03
   
       mode:     86       87       88       89       90       91
  temp. (K):   851.64   862.71   866.12   869.38   905.00   912.59
   
       mode:     92       93       94       95       96       97
  temp. (K):   923.61   938.22   953.33   963.05   974.64  1032.29
   
       mode:     98       99      100      101      102      103
  temp. (K):  1038.52  1075.38  1118.81  1123.42  1144.66  1152.78
   
       mode:    104      105      106      107      108      109
  temp. (K):  1187.05  1190.43  1196.79  1198.40  1201.08  1204.25
   
       mode:    110      111      112      113      114      115
  temp. (K):  1208.90  1235.06  1242.05  1305.85  1315.34  1325.51
   
       mode:    116      117      118      119      120      121
  temp. (K):  1331.59  1334.54  1366.16  1368.39  1370.46  1371.53
   
       mode:    122      123      124      125      126      127
  temp. (K):  1373.28  1376.28  1383.66  1389.31  1393.02  1395.81
   
       mode:    128      129      130      131      132      133
  temp. (K):  1399.14  1409.57  1413.07  1415.51  1419.98  1425.49
   
       mode:    134      135      136      137      138      139
  temp. (K):  1426.57  1444.51  1455.49  1466.51  1467.18  1478.17
   
       mode:    140      141      142      143      144      145
  temp. (K):  1486.90  1504.97  1515.00  1518.96  1524.98  1532.45
   
       mode:    146      147      148      149      150      151
  temp. (K):  1532.57  1546.46  1559.95  1565.91  1594.93  1599.82
   
       mode:    152      153      154      155      156      157
  temp. (K):  1603.38  1615.19  1618.89  1636.19  1642.61  1643.91
   
       mode:    158      159      160      161      162      163
  temp. (K):  1665.98  1682.79  1714.54  1717.79  1720.27  1730.02
   
       mode:    164      165      166      167      168      169
  temp. (K):  1732.36  1732.87  1740.56  1743.40  1760.12  1761.04
   
       mode:    170      171      172      173      174      175
  temp. (K):  1774.09  1777.68  1791.04  1801.09  1821.74  1840.11
   
       mode:    176      177      178      179      180      181
  temp. (K):  1842.13  1852.93  1862.17  1873.30  1875.46  1898.21
   
       mode:    182      183      184      185      186      187
  temp. (K):  1901.79  1916.35  1925.93  1938.19  1955.68  1957.90
   
       mode:    188      189      190      191      192      193
  temp. (K):  1971.25  1989.08  2003.40  2007.20  2046.70  2047.64
   
       mode:    194      195      196      197      198      199
  temp. (K):  2049.39  2053.06  2053.68  2056.85  2058.34  2063.81
   
       mode:    200      201      202      203      204      205
  temp. (K):  2080.36  2081.79  2084.80  2097.93  2107.53  2112.40
   
       mode:    206      207      208      209      210      211
  temp. (K):  2129.33  2138.64  2161.23  2163.02  2170.20  2177.95
   
       mode:    212      213      214      215      216      217
  temp. (K):  2178.14  2179.15  2180.92  2184.85  2185.69  2187.52
   
       mode:    218      219      220      221      222      223
  temp. (K):  2188.30  2189.90  2190.77  2191.07  2196.97  2201.06
   
       mode:    224      225      226      227      228      229
  temp. (K):  2204.43  2204.81  2206.48  2213.06  2216.29  2218.38
   
       mode:    230      231      232      233      234      235
  temp. (K):  2220.32  2225.37  2231.46  2232.32  2233.31  2245.03
   
       mode:    236      237      238      239      240      241
  temp. (K):  2321.62  2331.70  2364.90  2377.36  2377.81  2393.71
   
       mode:    242      243      244      245      246      247
  temp. (K):  2397.85  2406.32  2414.34  4366.64  4378.84  4380.18
   
       mode:    248      249      250      251      252      253
  temp. (K):  4382.98  4383.63  4384.82  4384.99  4387.36  4388.31
   
       mode:    254      255      256      257      258      259
  temp. (K):  4389.13  4391.87  4393.47  4396.37  4434.12  4476.69
   
       mode:    260      261      262      263      264      265
  temp. (K):  4480.42  4483.43  4484.65  4485.66  4487.49  4488.90
   
       mode:    266      267      268      269      270      271
  temp. (K):  4491.48  4491.66  4494.96  4502.19  4507.15  4508.65
   
       mode:    272      273      274      275      276      277
  temp. (K):  4511.09  4521.52  4525.75  4543.24  4552.87  4555.29
   
       mode:    278      279      280      281      282      283
  temp. (K):  4557.43  4570.46  4575.82  4583.23  4588.98  4594.65
   
       mode:    284      285      286      287      288      289
  temp. (K):  4596.17  4599.37  4605.08  4613.39  4613.47  4614.89
   
       mode:    290      291      292      293      294      295
  temp. (K):  4618.81  4622.58  4625.00  4627.06  4627.20  4628.15
   
       mode:    296      297      298      299      300
  temp. (K):  4631.85  4695.23  4733.10  4978.85  5103.10
   
   
  Thermodynamic properties calculated assuming an ideal gas

  In the table below, the units for temperature
  are kelvins, the units for U, H, and G are
  kcal/mol and the units for Cv and S are cal/(mol K)

  The zero point energy (ZPE):    557.103 kcal/mol
  is not included in U, H, or G in the table below
  
 
  =============================================================================
  Thermodynamic properties for P = 1.00E+00 atm, calculated at   1 temperatures


  T =   298.15 K, P = 1.00E+00 atm
   
                  U         Cv          S          H          G        ln(Q)
              =========  =========  =========  =========  =========  =========
  trans.          0.889      2.981     45.906      1.481    -12.206   20.60085
  rot.            0.889      2.981     38.478      0.889    -10.584   17.86303
  vib.           28.473    187.076    171.875     28.473    -22.771   38.43308
  elec.           0.000      0.000      0.000      0.000      0.000    0.00000
  ----------------------------------------------------------------------------
  total          30.251    193.037    256.259     30.843    -45.560   76.89696
   
   Total internal energy, Utot(SCFE + ZPE + U):   -2230.644932 hartrees
   Total enthalpy, Htot (Utot + nRT), with n=1:   -2230.643988 hartrees
    Total Gibbs free energy, Gtot (Htot - T*S):   -2230.765745 hartrees
   
  end of program freq
   
 Time(freq)  user:       1.081  user+sys:       1.081  wallclock:       0.806
  
  start of program post
  
  Writing input files for PBF
  end of program post
   
 Time(post)  user:       0.323  user+sys:       0.323  wallclock:       0.141

 Total cpu seconds     user:  215478.160   user+sys:  215478.160
  
 Total elapsed time:    29653 seconds

Job L_Ar_Br_N_N_trans_PL274_3 completed on bp1-compute056 at Sun Dec  7 23:04:44 2025
