Job L_Ar_OtBu_PL274 started on bp1-compute081 at Tue Dec  2 08:12:12 2025
jobid: bp1-compute081-0-692e9f55

  +--------------------------------------------------------------------+
  |  Jaguar version 12.5, release 138                                  |
  |                                                                    |
  |  Copyright Schrodinger, Inc.                                       |
  |  All Rights Reserved.                                              |
  |                                                                    |
  |  The following have contributed to Jaguar (listed alphabetically): |
  |  Ty Balduf, Mike Beachy, Chandler Bennett, Art Bochevarov,         |
  |  Dale Braden, Yixiang Cao, Alan Chien, Chris Cortis,               |
  |  Rich Friesner, Jim Furness, Bill Goddard, Hod Greeley,            |
  |  Tom Hughes, Leif Jacobson, Jean-Marc Langlois, Daniel Levine,     |
  |  Rob Murphy, Dean Philipp, Tom Pollard, Murco Ringnalda,           |
  |  Daniel Mainz, Pablo Videla, Mark Watson, Haoyu Yu.                |
  |                                                                    |
  |  Use of this program should be acknowledged in publications as:    |
  |                                                                    |
  |  Jaguar, version 12.5, Schrodinger, Inc., New York, NY, 2024.      |
  |                                                                    |
  |  A. D. Bochevarov, E. Harder, T. F. Hughes, J. R. Greenwood,       |
  |  D. A. Braden, D. M. Philipp, D. Rinaldo, M. D. Halls,             |
  |  J. Zhang, R. A. Friesner, "Jaguar: A High-Performance Quantum     |
  |  Chemistry Software Program with Strengths in Life and Materials   |
  |  Sciences", Int. J. Quantum Chem., 2013, 113(18), 2110-2142.       |
  +--------------------------------------------------------------------+
  
  start of program pre
  
  Job name: L_Ar_OtBu_PL274
  Executables used: /software/local/apps/schrodinger2024-3/jaguar-v12.5/bin/Linux-x86_64
  Temporary files : /tmp/ar21627/L_Ar_OtBu_PL274#bp1-compute081-0-692e9f55
  Basis file : using default basis file from /software/local/apps/schrodinger2024-3
  Maestro file (input):  L_Ar_OtBu_PL274.mae
  Maestro file (output): L_Ar_OtBu_PL274.01.mae
  
 Contents of input file: &gen and (if present) &atomic sections only
 ----------------Contents start----------------
&gen
dftname=b3pw91-d3
basis=6-31G*
numd=5
ip11=2
iaccg=3
isolv=2
igeopt=1
solvent=benzene
ifreq=1
&
&atomic
atom basis
Pd2 lacv3p*
&
 -----------------Contents end-----------------
 
  PS calculation requested. Using PS version of 6-31g*
  basis set:               non_standard                    
  net molecular charge:    0
  multiplicity:            1
  
  Using up to  18 threads per process
  
  This run will use ECP on 1 atom
  number of basis functions....          739
  
 Input geometry:
                                   angstroms
  atom               x                 y                 z
  P1            0.0000000000      0.0000000000      0.0000000000 
  Pd2           0.0000000000      0.0000000000      2.3339396406 
  C73           4.7490916169      0.0000000000      2.8551577629 
  C74           4.1287798655      1.2091907805      2.5790245167 
  C75           2.7420308119      1.2329072347      2.4087335145 
  C76           1.9918618836      0.0565994697      2.4908781129 
  C77           2.6444716855     -1.1437908872      2.8013993230 
  C78           4.0282765387     -1.1793683544      2.9812981079 
  F79           6.0893978411     -0.0309436765      3.0150580857 
  H80           4.7220015173      2.1179783003      2.5125698367 
  H82           2.0862278255     -2.0710087776      2.9003274330 
  H83           4.5468936779     -2.1062974931      3.2147943700 
  H14           2.2583153030      2.1894252288      2.2350797966 
  C3            0.3971391252      1.7509356249     -0.6881909302 
  C4            1.0015207361     -1.3333249317     -0.9568555123 
  C5           -1.7706701474     -0.3348161519     -0.4323860696 
  C6           -0.3124041982      2.1094576645     -2.0012582037 
  C7            1.9102391419      1.9138198543     -0.8908978787 
  C8            2.4970296878     -1.2680058745     -0.6061627700 
  C9            0.4646162392     -2.6839686891     -0.4668326952 
  C10          -2.2065092434     -0.3891586208     -1.7700801233 
  C11          -3.5188177943     -0.6983666843     -2.1090496190 
  C12          -4.4454283605     -0.9636657316     -1.1035787625 
  C13          -4.0376847234     -0.8940991408      0.2226690900 
  C14          -2.7168215459     -0.5765841335      0.5865217632 
  C15          -2.5058152427     -0.5130184029      2.0786767137 
  C16          -2.3472255799     -1.7315489727      2.8057508061 
  C17          -2.6497201467     -1.7646463056      4.1634116133 
  C18          -3.1212028386     -0.6433776365      4.8466263563 
  C19          -3.2661560303      0.5440439995      4.1333670136 
  C20          -2.9724521898      0.6387987422      2.7745947517 
  C21          -3.2303827028      1.9524175256      2.0602216926 
  C22          -4.7357703499      2.2152994247      1.9062483397 
  C23          -1.9483143857     -3.0194661240      2.1081783979 
  C24          -0.7641366315     -3.7034364581      2.8022148683 
  C25          -3.5118521042     -0.7239827719      6.3084213005 
  C26          -2.5321433844      3.1210784413      2.7707517008 
  C27          -3.1445948986     -3.9748530402      1.9832709061 
  C28          -2.3841055087     -1.2740890881      7.1907283333 
  C29          -4.7935315976     -1.5559473210      6.4726465298 
  H30          -0.0345306963      1.4565030129     -2.8339971197 
  H31          -1.4008615318      2.1009277631     -1.8971112760 
  H32           2.4909543014      1.5812205084     -0.0275889653 
  H33           2.2620191846      1.3782753180     -1.7791271200 
  H34           3.0028833202     -0.4015896298     -1.0421744860 
  H35           2.6703836314     -1.2578478986      0.4707408148 
  H36           0.5981716288     -2.7928150594      0.6144983683 
  H37          -0.5959233916     -2.8179236414     -0.7108697476 
  H38          -1.5150366383     -0.1742723795     -2.5734154764 
  H39          -3.8112003436     -0.7280695901     -3.1568041937 
  H40          -5.4763149530     -1.2126440004     -1.3468247895 
  H41          -4.7546577001     -1.0814973960      1.0187721837 
  H42          -2.5271155781     -2.7001190454      4.7034520858 
  H43          -3.6193810853      1.4274673971      4.6598046901 
  H44          -2.8153412962      1.8628196909      1.0500527539 
  H45          -5.2249576483      2.2748569425      2.8867531579 
  H46          -5.2197688458      1.4172779540      1.3327614963 
  H47          -4.9076477374      3.1650075193      1.3839908251 
  H48          -1.6336639691     -2.7550295476      1.0961270877 
  H49          -1.0502947730     -4.1258626353      3.7734126906 
  H50          -0.3782890827     -4.5261052452      2.1862511526 
  H51           0.0455101308     -2.9856451856      2.9805064463 
  H52          -3.7303284606      0.2989816021      6.6434418580 
  H53          -3.0227071136      3.3645832457      3.7204038289 
  H54          -2.5635499702      4.0215478777      2.1480193289 
  H55          -1.4889761704      2.8782676082      2.9924554503 
  H56          -3.5305658981     -4.2547167924      2.9718632195 
  H57          -2.8507206256     -4.8943705731      1.4602668752 
  H58          -3.9616812713     -3.5095209960      1.4216755319 
  H59          -2.1522593897     -2.3170052715      6.9413159520 
  H60          -2.6807212682     -1.2459234317      8.2459289777 
  H61          -1.4693663971     -0.6885882840      7.0609483122 
  H62          -4.6291833276     -2.5919540059      6.1512321660 
  H63          -5.6160245918     -1.1435415165      5.8751233270 
  H64          -5.1078149510     -1.5774976956      7.5238355735 
  C65           0.8758673157     -1.2759638575     -2.4868667091 
  H66           1.5731707250     -2.0086035998     -2.9147830743 
  H67          -0.1217706601     -1.5489293630     -2.8381618532 
  H68           1.1460181953     -0.2985651935     -2.8986773662 
  C69          -0.0761822129      2.7532133998      0.3743249251 
  H70           0.1929766206      3.7711300193      0.0598827953 
  H71          -1.1615535744      2.7222437122      0.4908045839 
  H72           0.3708478725      2.5676101639      1.3553568786 
  H73          -0.0168100720      3.1304025355     -2.2799146044 
  H74           2.1261001623      2.9798900390     -1.0465408199 
  H75           2.9780306743     -2.1686727274     -1.0183618815 
  H76           1.0237932871     -3.4926806832     -0.9588122296 
  O3           -0.0378714757     -0.0907968174      4.3662935912 
  C105          0.3765424759      0.8969727092      5.2717818671 
  C106         -0.5257385706      0.7592987480      6.5149301746 
  C107          1.8328596569      0.6850124104      5.7311477851 
  C108          0.2086796146      2.3164693738      4.7066560395 
  H109         -0.1813828271      1.4070902848      7.3317239658 
  H110         -1.5579232737      1.0299043766      6.2743147714 
  H111         -0.5141774377     -0.2797822386      6.8624134958 
  H112          0.4232845176      3.0840957856      5.4627971683 
  H113          0.8861633642      2.4729184335      3.8610185469 
  H114         -0.8198558364      2.4517837472      4.3511282985 
  H115          2.0919183322      1.3617966197      6.5571250078 
  H116          1.9576378542     -0.3481216773      6.0751509764 
  H117          2.5400264166      0.8552278185      4.9177017213 
   
  principal moments of inertia:
        amu*angstrom^2:              5639.32529              6388.85150              8674.23845
                g*cm^2:          9.36431879E-37          1.06089362E-36          1.44039100E-36
   
  rotational constants:
               cm^(-1):      0.00298930      0.00263860      0.00194341
                   GHz:      0.08961693      0.07910326      0.05826206
   
  Molecular weight:     698.32 amu
   
  Stoichiometry: PdC39PH58OF
  Molecular Point Group: C1      
  Point Group used: C1
  
 
Number of optimization coordinates:   321
Number of independent coordinates:    321
Number of non-redundant coordinates:  297
Number of frozen coordinates:           0
Number of harmonic constraints:         0
 
Number of geometric degrees of freedom:   297
Maximum geometric degrees of freedom:     297
 " " " " " excluding dummy atoms:         297
 
 
  bond lengths (angstroms):
 
 P1      -Pd2     :   2.333940      P1      -C3      :   1.922785
 P1      -C4      :   1.922595      P1      -C5      :   1.853195
 Pd2     -C76     :   1.998836      Pd2     -O3      :   2.034734
 C73     -C74     :   1.386787      C73     -C78     :   1.387946
 C73     -F79     :   1.350165      C74     -C75     :   1.397367
 C74     -H80     :   1.087301      C75     -C76     :   1.397570
 C75     -H14     :   1.085847      C76     -C77     :   1.401164
 C77     -C78     :   1.395903      C77     -H82     :   1.086810
 C78     -H83     :   1.087512      C3      -C6      :   1.534971
 C3      -C7      :   1.535283      C3      -C69     :   1.535426
 C4      -C8      :   1.537465      C4      -C9      :   1.533828
 C4      -C65     :   1.536233      C5      -C10     :   1.407954
 C5      -C14     :   1.411321      C6      -H30     :   1.094083
 C6      -H31     :   1.093462      C6      -H73     :   1.098796
 C7      -H32     :   1.092316      C7      -H33     :   1.095221
 C7      -H74     :   1.098784      C8      -H34     :   1.093925
 C8      -H35     :   1.090814      C8      -H75     :   1.101123
 C9      -H36     :   1.094971      C9      -H37     :   1.096468
 C9      -H76     :   1.099426      C10     -C11     :   1.390203
 C10     -H38     :   1.081507      C11     -C12     :   1.392825
 C11     -H39     :   1.088191      C12     -C13     :   1.389254
 C12     -H40     :   1.088065      C13     -C14     :   1.406373
 C13     -H41     :   1.087634      C14     -C15     :   1.508340
 C15     -C16     :   1.427797      C15     -C20     :   1.424337
 C16     -C17     :   1.391345      C16     -C23     :   1.518047
 C17     -C18     :   1.395106      C17     -H42     :   1.087099
 C18     -C19     :   1.392738      C18     -C25     :   1.515239
 C19     -C20     :   1.393378      C19     -H43     :   1.087355
 C20     -C21     :   1.517383      C21     -C22     :   1.535906
 C21     -C26     :   1.535630      C21     -H44     :   1.095778
 C22     -H45     :   1.097379      C22     -H46     :   1.095436
 C22     -H47     :   1.097379      C23     -C24     :   1.533551
 C23     -C27     :   1.536051      C23     -H48     :   1.092328
 C24     -H49     :   1.097067      C24     -H50     :   1.097758
 C24     -H51     :   1.096604      C25     -C28     :   1.533915
 C25     -C29     :   1.536827      C25     -H52     :   1.098375
 C26     -H53     :   1.096260      C26     -H54     :   1.095275
 C26     -H55     :   1.093758      C27     -H56     :   1.097548
 C27     -H57     :   1.097911      C27     -H58     :   1.095241
 C28     -H59     :   1.097102      C28     -H60     :   1.096459
 C28     -H61     :   1.093801      C29     -H62     :   1.097100
 C29     -H63     :   1.097090      C29     -H64     :   1.097377
 C65     -H66     :   1.098228      C65     -H67     :   1.092337
 C65     -H68     :   1.094476      C69     -H70     :   1.098851
 C69     -H71     :   1.092043      C69     -H72     :   1.093942
 O3      -C105    :   1.402618      C105    -C106    :   1.542233
 C105    -C107    :   1.541689      C105    -C108    :   1.537048
 C106    -H109    :   1.097892      C106    -H110    :   1.093859
 C106    -H111    :   1.095704      C107    -H115    :   1.098811
 C107    -H116    :   1.096026      C107    -H117    :   1.091216
 C108    -H112    :   1.098661      C108    -H113    :   1.094789
 C108    -H114    :   1.096629
 
  bond angles:
 
 C3      -P1      -Pd2     : 110.972120  C4      -P1      -Pd2     : 119.847261
 C4      -P1      -C3      : 110.230510  C5      -P1      -Pd2     : 103.492568
 C5      -P1      -C3      : 106.162361  C5      -P1      -C4      : 104.851140
 C76     -Pd2     -P1      :  94.503208  O3      -Pd2     -P1      : 177.228696
 O3      -Pd2     -C76     :  86.639856  C78     -C73     -C74     : 121.782682
 F79     -C73     -C74     : 119.182959  F79     -C73     -C78     : 119.032746
 C75     -C74     -C73     : 118.879348  H80     -C74     -C73     : 119.795663
 H80     -C74     -C75     : 121.319603  C76     -C75     -C74     : 120.746462
 H14     -C75     -C74     : 118.458904  H14     -C75     -C76     : 120.778337
 C75     -C76     -Pd2     : 123.649584  C77     -C76     -Pd2     : 117.211662
 C77     -C76     -C75     : 118.953265  C78     -C77     -C76     : 120.805285
 H82     -C77     -C76     : 120.786378  H82     -C77     -C78     : 118.406648
 C77     -C78     -C73     : 118.781365  H83     -C78     -C73     : 119.742301
 H83     -C78     -C77     : 121.476264  C6      -C3      -P1      : 115.048828
 C7      -C3      -P1      : 110.330044  C7      -C3      -C6      : 108.532817
 C69     -C3      -P1      : 106.444118  C69     -C3      -C6      : 107.277359
 C69     -C3      -C7      : 109.021606  C8      -C4      -P1      : 111.328855
 C9      -C4      -P1      : 105.624600  C9      -C4      -C8      : 107.759894
 C65     -C4      -P1      : 115.288184  C65     -C4      -C8      : 107.767123
 C65     -C4      -C9      : 108.810033  C10     -C5      -P1      : 121.629170
 C14     -C5      -P1      : 120.202104  C14     -C5      -C10     : 118.150445
 H30     -C6      -C3      : 113.222272  H31     -C6      -C3      : 112.137981
 H31     -C6      -H30     : 108.702504  H73     -C6      -C3      : 108.035529
 H73     -C6      -H30     : 107.048004  H73     -C6      -H31     : 107.408808
 H32     -C7      -C3      : 112.786550  H33     -C7      -C3      : 111.823920
 H33     -C7      -H32     : 108.743104  H74     -C7      -C3      : 108.376125
 H74     -C7      -H32     : 107.633966  H74     -C7      -H33     : 107.244240
 H34     -C8      -C4      : 113.112428  H35     -C8      -C4      : 112.344183
 H35     -C8      -H34     : 108.217707  H75     -C8      -C4      : 107.744284
 H75     -C8      -H34     : 107.255725  H75     -C8      -H35     : 107.924662
 H36     -C9      -C4      : 111.120829  H37     -C9      -C4      : 112.027171
 H37     -C9      -H36     : 109.003419  H76     -C9      -C4      : 109.070464
 H76     -C9      -H36     : 107.863901  H76     -C9      -H37     : 107.606712
 C11     -C10     -C5      : 122.171472  H38     -C10     -C5      : 120.009230
 H38     -C10     -C11     : 117.814852  C12     -C11     -C10     : 119.626659
 H39     -C11     -C10     : 119.634814  H39     -C11     -C12     : 120.738361
 C13     -C12     -C11     : 118.970446  H40     -C12     -C11     : 120.831437
 H40     -C12     -C13     : 120.195522  C14     -C13     -C12     : 122.272186
 H41     -C13     -C12     : 119.779208  H41     -C13     -C14     : 117.946899
 C13     -C14     -C5      : 118.785623  C15     -C14     -C5      : 127.821421
 C15     -C14     -C13     : 113.380953  C16     -C15     -C14     : 118.903497
 C20     -C15     -C14     : 118.137972  C20     -C15     -C16     : 118.537320
 C17     -C16     -C15     : 119.541413  C23     -C16     -C15     : 121.281565
 C23     -C16     -C17     : 119.035012  C18     -C17     -C16     : 122.155756
 H42     -C17     -C16     : 118.730824  H42     -C17     -C18     : 119.107483
 C19     -C18     -C17     : 118.008699  C25     -C18     -C17     : 121.119453
 C25     -C18     -C19     : 120.836205  C20     -C19     -C18     : 122.374338
 H43     -C19     -C18     : 118.590472  H43     -C19     -C20     : 119.035042
 C19     -C20     -C15     : 119.374823  C21     -C20     -C15     : 121.718086
 C21     -C20     -C19     : 118.825379  C22     -C21     -C20     : 111.221613
 C26     -C21     -C20     : 111.328200  C26     -C21     -C22     : 111.209958
 H44     -C21     -C20     : 107.388042  H44     -C21     -C22     : 107.026628
 H44     -C21     -C26     : 108.454595  H45     -C22     -C21     : 110.893812
 H46     -C22     -C21     : 111.152275  H46     -C22     -H45     : 108.080047
 H47     -C22     -C21     : 110.447484  H47     -C22     -H45     : 107.965120
 H47     -C22     -H46     : 108.186498  C24     -C23     -C16     : 111.921790
 C27     -C23     -C16     : 111.124799  C27     -C23     -C24     : 111.147709
 H48     -C23     -C16     : 107.220968  H48     -C23     -C24     : 107.749097
 H48     -C23     -C27     : 107.431664  H49     -C24     -C23     : 111.775037
 H50     -C24     -C23     : 110.591909  H50     -C24     -H49     : 107.448871
 H51     -C24     -C23     : 110.595166  H51     -C24     -H49     : 107.499052
 H51     -C24     -H50     : 108.798993  C28     -C25     -C18     : 112.609148
 C29     -C25     -C18     : 110.297803  C29     -C25     -C28     : 110.949000
 H52     -C25     -C18     : 107.217153  H52     -C25     -C28     : 107.746241
 H52     -C25     -C29     : 107.800618  H53     -C26     -C21     : 111.493177
 H54     -C26     -C21     : 110.460630  H54     -C26     -H53     : 107.282191
 H55     -C26     -C21     : 111.008267  H55     -C26     -H53     : 107.488212
 H55     -C26     -H54     : 108.972106  H56     -C27     -C23     : 111.053018
 H57     -C27     -C23     : 110.560219  H57     -C27     -H56     : 108.037828
 H58     -C27     -C23     : 111.005134  H58     -C27     -H56     : 107.929030
 H58     -C27     -H57     : 108.135280  H59     -C28     -C25     : 111.439610
 H60     -C28     -C25     : 110.209475  H60     -C28     -H59     : 107.479844
 H61     -C28     -C25     : 110.770870  H61     -C28     -H59     : 107.767044
 H61     -C28     -H60     : 109.066824  H62     -C29     -C25     : 110.791487
 H63     -C29     -C25     : 111.317567  H63     -C29     -H62     : 107.921921
 H64     -C29     -C25     : 110.599923  H64     -C29     -H62     : 107.757842
 H64     -C29     -H63     : 108.324015  H66     -C65     -C4      : 108.132879
 H67     -C65     -C4      : 112.685254  H67     -C65     -H66     : 106.730829
 H68     -C65     -C4      : 112.823543  H68     -C65     -H66     : 107.002851
 H68     -C65     -H67     : 109.122361  H70     -C69     -C3      : 109.339266
 H71     -C69     -C3      : 111.203527  H71     -C69     -H70     : 107.472123
 H72     -C69     -C3      : 112.572628  H72     -C69     -H70     : 108.281951
 H72     -C69     -H71     : 107.799103  C105    -O3      -Pd2     : 127.437145
 C106    -C105    -O3      : 106.538031  C107    -C105    -O3      : 112.001470
 C107    -C105    -C106    : 107.469553  C108    -C105    -O3      : 112.380167
 C108    -C105    -C106    : 108.355730  C108    -C105    -C107    : 109.857781
 H109    -C106    -C105    : 111.316243  H110    -C106    -C105    : 110.650540
 H110    -C106    -H109    : 108.279394  H111    -C106    -C105    : 109.518671
 H111    -C106    -H109    : 108.680811  H111    -C106    -H110    : 108.319624
 H115    -C107    -C105    : 111.223396  H116    -C107    -C105    : 109.308724
 H116    -C107    -H115    : 108.530444  H117    -C107    -C105    : 111.629642
 H117    -C107    -H115    : 108.149145  H117    -C107    -H116    : 107.892215
 H112    -C108    -C105    : 111.769947  H113    -C108    -C105    : 110.388698
 H113    -C108    -H112    : 108.112700  H114    -C108    -C105    : 109.607997
 H114    -C108    -H112    : 108.670136  H114    -C108    -H113    : 108.200823
 
  torsional angles:
 
 P1      -Pd2     -C76     -C75     :  82.920219
 P1      -Pd2     -C76     -C77     :-102.091423
 P1      -Pd2     -O3      -C105    : 179.885383
 P1      -C3      -C6      -H30     : -62.414350
 P1      -C3      -C6      -H31     :  61.038361
 P1      -C3      -C6      -H73     : 179.212713
 P1      -C3      -C7      -H32     : -47.424336
 P1      -C3      -C7      -H33     :  75.508746
 P1      -C3      -C7      -H74     :-166.488178
 P1      -C3      -C69     -H70     : 176.041312
 P1      -C3      -C69     -H71     : -65.439252
 P1      -C3      -C69     -H72     :  55.648284
 P1      -C4      -C8      -H34     : -72.838633
 P1      -C4      -C8      -H35     :  50.044642
 P1      -C4      -C8      -H75     : 168.788703
 P1      -C4      -C9      -H36     : -59.491374
 P1      -C4      -C9      -H37     :  62.706428
 P1      -C4      -C9      -H76     :-178.273785
 P1      -C4      -C65     -H66     : 173.880044
 P1      -C4      -C65     -H67     : -68.396111
 P1      -C4      -C65     -H68     :  55.737973
 P1      -C5      -C10     -C11     : 177.060875
 P1      -C5      -C10     -H38     :  -3.723207
 P1      -C5      -C14     -C13     :-176.820098
 P1      -C5      -C14     -C15     :   4.530288
 Pd2     -P1      -C3      -C6      :-146.314699
 Pd2     -P1      -C3      -C7      :  90.502779
 Pd2     -P1      -C3      -C69     : -27.645573
 Pd2     -P1      -C4      -C8      : -59.577909
 Pd2     -P1      -C4      -C9      :  57.115866
 Pd2     -P1      -C4      -C65     : 177.275819
 Pd2     -P1      -C5      -C10     : 178.681658
 Pd2     -P1      -C5      -C14     :  -2.902598
 Pd2     -C76     -C75     -C74     : 177.483032
 Pd2     -C76     -C75     -H14     :  -1.025865
 Pd2     -C76     -C77     -C78     :-177.439468
 Pd2     -C76     -C77     -H82     :   3.040877
 Pd2     -O3      -C105    -C106    : 148.206845
 Pd2     -O3      -C105    -C107    : -94.552467
 Pd2     -O3      -C105    -C108    :  29.682451
 C73     -C74     -C75     -C76     :  -1.127081
 C73     -C74     -C75     -H14     : 177.415755
 C73     -C78     -C77     -C76     :   0.392896
 C73     -C78     -C77     -H82     : 179.923753
 C74     -C73     -C78     -C77     :   1.115187
 C74     -C73     -C78     -H83     :-178.979352
 C74     -C75     -C76     -C77     :   2.576841
 C75     -C74     -C73     -C78     :  -0.753734
 C75     -C74     -C73     -F79     : 179.713104
 C75     -C76     -Pd2     -O3      : -99.610365
 C75     -C76     -C77     -C78     :  -2.206696
 C75     -C76     -C77     -H82     : 178.273649
 C76     -Pd2     -P1      -C3      : -75.593011
 C76     -Pd2     -P1      -C4      :  54.715771
 C76     -Pd2     -P1      -C5      : 170.920002
 C76     -Pd2     -O3      -C105    :  65.443107
 C76     -C75     -C74     -H80     : 179.719112
 C76     -C77     -C78     -H83     :-179.510857
 C77     -C76     -Pd2     -O3      :  75.377992
 C77     -C76     -C75     -H14     :-175.932057
 C77     -C78     -C73     -F79     :-179.350970
 C78     -C73     -C74     -H80     : 178.413260
 F79     -C73     -C74     -H80     :  -1.119902
 F79     -C73     -C78     -H83     :   0.554490
 H80     -C74     -C75     -H14     :  -1.738052
 H82     -C77     -C78     -H83     :   0.020000
 C3      -P1      -Pd2     -O3      : 170.138263
 C3      -P1      -C4      -C8      :  71.057599
 C3      -P1      -C4      -C9      :-172.248626
 C3      -P1      -C4      -C65     : -52.088673
 C3      -P1      -C5      -C10     :  61.760952
 C3      -P1      -C5      -C14     :-119.823304
 C4      -P1      -Pd2     -O3      : -59.552955
 C4      -P1      -C3      -C6      :  78.507140
 C4      -P1      -C3      -C7      : -44.675382
 C4      -P1      -C3      -C69     :-162.823734
 C4      -P1      -C5      -C10     : -54.939037
 C4      -P1      -C5      -C14     : 123.476708
 C5      -P1      -Pd2     -O3      :  56.651276
 C5      -P1      -C3      -C6      : -34.522472
 C5      -P1      -C3      -C7      :-157.704994
 C5      -P1      -C3      -C69     :  84.146653
 C5      -P1      -C4      -C8      :-175.074042
 C5      -P1      -C4      -C9      : -58.380267
 C5      -P1      -C4      -C65     :  61.779686
 C5      -C10     -C11     -C12     :   0.099110
 C5      -C10     -C11     -H39     : 179.951888
 C5      -C14     -C13     -C12     :  -0.704018
 C5      -C14     -C13     -H41     : 179.772709
 C5      -C14     -C15     -C16     :-101.933445
 C5      -C14     -C15     -C20     : 101.986210
 C6      -C3      -C7      -H32     :-174.324211
 C6      -C3      -C7      -H33     : -51.391130
 C6      -C3      -C7      -H74     :  66.611947
 C6      -C3      -C69     -H70     : -60.309294
 C6      -C3      -C69     -H71     :  58.210142
 C6      -C3      -C69     -H72     : 179.297678
 C7      -C3      -C6      -H30     :  61.720378
 C7      -C3      -C6      -H31     :-174.826911
 C7      -C3      -C6      -H73     : -56.652559
 C7      -C3      -C69     -H70     :  57.034020
 C7      -C3      -C69     -H71     : 175.553457
 C7      -C3      -C69     -H72     : -63.359008
 C8      -C4      -C9      -H36     :  59.596595
 C8      -C4      -C9      -H37     :-178.205603
 C8      -C4      -C9      -H76     : -59.185816
 C8      -C4      -C65     -H66     :  48.864151
 C8      -C4      -C65     -H67     : 166.587996
 C8      -C4      -C65     -H68     : -69.277921
 C9      -C4      -C8      -H34     : 171.778273
 C9      -C4      -C8      -H35     : -65.338452
 C9      -C4      -C8      -H75     :  53.405609
 C9      -C4      -C65     -H66     : -67.720801
 C9      -C4      -C65     -H67     :  50.003044
 C9      -C4      -C65     -H68     : 174.137127
 C10     -C5      -C14     -C13     :   1.650016
 C10     -C5      -C14     -C15     :-176.999598
 C10     -C11     -C12     -C13     :   0.895032
 C10     -C11     -C12     -H40     :-179.689896
 C11     -C10     -C5      -C14     :  -1.386240
 C11     -C12     -C13     -C14     :  -0.593808
 C11     -C12     -C13     -H41     : 178.920987
 C12     -C11     -C10     -H38     :-179.133222
 C12     -C13     -C14     -C15     : 178.133879
 C13     -C12     -C11     -H39     :-178.956087
 C13     -C14     -C15     -C16     :  79.355936
 C13     -C14     -C15     -C20     : -76.724409
 C14     -C5      -C10     -H38     : 177.829677
 C14     -C13     -C12     -H40     : 179.987306
 C14     -C15     -C16     -C17     :-155.964994
 C14     -C15     -C16     -C23     :  19.660997
 C14     -C15     -C20     -C19     : 155.820022
 C14     -C15     -C20     -C21     : -20.853546
 C15     -C14     -C13     -H41     :  -1.389394
 C15     -C16     -C17     -C18     :   0.707478
 C15     -C16     -C17     -H42     : 179.812620
 C15     -C16     -C23     -C24     : 129.378922
 C15     -C16     -C23     -C27     :-105.703423
 C15     -C16     -C23     -H48     :  11.424454
 C15     -C20     -C19     -C18     :  -0.026484
 C15     -C20     -C19     -H43     : 179.831726
 C15     -C20     -C21     -C22     : 106.124915
 C15     -C20     -C21     -C26     :-129.246447
 C15     -C20     -C21     -H44     : -10.667438
 C16     -C15     -C20     -C19     :  -0.349133
 C16     -C15     -C20     -C21     :-177.022701
 C16     -C17     -C18     -C19     :  -1.068748
 C16     -C17     -C18     -C25     : 176.777268
 C16     -C23     -C24     -H49     :  70.529399
 C16     -C23     -C24     -H50     :-169.799734
 C16     -C23     -C24     -H51     : -49.207055
 C16     -C23     -C27     -H56     : -61.195222
 C16     -C23     -C27     -H57     : 178.887872
 C16     -C23     -C27     -H58     :  58.879959
 C17     -C16     -C15     -C20     :   0.019609
 C17     -C16     -C23     -C24     : -54.973414
 C17     -C16     -C23     -C27     :  69.944241
 C17     -C16     -C23     -H48     :-172.927882
 C17     -C18     -C19     -C20     :   0.722401
 C17     -C18     -C19     -H43     :-179.136413
 C17     -C18     -C25     -C28     :  54.964025
 C17     -C18     -C25     -C29     : -69.575499
 C17     -C18     -C25     -H52     : 173.304766
 C18     -C17     -C16     -C23     :-175.017240
 C18     -C19     -C20     -C21     : 176.743812
 C18     -C25     -C28     -H59     : -64.955024
 C18     -C25     -C28     -H60     : 175.807740
 C18     -C25     -C28     -H61     :  55.016039
 C18     -C25     -C29     -H62     :  63.286423
 C18     -C25     -C29     -H63     : -56.812968
 C18     -C25     -C29     -H64     :-177.291349
 C19     -C18     -C17     -H42     : 179.829366
 C19     -C18     -C25     -C28     :-127.250797
 C19     -C18     -C25     -C29     : 108.209678
 C19     -C18     -C25     -H52     :  -8.910057
 C19     -C20     -C21     -C22     : -70.566380
 C19     -C20     -C21     -C26     :  54.062257
 C19     -C20     -C21     -H44     : 172.641267
 C20     -C15     -C16     -C23     : 175.645601
 C20     -C19     -C18     -C25     :-177.130001
 C20     -C21     -C22     -H45     :  60.640490
 C20     -C21     -C22     -H46     : -59.617110
 C20     -C21     -C22     -H47     :-179.711145
 C20     -C21     -C26     -H53     : -71.659482
 C20     -C21     -C26     -H54     : 169.151214
 C20     -C21     -C26     -H55     :  48.154494
 C21     -C20     -C19     -H43     :  -3.397978
 C22     -C21     -C26     -H53     :  52.975706
 C22     -C21     -C26     -H54     : -66.213598
 C22     -C21     -C26     -H55     : 172.789682
 C23     -C16     -C17     -H42     :   4.087902
 C24     -C23     -C27     -H56     :  64.156506
 C24     -C23     -C27     -H57     : -55.760401
 C24     -C23     -C27     -H58     :-175.768314
 C25     -C18     -C17     -H42     :  -2.324618
 C25     -C18     -C19     -H43     :   3.011185
 C26     -C21     -C22     -H45     : -64.054714
 C26     -C21     -C22     -H46     : 175.687686
 C26     -C21     -C22     -H47     :  55.593652
 C27     -C23     -C24     -H49     : -54.375565
 C27     -C23     -C24     -H50     :  65.295302
 C27     -C23     -C24     -H51     :-174.112019
 C28     -C25     -C29     -H62     : -62.199993
 C28     -C25     -C29     -H63     : 177.700616
 C28     -C25     -C29     -H64     :  57.222236
 C29     -C25     -C28     -H59     :  59.226046
 C29     -C25     -C28     -H60     : -60.011190
 C29     -C25     -C28     -H61     : 179.197109
 H30     -C6      -C3      -C69     : 179.382883
 H31     -C6      -C3      -C69     : -57.164406
 H32     -C7      -C3      -C69     :  69.130494
 H33     -C7      -C3      -C69     :-167.936424
 H34     -C8      -C4      -C65     :  54.510131
 H35     -C8      -C4      -C65     : 177.393406
 H36     -C9      -C4      -C65     : 176.186175
 H37     -C9      -C4      -C65     : -61.616023
 H38     -C10     -C11     -H39     :   0.719556
 H39     -C11     -C12     -H40     :   0.458986
 H40     -C12     -C13     -H41     :  -0.497899
 H44     -C21     -C22     -H45     : 177.653438
 H44     -C21     -C22     -H46     :  57.395838
 H44     -C21     -C22     -H47     : -62.698197
 H44     -C21     -C26     -H53     : 170.403239
 H44     -C21     -C26     -H54     :  51.213935
 H44     -C21     -C26     -H55     : -69.782784
 H48     -C23     -C24     -H49     :-171.831721
 H48     -C23     -C24     -H50     : -52.160854
 H48     -C23     -C24     -H51     :  68.431825
 H48     -C23     -C27     -H56     :-178.194448
 H48     -C23     -C27     -H57     :  61.888645
 H48     -C23     -C27     -H58     : -58.119268
 H52     -C25     -C28     -H59     : 177.015202
 H52     -C25     -C28     -H60     :  57.777966
 H52     -C25     -C28     -H61     : -63.013735
 H52     -C25     -C29     -H62     :-179.956050
 H52     -C25     -C29     -H63     :  59.944559
 H52     -C25     -C29     -H64     : -60.533822
 C65     -C4      -C8      -H75     : -63.862533
 C65     -C4      -C9      -H76     :  57.403763
 C69     -C3      -C6      -H73     :  61.009947
 C69     -C3      -C7      -H74     : -49.933348
 O3      -C105    -C106    -H109    : 172.300288
 O3      -C105    -C106    -H110    : -67.244463
 O3      -C105    -C106    -H111    :  52.094740
 O3      -C105    -C107    -H115    :-170.757553
 O3      -C105    -C107    -H116    : -50.935054
 O3      -C105    -C107    -H117    :  68.348159
 O3      -C105    -C108    -H112    : 173.290392
 O3      -C105    -C108    -H113    : -66.340497
 O3      -C105    -C108    -H114    :  52.746878
 C106    -C105    -C107    -H115    : -54.076897
 C106    -C105    -C107    -H116    :  65.745602
 C106    -C105    -C107    -H117    :-174.971184
 C106    -C105    -C108    -H112    :  55.841046
 C106    -C105    -C108    -H113    : 176.210157
 C106    -C105    -C108    -H114    : -64.702467
 C107    -C105    -C106    -H109    :  52.092082
 C107    -C105    -C106    -H110    : 172.547331
 C107    -C105    -C106    -H111    : -68.113466
 C107    -C105    -C108    -H112    : -61.296026
 C107    -C105    -C108    -H113    :  59.073084
 C107    -C105    -C108    -H114    : 178.160460
 C108    -C105    -C106    -H109    : -66.568748
 C108    -C105    -C106    -H110    :  53.886501
 C108    -C105    -C106    -H111    : 173.225705
 C108    -C105    -C107    -H115    :  63.612476
 C108    -C105    -C107    -H116    :-176.565025
 C108    -C105    -C107    -H117    : -57.281812
 
  nuclear repulsion energy.......          6765.652205490 hartrees
  
  Detected an organometallic with only one TM atom. 
  
  Oxidation state on metal       2 is     2
  Formal multiplet on metal      2 is     1
  Formal charge on ligand        3 is    -1
  Formal multiplet on ligand     3 is     1
  Formal charge on ligand        4 is    -1
  Formal multiplet on ligand     4 is     1
  
 
  Will use High-Quality Initial guess for organometallics
       including d-d repulsion (iguess=30)
 
 Non-default options chosen:
   SCF calculation type: DFT(b3pw91-d3)              
   DFT=Becke_3_Parameter/HF+Slater+Becke88+PW91+PW-GGAIIC (B3PW91-D3)
   Geometry will be optimized in redundant internal coordinates
   Solvation energy will be computed using PBF
     -solute cavity energy will not be included
     -surface area terms will not be included
   Vibrational frequencies and related properties will be computed
      from analytic second derivatives
   IR intensities will be computed
   Thermochemical properties will be computed
   Maximum number of geometry steps: 100
   Scaling standard convergence criteria by a factor of   5.00
   Solvent: benzene                                                         
   Internal dielectric constant:    1.000
   Continuum dielectric constant:   2.283
   Solvent probe molecule radius:   2.600
  
 Non-default print settings:
     11=  2
  
 Temporary integer options set:
     21= -1  73=  2
  
  atom       vdw   vdw2    cov     mass  grid  daf  charge   basis
  P1        2.147  2.074  1.060   30.974    Y    Y      Y    ps_6-31g*
  Pd2       1.450  1.450  1.280  105.903    Y    Y      Y    lacv3p*
  C73       1.949  1.900  0.770   12.000    Y    Y      Y    ps_6-31g*
  C74       1.949  1.900  0.770   12.000    Y    Y      Y    ps_6-31g*
  C75       1.949  1.900  0.770   12.000    Y    Y      Y    ps_6-31g*
  C76       1.949  1.900  0.770   12.000    Y    Y      Y    ps_6-31g*
  C77       1.949  1.900  0.770   12.000    Y    Y      Y    ps_6-31g*
  C78       1.949  1.900  0.770   12.000    Y    Y      Y    ps_6-31g*
  F79       1.736  1.682  0.720   18.998    Y    Y      Y    ps_6-31g*
  H80       1.597  1.150  0.320    1.008    Y    Y      Y    ps_6-31g*
  H82       1.597  1.150  0.320    1.008    Y    Y      Y    ps_6-31g*
  H83       1.597  1.150  0.320    1.008    Y    Y      Y    ps_6-31g*
  H14       1.597  1.150  0.320    1.008    Y    Y      Y    ps_6-31g*
  C3        1.949  1.900  0.770   12.000    Y    Y      Y    ps_6-31g*
  C4        1.949  1.900  0.770   12.000    Y    Y      Y    ps_6-31g*
  C5        1.949  1.900  0.770   12.000    Y    Y      Y    ps_6-31g*
  C6        1.949  1.900  0.770   12.000    Y    Y      Y    ps_6-31g*
  C7        1.949  1.900  0.770   12.000    Y    Y      Y    ps_6-31g*
  C8        1.949  1.900  0.770   12.000    Y    Y      Y    ps_6-31g*
  C9        1.949  1.900  0.770   12.000    Y    Y      Y    ps_6-31g*
  C10       1.949  1.900  0.770   12.000    Y    Y      Y    ps_6-31g*
  C11       1.949  1.900  0.770   12.000    Y    Y      Y    ps_6-31g*
  C12       1.949  1.900  0.770   12.000    Y    Y      Y    ps_6-31g*
  C13       1.949  1.900  0.770   12.000    Y    Y      Y    ps_6-31g*
  C14       1.949  1.900  0.770   12.000    Y    Y      Y    ps_6-31g*
  C15       1.949  1.900  0.770   12.000    Y    Y      Y    ps_6-31g*
  C16       1.949  1.900  0.770   12.000    Y    Y      Y    ps_6-31g*
  C17       1.949  1.900  0.770   12.000    Y    Y      Y    ps_6-31g*
  C18       1.949  1.900  0.770   12.000    Y    Y      Y    ps_6-31g*
  C19       1.949  1.900  0.770   12.000    Y    Y      Y    ps_6-31g*
  C20       1.949  1.900  0.770   12.000    Y    Y      Y    ps_6-31g*
  C21       1.949  1.900  0.770   12.000    Y    Y      Y    ps_6-31g*
  C22       1.949  1.900  0.770   12.000    Y    Y      Y    ps_6-31g*
  C23       1.949  1.900  0.770   12.000    Y    Y      Y    ps_6-31g*
  C24       1.949  1.900  0.770   12.000    Y    Y      Y    ps_6-31g*
  C25       1.949  1.900  0.770   12.000    Y    Y      Y    ps_6-31g*
  C26       1.949  1.900  0.770   12.000    Y    Y      Y    ps_6-31g*
  C27       1.949  1.900  0.770   12.000    Y    Y      Y    ps_6-31g*
  C28       1.949  1.900  0.770   12.000    Y    Y      Y    ps_6-31g*
  C29       1.949  1.900  0.770   12.000    Y    Y      Y    ps_6-31g*
  H30       1.597  1.150  0.320    1.008    Y    Y      Y    ps_6-31g*
  H31       1.597  1.150  0.320    1.008    Y    Y      Y    ps_6-31g*
  H32       1.597  1.150  0.320    1.008    Y    Y      Y    ps_6-31g*
  H33       1.597  1.150  0.320    1.008    Y    Y      Y    ps_6-31g*
  H34       1.597  1.150  0.320    1.008    Y    Y      Y    ps_6-31g*
  H35       1.597  1.150  0.320    1.008    Y    Y      Y    ps_6-31g*
  H36       1.597  1.150  0.320    1.008    Y    Y      Y    ps_6-31g*
  H37       1.597  1.150  0.320    1.008    Y    Y      Y    ps_6-31g*
  H38       1.597  1.150  0.320    1.008    Y    Y      Y    ps_6-31g*
  H39       1.597  1.150  0.320    1.008    Y    Y      Y    ps_6-31g*
  H40       1.597  1.150  0.320    1.008    Y    Y      Y    ps_6-31g*
  H41       1.597  1.150  0.320    1.008    Y    Y      Y    ps_6-31g*
  H42       1.597  1.150  0.320    1.008    Y    Y      Y    ps_6-31g*
  H43       1.597  1.150  0.320    1.008    Y    Y      Y    ps_6-31g*
  H44       1.597  1.150  0.320    1.008    Y    Y      Y    ps_6-31g*
  H45       1.597  1.150  0.320    1.008    Y    Y      Y    ps_6-31g*
  H46       1.597  1.150  0.320    1.008    Y    Y      Y    ps_6-31g*
  H47       1.597  1.150  0.320    1.008    Y    Y      Y    ps_6-31g*
  H48       1.597  1.150  0.320    1.008    Y    Y      Y    ps_6-31g*
  H49       1.597  1.150  0.320    1.008    Y    Y      Y    ps_6-31g*
  H50       1.597  1.150  0.320    1.008    Y    Y      Y    ps_6-31g*
  H51       1.597  1.150  0.320    1.008    Y    Y      Y    ps_6-31g*
  H52       1.597  1.150  0.320    1.008    Y    Y      Y    ps_6-31g*
  H53       1.597  1.150  0.320    1.008    Y    Y      Y    ps_6-31g*
  H54       1.597  1.150  0.320    1.008    Y    Y      Y    ps_6-31g*
  H55       1.597  1.150  0.320    1.008    Y    Y      Y    ps_6-31g*
  H56       1.597  1.150  0.320    1.008    Y    Y      Y    ps_6-31g*
  H57       1.597  1.150  0.320    1.008    Y    Y      Y    ps_6-31g*
  H58       1.597  1.150  0.320    1.008    Y    Y      Y    ps_6-31g*
  H59       1.597  1.150  0.320    1.008    Y    Y      Y    ps_6-31g*
  H60       1.597  1.150  0.320    1.008    Y    Y      Y    ps_6-31g*
  H61       1.597  1.150  0.320    1.008    Y    Y      Y    ps_6-31g*
  H62       1.597  1.150  0.320    1.008    Y    Y      Y    ps_6-31g*
  H63       1.597  1.150  0.320    1.008    Y    Y      Y    ps_6-31g*
  H64       1.597  1.150  0.320    1.008    Y    Y      Y    ps_6-31g*
  C65       1.949  1.900  0.770   12.000    Y    Y      Y    ps_6-31g*
  H66       1.597  1.150  0.320    1.008    Y    Y      Y    ps_6-31g*
  H67       1.597  1.150  0.320    1.008    Y    Y      Y    ps_6-31g*
  H68       1.597  1.150  0.320    1.008    Y    Y      Y    ps_6-31g*
  C69       1.949  1.900  0.770   12.000    Y    Y      Y    ps_6-31g*
  H70       1.597  1.150  0.320    1.008    Y    Y      Y    ps_6-31g*
  H71       1.597  1.150  0.320    1.008    Y    Y      Y    ps_6-31g*
  H72       1.597  1.150  0.320    1.008    Y    Y      Y    ps_6-31g*
  H73       1.597  1.150  0.320    1.008    Y    Y      Y    ps_6-31g*
  H74       1.597  1.150  0.320    1.008    Y    Y      Y    ps_6-31g*
  H75       1.597  1.150  0.320    1.008    Y    Y      Y    ps_6-31g*
  H76       1.597  1.150  0.320    1.008    Y    Y      Y    ps_6-31g*
  O3        1.702  1.600  0.730   15.995    Y    Y      Y    ps_6-31g*
  C105      1.949  1.900  0.770   12.000    Y    Y      Y    ps_6-31g*
  C106      1.949  1.900  0.770   12.000    Y    Y      Y    ps_6-31g*
  C107      1.949  1.900  0.770   12.000    Y    Y      Y    ps_6-31g*
  C108      1.949  1.900  0.770   12.000    Y    Y      Y    ps_6-31g*
  H109      1.597  1.150  0.320    1.008    Y    Y      Y    ps_6-31g*
  H110      1.597  1.150  0.320    1.008    Y    Y      Y    ps_6-31g*
  H111      1.597  1.150  0.320    1.008    Y    Y      Y    ps_6-31g*
  H112      1.597  1.150  0.320    1.008    Y    Y      Y    ps_6-31g*
  H113      1.597  1.150  0.320    1.008    Y    Y      Y    ps_6-31g*
  H114      1.597  1.150  0.320    1.008    Y    Y      Y    ps_6-31g*
  H115      1.597  1.150  0.320    1.008    Y    Y      Y    ps_6-31g*
  H116      1.597  1.150  0.320    1.008    Y    Y      Y    ps_6-31g*
  H117      1.597  1.150  0.320    1.008    Y    Y      Y    ps_6-31g*
 
  atom      formal  2spin      esp    mulk    frag
  P1           0       0        Y    0.000       0
  Pd2          2       0        Y    0.000       0
  C73         -1       0        Y    0.000       0
  O3          -1       0        Y    0.000       0
  
  end of program pre
   
 Time(pre)  user:       4.323  user+sys:       4.323  wallclock:       0.943
  
  start of program onee
  
  smallest eigenvalue of S:    3.079E-04
  number of canonical orbitals.....          737
  end of program onee
   
 Time(onee)  user:       8.953  user+sys:       8.953  wallclock:       1.648
  
  start of program hfig
  
  initial wavefunction generated automatically from atomic wavefunctions
  Only one state below 0.010000
  Skip d-d repulsion considerations 
 
  Irreducible     Total no   No of occupied orbitals 
  representation  orbitals   Shell_1  Shell_2    ...
  No Symm          737        171
  ------------------------
  Orbital occupation/shell    1.000
 
  end of program hfig
   
 Time(hfig)  user:       2.750  user+sys:       2.750  wallclock:       1.215
  
  start of program probe
  
  end of program probe
   
 Time(probe)  user:       1.626  user+sys:       1.626  wallclock:       0.490
  
  start of program grid
  
   grid     grid set  grid #  grid sym
  ------    --------  ------  --------
  coarse        0        0        1
  medium        2        1        1
  fine          0        0        1
  ultrafine     4        2        1
  charge       -1        3        1
  gradient      4        2        1
  density       0        0        1
  DFT-fine    -11        4        1
  DFT-med.    -10        5        1
  DFT-grad    -12        6        1
  DFT-der2     -8        7        1
  DFT-cphf     -9        8        1
  LMP2-enrg     4        2        1
  LMP2-grad     2        1        1
  DFT-cphf2   -15        9        1
  PBF-dens      0        0        1
  plotting      0        0        1
  Rel-grad    -17        0        1
  
  number of gridpoints: 
     atom           P1         Pd2         C73         C74         C75         C76         C77
  grid # 1         609         353          77          92          94          99          93
  grid # 2         429         301         330         318         318         387         316
  grid # 3           6         207          26          14           6           6           7
  grid # 4        8714        8714        8714        8714        8714        8714        8714
  grid # 5        1192        1192        1192        1192        1192        1192        1192
  grid # 6        9132        9132        5922        5922        5922        5922        5922
  grid # 7       23034       32968       13950       13950       13950       13950       13950
  grid # 8         722        1150         748         748         748         748         748
  grid # 9         366        2198         394         394         394         394         394
   
  number of gridpoints: 
     atom          C78         F79         H80         H82         H83         H14          C3
  grid # 1          92         585         114         111         113         107          90
  grid # 2         319         567         462         442         463         424         365
  grid # 3          12         365         391         151         396         109           6
  grid # 4        8714        8714        8714        8714        8714        8714        8714
  grid # 5        1192        1192        1192        1192        1192        1192        1192
  grid # 6        5922        5922        5922        5922        5922        5922        5922
  grid # 7       13950       23190       15206       15206       15206       15206       13950
  grid # 8         748         770         786         786         786         786         748
  grid # 9         394         420         420         420         420         420         394
   
  number of gridpoints: 
     atom           C4          C5          C6          C7          C8          C9         C10
  grid # 1          89          95          81          81          79          79          93
  grid # 2         372         381         235         238         241         239         323
  grid # 3           6           8           6           6           6           6          13
  grid # 4        8714        8714        8714        8714        8714        8714        8714
  grid # 5        1192        1192        1192        1192        1192        1192        1192
  grid # 6        5922        5922        5922        5922        5922        5922        5922
  grid # 7       13950       13950       13950       13950       13950       13950       13950
  grid # 8         748         748         748         748         748         748         748
  grid # 9         394         394         394         394         394         394         394
   
  number of gridpoints: 
     atom          C11         C12         C13         C14         C15         C16         C17
  grid # 1          95          95          95          98          99          96          95
  grid # 2         324         324         321         353         358         356         324
  grid # 3          35          30          11           7           7           8          16
  grid # 4        8714        8714        8714        8714        8714        8714        8714
  grid # 5        1192        1192        1192        1192        1192        1192        1192
  grid # 6        5922        5922        5922        5922        5922        5922        5922
  grid # 7       13950       13950       13950       13950       13950       13950       13950
  grid # 8         748         748         748         748         748         748         748
  grid # 9         394         394         394         394         394         394         394
   
  number of gridpoints: 
     atom          C18         C19         C20         C21         C22         C23         C24
  grid # 1          99          95          96          91          81          90          81
  grid # 2         357         326         358         305         240         304         238
  grid # 3          11          17           8           6           6           6           6
  grid # 4        8714        8714        8714        8714        8714        8714        8714
  grid # 5        1192        1192        1192        1192        1192        1192        1192
  grid # 6        5922        5922        5922        5922        5922        5922        5922
  grid # 7       13950       13950       13950       13950       13950       13950       13950
  grid # 8         748         748         748         748         748         748         748
  grid # 9         394         394         394         394         394         394         394
   
  number of gridpoints: 
     atom          C25         C26         C27         C28         C29         H30         H31
  grid # 1          89          81          79          81          80         102         105
  grid # 2         302         240         243         239         244         426         436
  grid # 3           6           6           6           6           6         153         192
  grid # 4        8714        8714        8714        8714        8714        8714        8714
  grid # 5        1192        1192        1192        1192        1192        1192        1192
  grid # 6        5922        5922        5922        5922        5922        5922        5922
  grid # 7       13950       13950       13950       13950       13950       15206       15206
  grid # 8         748         748         748         748         748         786         786
  grid # 9         394         394         394         394         394         420         420
   
  number of gridpoints: 
     atom          H32         H33         H34         H35         H36         H37         H38
  grid # 1         100         102         102         101         100         101         102
  grid # 2         420         423         429         422         419         428         426
  grid # 3          78         163         158          75          55         146          92
  grid # 4        8714        8714        8714        8714        8714        8714        8714
  grid # 5        1192        1192        1192        1192        1192        1192        1192
  grid # 6        5922        5922        5922        5922        5922        5922        5922
  grid # 7       15206       15206       15206       15206       15206       15206       15206
  grid # 8         786         786         786         786         786         786         786
  grid # 9         420         420         420         420         420         420         420
   
  number of gridpoints: 
     atom          H39         H40         H41         H42         H43         H44         H45
  grid # 1         118         118         112         104         106         103         108
  grid # 2         466         466         439         423         430         415         447
  grid # 3         415         403         177          89         115          63         257
  grid # 4        8714        8714        8714        8714        8714        8714        8714
  grid # 5        1192        1192        1192        1192        1192        1192        1192
  grid # 6        5922        5922        5922        5922        5922        5922        5922
  grid # 7       15206       15206       15206       15206       15206       15206       15206
  grid # 8         786         786         786         786         786         786         786
  grid # 9         420         420         420         420         420         420         420
   
  number of gridpoints: 
     atom          H46         H47         H48         H49         H50         H51         H52
  grid # 1         107         110          99         107         107         102         108
  grid # 2         444         454         413         444         443         421         434
  grid # 3         210         319          38         234         258          83         178
  grid # 4        8714        8714        8714        8714        8714        8714        8714
  grid # 5        1192        1192        1192        1192        1192        1192        1192
  grid # 6        5922        5922        5922        5922        5922        5922        5922
  grid # 7       15206       15206       15206       15206       15206       15206       15206
  grid # 8         786         786         786         786         786         786         786
  grid # 9         420         420         420         420         420         420         420
   
  number of gridpoints: 
     atom          H53         H54         H55         H56         H57         H58         H59
  grid # 1         107         107          97         107         110         107         107
  grid # 2         441         443         404         447         454         447         445
  grid # 3         218         263          47         247         311         215         230
  grid # 4        8714        8714        8714        8714        8714        8714        8714
  grid # 5        1192        1192        1192        1192        1192        1192        1192
  grid # 6        5922        5922        5922        5922        5922        5922        5922
  grid # 7       15206       15206       15206       15206       15206       15206       15206
  grid # 8         786         786         786         786         786         786         786
  grid # 9         420         420         420         420         420         420         420
   
  number of gridpoints: 
     atom          H60         H61         H62         H63         H64         C65         H66
  grid # 1         108          92         107         111         109          82         107
  grid # 2         452         367         447         458         454         233         445
  grid # 3         317          44         244         330         321           6         265
  grid # 4        8714        8714        8714        8714        8714        8714        8714
  grid # 5        1192        1192        1192        1192        1192        1192        1192
  grid # 6        5922        5922        5922        5922        5922        5922        5922
  grid # 7       15206       15206       15206       15206       15206       13950       15206
  grid # 8         786         786         786         786         786         748         786
  grid # 9         420         420         420         420         420         394         420
   
  number of gridpoints: 
     atom          H67         H68         C69         H70         H71         H72         H73
  grid # 1         102         102          79         107          99          98         109
  grid # 2         430         424         240         443         412         416         446
  grid # 3         178         139           6         249          53          44         269
  grid # 4        8714        8714        8714        8714        8714        8714        8714
  grid # 5        1192        1192        1192        1192        1192        1192        1192
  grid # 6        5922        5922        5922        5922        5922        5922        5922
  grid # 7       15206       15206       13950       15206       15206       15206       15206
  grid # 8         786         786         748         786         786         786         786
  grid # 9         420         420         394         420         420         420         420
   
  number of gridpoints: 
     atom          H74         H75         H76          O3        C105        C106        C107
  grid # 1         108         108         108         119          93          79          81
  grid # 2         446         446         446         480         329         242         238
  grid # 3         257         254         256          37           6           6           6
  grid # 4        8714        8714        8714        8714        8714        8714        8714
  grid # 5        1192        1192        1192        1192        1192        1192        1192
  grid # 6        5922        5922        5922        5922        5922        5922        5922
  grid # 7       15206       15206       15206       23382       13950       13950       13950
  grid # 8         786         786         786         774         748         748         748
  grid # 9         420         420         420         416         394         394         394
   
  number of gridpoints: 
     atom         C108        H109        H110        H111        H112        H113        H114
  grid # 1          81         108         101          86         108         103          96
  grid # 2         238         449         414         379         451         422         405
  grid # 3           6         266          81         109         294          87          51
  grid # 4        8714        8714        8714        8714        8714        8714        8714
  grid # 5        1192        1192        1192        1192        1192        1192        1192
  grid # 6        5922        5922        5922        5922        5922        5922        5922
  grid # 7       13950       15206       15206       15206       15206       15206       15206
  grid # 8         748         786         786         786         786         786         786
  grid # 9         394         420         420         420         420         420         420
   
  number of gridpoints: 
     atom         H115        H116        H117       total
  grid # 1         108         109         105       11221
  grid # 2         450         447         426       38650
  grid # 3         282         275         115       12292
  grid # 4        8714        8714        8714      880114
  grid # 5        1192        1192        1192      120392
  grid # 6        5922        5922        5922      604542
  grid # 7       15206       15206       15206     1528572
  grid # 8         786         786         786       78176
  grid # 9         420         420         420       43126
   
  end of program grid
   
 Time(grid)  user:     784.320  user+sys:     784.320  wallclock:      52.841
  
  start of program rwr
  
  end of program rwr
   
 Time(rwr)  user:      73.035  user+sys:      73.035  wallclock:      21.535
  
  start of program scf
  
 number of electrons..........        342
 number of alpha electrons....        171
 number of beta electrons.....        171
 number of orbitals, total....        737
 number of doubly-occ'd orbs..        171
 number of open shell orbs....          0
 number of occupied orbitals..        171
 number of virtual orbitals...        566
 number of hamiltonians.......          1
 number of shells.............          1
 SCF type: DFT=Becke_3_Parameter/HF+Slater+Becke88+PW91+PW-GGAIIC (B3PW91-D3)
 Energy computed using pseudospectral method.
 Convergence Criterion:
    Energy (econv):       1.00E-05
    RMS density (dconv):  5.00E-06
  
       i  u  d  i  g                   
       t  p  i  c  r                                 RMS    maximum
       e  d  i  u  i                       energy  density   DIIS  
       r  t  s  t  d       total energy    change  change    error 
  
etot    1  N  N  5  M   -2157.96088261370           1.9E-03  1.9E-01
etot    2  Y  Y  6  M   -2161.85842377950  3.9E+00  3.2E-03  1.2E-01
etot    3  Y  Y  6  M   -2163.14223942887  1.3E+00  1.2E-03  5.8E-02
etot    4  N  Y  2  U   -2163.38151293342  2.4E-01  1.1E-03  7.9E-02
etot    5  Y  Y  6  M   -2163.51076071446  1.3E-01  6.7E-04  5.2E-02
etot    6  N  Y  2  U   -2163.53042477086  2.0E-02  8.5E-04  3.2E-02
etot    7  Y  Y  6  M   -2163.53919883021  8.8E-03  1.7E-04  7.0E-03
etot    8  N  Y  2  U   -2163.55381606996  1.5E-02  4.8E-05  1.8E-03
etot    9  N  Y  2  U   -2163.55419004311  3.7E-04  1.6E-05  4.9E-04
etot   10  N  Y  2  U   -2163.55420235687  1.2E-05  4.3E-06  1.0E-04
etot   11  N  N  2  U   -2163.55420587917  3.5E-06  0.0E+00  0.0E+00
 
  Computing the dispersion energy correction and its gradients...
  
  
 Energy components, in hartrees:
   (A)  Nuclear repulsion............    6765.65220549002
   (E)  Total one-electron terms.....  -16480.85425096439
   (F)    Electron-nuclear...........  -18552.34594901852
   (H)    Kinetic....................    2071.49169805413
   (I)  Total two-electron terms.....    7551.64783959521
   (J)    Coulomb....................    7839.79974675685
   (K)    Exchange+Correlation.......    -288.15190716165
   (L)  Electronic energy............   -8929.20641136918  (E+I)
   (N0) D3 correction................      -0.20455326459
   (N)  Total energy.................   -2163.75875914376  (A+L+N0)
   (O)  Gas phase energy.............   -2163.75875914376
  
 SCFE: SCF energy: DFT(b3pw91-d3)     -2163.75875914376 hartrees   iterations:  11
  
 
 HOMO energy:    -0.17863
 LUMO energy:    -0.04302
 
  Orbital energies (hartrees): 
   -77.08070   -24.67105   -19.04992   -10.23646   -10.20842   -10.20780
   -10.20568   -10.20133   -10.19197   -10.19151   -10.18940   -10.18858
   -10.18635   -10.18413   -10.18196   -10.17772   -10.17564   -10.17499
   -10.17122   -10.16999   -10.16878   -10.16860   -10.16781   -10.16368
   -10.16368   -10.16301   -10.16228   -10.16215   -10.16044   -10.16021
   -10.15987   -10.15790   -10.15517   -10.15348   -10.15308   -10.14898
   -10.14882   -10.14826   -10.12137   -10.11747   -10.11664   -10.10574
    -6.58074    -4.73891    -4.73817    -4.73548    -3.32952    -2.06201
    -2.05860    -2.02866    -1.20372    -0.91437    -0.88781    -0.86450
    -0.84709    -0.83771    -0.82123    -0.81766    -0.81503    -0.78353
    -0.77073    -0.76876    -0.74342    -0.73720    -0.72676    -0.72288
    -0.71918    -0.70432    -0.70185    -0.69724    -0.68982    -0.68917
    -0.68523    -0.68262    -0.66407    -0.65577    -0.64894    -0.63554
    -0.62987    -0.61403    -0.60794    -0.59679    -0.59202    -0.58721
    -0.56171    -0.55365    -0.54040    -0.53674    -0.52854    -0.51718
    -0.51192    -0.49280    -0.48887    -0.47803    -0.47499    -0.47083
    -0.46835    -0.46201    -0.45785    -0.45480    -0.45445    -0.45167
    -0.44739    -0.44583    -0.44396    -0.44226    -0.44113    -0.43366
    -0.42960    -0.42772    -0.42438    -0.42177    -0.41543    -0.41362
    -0.41272    -0.41061    -0.40958    -0.40543    -0.40317    -0.39969
    -0.39795    -0.39566    -0.38923    -0.38835    -0.38532    -0.38387
    -0.38007    -0.37956    -0.37866    -0.37348    -0.37205    -0.37082
    -0.36957    -0.36521    -0.36482    -0.35801    -0.35568    -0.35480
    -0.34935    -0.34500    -0.34406    -0.34131    -0.33899    -0.33779
    -0.33640    -0.33443    -0.33184    -0.32983    -0.32550    -0.32207
    -0.32110    -0.31611    -0.31006    -0.30857    -0.30509    -0.30347
    -0.30062    -0.29902    -0.28406    -0.26926    -0.26671    -0.26512
    -0.25471    -0.25356    -0.24263    -0.23799    -0.23013    -0.21980
    -0.20950    -0.19419    -0.17863    -0.04302    -0.04020    -0.02422
    -0.00122     0.00073     0.00140     0.02042     0.04289     0.04395
     0.05829
 
  end of program scf
   
 Time(scf)  user:     925.264  user+sys:     925.264  wallclock:      84.043
  
  start of program der1a
  
  end of program der1a
   
 Time(der1a)  user:      24.634  user+sys:      24.634  wallclock:       2.268
  
  start of program rwr
  
  end of program rwr
   
 Time(rwr)  user:      63.610  user+sys:      63.610  wallclock:      25.060
  
  start of program der1b
  
   
  forces (hartrees/bohr) : total     
   
 atom  label           x              y              z
 ---- --------   -------------  -------------  -------------
    1 P1         -2.415239E-03   4.093656E-03   5.579581E-03
    2 Pd2         4.780153E-03  -4.961982E-03   8.593251E-03
    3 C73         1.476226E-03   1.419946E-04   4.905480E-04
    4 C74         5.333223E-04   9.603779E-04  -5.758641E-05
    5 C75         1.622715E-03  -2.435012E-03  -1.737679E-03
    6 C76        -6.056471E-03   3.486325E-04  -5.172558E-04
    7 C77         1.824091E-03   7.110699E-04   4.077845E-04
    8 C78        -9.448101E-04  -4.348470E-04  -4.939557E-05
    9 F79        -9.184766E-04   2.853272E-04  -8.640782E-05
   10 H80         1.276254E-04  -9.341513E-04   2.666600E-04
   11 H82        -4.882879E-04   1.188807E-03   2.305421E-04
   12 H83        -5.182363E-05   1.031965E-03   2.359909E-05
   13 H14         9.492600E-04  -5.368420E-04  -1.357677E-03
   14 C3         -1.169950E-03  -1.478896E-03  -1.630225E-03
   15 C4         -8.387507E-04   1.347191E-03  -7.784956E-04
   16 C5          3.726487E-04   1.861370E-04  -3.450123E-03
   17 C6          6.830217E-04   1.193544E-03   1.944920E-04
   18 C7         -2.576033E-04   3.438046E-04  -5.150135E-04
   19 C8          1.301829E-03   3.335128E-04   2.816585E-04
   20 C9         -3.881467E-05  -5.532484E-04  -6.338748E-05
   21 C10        -1.784200E-03  -5.879459E-04   2.738617E-04
   22 C11         9.886996E-05   1.019580E-04  -1.253197E-04
   23 C12         1.588500E-03   4.204813E-04   3.269848E-04
   24 C13        -3.944034E-04   1.171013E-04  -6.907451E-04
   25 C14         1.747780E-04   1.408906E-04   1.687340E-04
   26 C15         7.453006E-04  -1.658003E-03   1.985601E-03
   27 C16        -2.058470E-03   1.354276E-04  -3.851855E-04
   28 C17         7.108664E-04   5.022953E-04  -1.473728E-03
   29 C18         1.851804E-03  -8.489120E-04  -1.040809E-03
   30 C19         2.806398E-03  -1.259618E-04  -5.658864E-04
   31 C20         5.388892E-04  -3.300364E-04  -1.332308E-04
   32 C21        -7.166214E-04   2.999401E-05   2.666934E-04
   33 C22         4.783706E-04   1.969696E-04   2.529125E-04
   34 C23        -8.133912E-05   4.027231E-05   1.984825E-04
   35 C24         1.045245E-03   6.641110E-04   1.621064E-05
   36 C25         2.837941E-04  -3.054108E-03   1.069604E-03
   37 C26        -3.061092E-03  -3.993264E-04  -4.691714E-03
   38 C27         5.013671E-04   3.624110E-04   7.299509E-05
   39 C28        -1.490955E-02  -1.528800E-02   4.879903E-03
   40 C29        -1.174078E-03   9.874319E-04  -5.136746E-04
   41 H30         2.384760E-05   3.591090E-06   6.017853E-05
   42 H31        -3.278523E-04  -1.298313E-04  -1.133258E-04
   43 H32        -1.307811E-04  -1.015195E-04   6.297163E-06
   44 H33        -6.273836E-05   6.014271E-04   5.239133E-04
   45 H34        -9.194086E-04  -2.339001E-03   7.336871E-04
   46 H35         1.988499E-04  -2.695756E-05  -1.307379E-03
   47 H36        -1.346117E-04   1.823656E-04  -5.491187E-04
   48 H37         8.798445E-04   1.073270E-04   1.404943E-04
   49 H38         9.844053E-05  -8.942340E-05   5.325217E-04
   50 H39        -1.798627E-06  -7.572976E-05   6.778738E-04
   51 H40         6.740858E-04   1.352946E-04   1.120360E-04
   52 H41         5.869534E-04  -3.312999E-05   1.657355E-04
   53 H42         1.809359E-04   4.056348E-04  -9.268982E-05
   54 H43        -5.521749E-04   3.189104E-04   3.265054E-05
   55 H44         3.299403E-04   2.329033E-04   2.903928E-04
   56 H45         2.700212E-04  -1.195725E-04  -4.661994E-04
   57 H46        -3.753969E-05   9.578848E-05   1.569542E-07
   58 H47        -1.308923E-04  -2.010313E-04   2.655357E-05
   59 H48        -4.024229E-04  -5.061917E-05   2.375767E-04
   60 H49         1.952819E-04   4.606854E-04  -2.709748E-04
   61 H50        -5.714819E-04   2.221948E-04   1.428156E-04
   62 H51        -1.024976E-03  -5.848401E-04   1.765576E-04
   63 H52        -6.596949E-04   5.821679E-04   6.186443E-04
   64 H53        -1.938960E-04  -1.430346E-04   3.265557E-04
   65 H54        -8.415490E-05   1.111550E-03  -5.365984E-04
   66 H55        -5.951323E-03   3.060355E-03  -7.639201E-03
   67 H56         4.925428E-04   2.392885E-04  -4.831853E-04
   68 H57        -1.305064E-04   4.547795E-04   2.942475E-04
   69 H58        -2.110124E-04  -2.230408E-05  -2.107036E-04
   70 H59        -1.794245E-03  -1.486363E-03   8.915161E-06
   71 H60        -1.280662E-03  -5.488667E-04   1.042561E-03
   72 H61        -4.803491E-02  -3.186927E-02   1.250319E-02
   73 H62         1.923972E-04   2.878965E-04  -9.053746E-05
   74 H63         6.458378E-05  -3.966277E-04   1.091307E-04
   75 H64         2.272932E-04   9.671226E-05  -4.189562E-04
   76 C65         1.203336E-04  -6.825181E-05   3.335392E-05
   77 H66         2.751358E-05  -5.808479E-05  -2.439373E-04
   78 H67        -5.405946E-05   1.660112E-04   9.725452E-06
   79 H68        -5.975267E-05  -3.818540E-04   1.963212E-04
   80 C69        -2.660081E-05  -3.417954E-05  -1.206773E-04
   81 H70        -5.161034E-05  -2.038961E-04  -1.145610E-04
   82 H71         4.207325E-04   3.131642E-05   1.639553E-04
   83 H72        -5.597162E-04  -3.268352E-04  -4.671648E-04
   84 H73        -1.886764E-04  -1.278521E-04  -4.962151E-04
   85 H74         2.296409E-04  -3.250203E-04  -2.786265E-04
   86 H75        -3.383079E-04   1.528275E-03   8.859944E-04
   87 H76        -4.335690E-04   4.192216E-04   4.114764E-04
   88 O3         -3.858187E-03   1.200186E-03  -3.329993E-03
   89 C105        1.808037E-03   3.075993E-03   2.993610E-04
   90 C106        2.322316E-02   2.007918E-02  -9.867982E-03
   91 C107       -5.710803E-04  -8.153153E-04   6.339656E-05
   92 C108       -2.271554E-04  -1.931716E-03   3.016959E-03
   93 H109       -1.010795E-04   8.902940E-05   4.056301E-04
   94 H110        1.954745E-03   2.730833E-04  -8.736987E-04
   95 H111        4.162233E-02   2.870701E-02  -1.206715E-02
   96 H112        6.268886E-05   1.259321E-04  -3.656816E-04
   97 H113       -3.500317E-04   4.364408E-04   2.287966E-04
   98 H114        7.753986E-03  -3.005264E-03   8.652206E-03
   99 H115        1.858310E-04  -2.151059E-04  -2.858949E-04
  100 H116        4.215366E-05  -1.255853E-04   1.394583E-04
  101 H117        6.055040E-05  -3.638553E-04  -8.156298E-05
 -------------   -------------  -------------  -------------
     total       -3.950848E-04   7.677004E-04  -1.786135E-03
   
  end of program der1b
   
 Time(der1b)  user:     314.434  user+sys:     314.434  wallclock:      26.253
  
  start of program geopt
  
 ----------------------------------------------------------------------------
  Geometry optimization step  1
  Total energy:     -2163.75875914376 hartrees
 ----------------------------------------------------------------------------
  
  
  Level shifts adjusted to satisfy step-size constraints
   Step size:    0.3000356
   Cos(theta):   0.2339085
   Final level shift:  -2.7800400E-01
  
  gradient maximum:        7.9760E-01 .  (  2.2500E-03 )
  gradient rms:            1.0932E-01 .  (  1.5000E-03 )
  displacement maximum:    7.5407E-02 .  (  9.0000E-03 )
  displacement rms:        8.0877E-03 .  (  6.0000E-03 )
  
  predicted energy change:  -5.3268E-02
  step size:     0.14490
  trust radius:  0.30000
  
  molecular structure not yet converged...
  
  center of mass moved by:
     x:     2.7351E-03     y:     2.0445E-02     z:     1.8227E-02
  
  new geometry: 
                                   angstroms
  atom               x                 y                 z
  P1           -0.0140823341      0.0377871414      0.0389890683 
  Pd2           0.0166298290      0.0601397953      2.3776893387 
  C73           4.7698238201     -0.1362526672      2.8177478977 
  C74           4.2004689669      1.0905558769      2.5131545183 
  C75           2.8134906861      1.1717536225      2.3612078099 
  C76           2.0114051422      0.0337890668      2.4854869028 
  C77           2.6150577798     -1.1838559225      2.8253108110 
  C78           3.9980550364     -1.2768187732      2.9890714294 
  F79           6.1092806257     -0.2227616975      2.9606668339 
  H80           4.8334825054      1.9683591209      2.4115628027 
  H82           2.0158102559     -2.0788959328      2.9678172369 
  H83           4.4778169860     -2.2182640974      3.2448086021 
  H14           2.3719917621      2.1435895307      2.1635732476 
  C3            0.4072739259      1.7708344303     -0.6795234213 
  C4            0.9649239555     -1.3191000012     -0.9077422697 
  C5           -1.7791044523     -0.2984323110     -0.4202455414 
  C6           -0.3102016339      2.1251102844     -1.9896339805 
  C7            1.9205162525      1.9041457625     -0.9013920748 
  C8            2.4643147270     -1.2653845776     -0.5711474412 
  C9            0.4186404790     -2.6569563349     -0.3940345320 
  C10          -2.1940284877     -0.3589705325     -1.7641423749 
  C11          -3.4971180778     -0.6836507775     -2.1227569917 
  C12          -4.4344305893     -0.9634024886     -1.1316355683 
  C13          -4.0475605873     -0.8894154363      0.1999679205 
  C14          -2.7374773056     -0.5510045855      0.5802799660 
  C15          -2.5383678623     -0.4802946936      2.0690447398 
  C16          -2.3387708552     -1.6909883846      2.7955720034 
  C17          -2.6710747709     -1.7438840927      4.1436245992 
  C18          -3.2096752600     -0.6495342600      4.8190413400 
  C19          -3.4023799225      0.5305109247      4.0990551657 
  C20          -3.0906650422      0.6419448594      2.7448773635 
  C21          -3.4724562146      1.9017489009      1.9825881113 
  C22          -4.9972039874      2.0248370429      1.8479057466 
  C23          -1.8778173163     -2.9588783305      2.1013212303 
  C24          -0.6758560608     -3.5936530784      2.8107663845 
  C25          -3.6396002131     -0.7712681535      6.2674809719 
  C26          -2.8775005425      3.1716146302      2.6014869885 
  C27          -3.0316513537     -3.9618659160      1.9583309184 
  C28          -2.5189665795     -1.3030928267      7.1696550755 
  C29          -4.8976391972     -1.6473180772      6.3754744579 
  H30          -0.0540906319      1.4555287460     -2.8160926926 
  H31          -1.3975369037      2.1385315761     -1.8735853748 
  H32           2.5048811211      1.5739118829     -0.0396650077 
  H33           2.2530654585      1.3501025371     -1.7852864396 
  H34           2.9756673959     -0.4123458293     -1.0240949952 
  H35           2.6480756341     -1.2410505788      0.5032239806 
  H36           0.5604084485     -2.7515669971      0.6873398141 
  H37          -0.6448794645     -2.7834407967     -0.6271553219 
  H38          -1.4905918006     -0.1441502551     -2.5568296026 
  H39          -3.7735155270     -0.7171469625     -3.1744430892 
  H40          -5.4579553493     -1.2255774136     -1.3903249943 
  H41          -4.7721039412     -1.0881731988      0.9862614718 
  H42          -2.5170238983     -2.6745721764      4.6835820954 
  H43          -3.8136534461      1.3940453676      4.6166521139 
  H44          -3.0679843092      1.8041438737      0.9689715659 
  H45          -5.4736943194      2.0815839690      2.8345644812 
  H46          -5.4179287646      1.1643870296      1.3163723587 
  H47          -5.2611711254      2.9331468437      1.2916953294 
  H48          -1.5617341683     -2.6792027534      1.0940187263 
  H49          -0.9573498876     -4.0289232078      3.7774304646 
  H50          -0.2483673178     -4.3986715160      2.1993245205 
  H51           0.0999703950     -2.8431050162      3.0012592303 
  H52          -3.9085932786      0.2360850080      6.6140254554 
  H53          -3.3577287600      3.4173503159      3.5560048851 
  H54          -3.0260544280      4.0278112499      1.9339653338 
  H55          -1.8083527369      3.0523306398      2.7840415251 
  H56          -3.4186849533     -4.2593156811      2.9410501984 
  H57          -2.6932075263     -4.8671703904      1.4379708455 
  H58          -3.8596335703     -3.5293580544      1.3863495456 
  H59          -2.2521162490     -2.3351232455      6.9083217274 
  H60          -2.8432959250     -1.3013070866      8.2176371715 
  H61          -1.6165501938     -0.6822879795      7.0648149013 
  H62          -4.6890081591     -2.6704311855      6.0391008879 
  H63          -5.7148731260     -1.2502468642      5.7608046667 
  H64          -5.2426399709     -1.7004711463      7.4156522982 
  C65           0.8266670021     -1.2822345395     -2.4372700778 
  H66           1.5120556114     -2.0285459865     -2.8609470100 
  H67          -0.1770036904     -1.5487381066     -2.7760948699 
  H68           1.1040279027     -0.3139997694     -2.8651396229 
  C69          -0.0365157115      2.7957123449      0.3737437663 
  H70           0.2478941036      3.8040615698      0.0426047941 
  H71          -1.1208130356      2.7863222771      0.5020526841 
  H72           0.4166553070      2.6144095706      1.3524978392 
  H73           0.0011654092      3.1361261215     -2.2866289295 
  H74           2.1536607003      2.9635923604     -1.0755295218 
  H75           2.9320395629     -2.1766910098     -0.9731688812 
  H76           0.9650792931     -3.4782699565     -0.8787261850 
  O3            0.0441856902     -0.0164797479      4.4119756516 
  C105          0.5992928317      0.9100413144      5.3111237799 
  C106         -0.2938157436      0.8986742929      6.5658766181 
  C107          2.0176019332      0.4967346189      5.7519016209 
  C108          0.6223685214      2.3441784104      4.7681743683 
  H109          0.1526048172      1.4843991366      7.3803134841 
  H110         -1.2760587862      1.3215412351      6.3384363606 
  H111         -0.4425250073     -0.1274023540      6.9096379495 
  H112          0.9610688937      3.0621336964      5.5276127204 
  H113          1.2935658668      2.4176425281      3.9066124914 
  H114         -0.3846896003      2.6259070086      4.4495514761 
  H115          2.3806460122      1.1314017053      6.5719680813 
  H116          2.0009296911     -0.5431795611      6.0979475989 
  H117          2.7304718447      0.5641569782      4.9284307358 
   
 
  bond lengths (angstroms):
 
 P1      -Pd2     :   2.339009      P1      -C3      :   1.922825
 P1      -C4      :   1.922471      P1      -C5      :   1.854520
 Pd2     -C76     :   1.997860      Pd2     -O3      :   2.035915
 C73     -C74     :   1.386363      C73     -C78     :   1.387757
 C73     -F79     :   1.349835      C74     -C75     :   1.397637
 C74     -H80     :   1.086998      C75     -C76     :   1.397766
 C75     -H14     :   1.085562      C76     -C77     :   1.400905
 C77     -C78     :   1.395758      C77     -H82     :   1.086509
[...]
    C13      Z    -0.00003  -0.00010   0.00102
    C14      X    -0.00001  -0.00002  -0.00052
    C14      Y    -0.00000  -0.00000  -0.00015
    C14      Z    -0.00002  -0.00002   0.00049
    C15      X     0.00007   0.00009   0.00005
    C15      Y     0.00002   0.00002   0.00002
    C15      Z    -0.00003  -0.00004   0.00004
    C16      X     0.00002   0.00000   0.00001
    C16      Y    -0.00004  -0.00006  -0.00002
    C16      Z     0.00001   0.00003  -0.00002
    C17      X     0.00011   0.00003   0.00000
    C17      Y    -0.00055  -0.00013  -0.00003
    C17      Z     0.00030   0.00005   0.00002
    C18      X    -0.00001   0.00000  -0.00000
    C18      Y     0.00001  -0.00000  -0.00000
    C18      Z     0.00003   0.00002   0.00001
    C19      X    -0.00004  -0.00002  -0.00001
    C19      Y     0.00010   0.00006   0.00002
    C19      Z     0.00004   0.00000   0.00001
    C20      X    -0.00001  -0.00001  -0.00001
    C20      Y     0.00004   0.00004   0.00002
    C20      Z     0.00003   0.00004  -0.00002
    C21      X     0.00000   0.00000  -0.00001
    C21      Y     0.00001   0.00000  -0.00000
    C21      Z    -0.00002  -0.00001   0.00001
    C22      X    -0.00000  -0.00001  -0.00002
    C22      Y     0.00003   0.00001  -0.00002
    C22      Z    -0.00001  -0.00000  -0.00002
    C23      X    -0.00000   0.00009  -0.00001
    C23      Y    -0.00001   0.00013  -0.00001
    C23      Z    -0.00001  -0.00014   0.00002
    C24      X    -0.00010   0.00107   0.00001
    C24      Y    -0.00014   0.00125  -0.00001
    C24      Z     0.00000  -0.00000  -0.00001
    C25      X     0.00000   0.00000   0.00000
    C25      Y     0.00001   0.00001   0.00000
    C25      Z     0.00001   0.00001   0.00001
    C26      X    -0.00008  -0.00001  -0.00001
    C26      Y     0.00004   0.00001   0.00002
    C26      Z    -0.00001   0.00000  -0.00001
    C27      X    -0.00001  -0.00001  -0.00002
    C27      Y    -0.00001  -0.00006   0.00000
    C27      Z    -0.00000  -0.00000  -0.00002
    C28      X    -0.00001   0.00001  -0.00000
    C28      Y    -0.00001   0.00000  -0.00000
    C28      Z     0.00001   0.00001   0.00001
    C29      X    -0.00001  -0.00000  -0.00000
    C29      Y     0.00000  -0.00001  -0.00000
    C29      Z     0.00002   0.00002   0.00001
    H30      X    -0.00007  -0.00003  -0.00365
    H30      Y     0.00023   0.00006   0.01342
    H30      Z     0.00025   0.00009   0.01363
    H31      X    -0.00243  -0.00010   0.00914
    H31      Y    -0.00007  -0.00000  -0.00123
    H31      Z     0.00018   0.00001  -0.00227
    H32      X    -0.03203  -0.00079   0.00041
    H32      Y     0.01495   0.00033  -0.00009
    H32      Z    -0.04490  -0.00132   0.00040
    H33      X     0.00579   0.00041  -0.00010
    H33      Y    -0.01009  -0.00063   0.00000
    H33      Z    -0.01549  -0.00078  -0.00005
    H34      X     0.01104   0.01227  -0.00032
    H34      Y     0.02202   0.02414  -0.00077
    H34      Z    -0.00784  -0.00896   0.00030
    H35      X    -0.00623  -0.00687   0.00040
    H35      Y     0.00217   0.00189  -0.00018
    H35      Z    -0.04936  -0.05226   0.00323
    H36      X     0.00003   0.00036   0.00032
    H36      Y     0.00008   0.00032  -0.00021
    H36      Z    -0.00053  -0.00168   0.00167
    H37      X    -0.00030  -0.00152   0.00174
    H37      Y    -0.00008  -0.00016   0.00032
    H37      Z    -0.00009  -0.00072   0.00005
    H38      X     0.00015   0.00004  -0.61176
    H38      Y     0.00005  -0.00001  -0.20753
    H38      Z    -0.00015  -0.00002   0.68935
    H39      X     0.00026   0.00005   0.03134
    H39      Y     0.00005   0.00001   0.00630
    H39      Z     0.00097   0.00018   0.10489
    H40      X     0.00103  -0.00012   0.01292
    H40      Y     0.00031  -0.00003   0.00389
    H40      Z     0.00025  -0.00003   0.00206
    H41      X    -0.00048  -0.00117   0.00786
    H41      Y    -0.00014  -0.00036   0.00242
    H41      Z     0.00048   0.00128  -0.00900
    H42      X    -0.00125  -0.00024  -0.00008
    H42      Y     0.00631   0.00146   0.00044
    H42      Z    -0.00359  -0.00080  -0.00030
    H43      X     0.00047   0.00023   0.00013
    H43      Y    -0.00106  -0.00052  -0.00028
    H43      Z    -0.00066  -0.00033  -0.00022
    H44      X    -0.00007  -0.00003   0.00006
    H44      Y    -0.00001  -0.00002   0.00005
    H44      Z     0.00016   0.00006  -0.00017
    H45      X    -0.00002   0.00000   0.00001
    H45      Y     0.00002   0.00001   0.00002
    H45      Z     0.00002  -0.00001   0.00003
    H46      X    -0.00007  -0.00002   0.00020
    H46      Y    -0.00010  -0.00001   0.00036
    H46      Z    -0.00008  -0.00002   0.00022
    H47      X     0.00012   0.00006   0.00006
    H47      Y    -0.00030  -0.00015  -0.00011
    H47      Z     0.00018   0.00009   0.00007
    H48      X    -0.00003  -0.00042   0.00012
    H48      Y    -0.00000  -0.00053   0.00002
    H48      Z     0.00007   0.00174  -0.00028
    H49      X     0.00012  -0.00063  -0.00002
    H49      Y     0.00017  -0.00112   0.00000
    H49      Z    -0.00053   0.00386  -0.00002
    H50      X    -0.00022   0.00149  -0.00009
    H50      Y     0.00041  -0.00119   0.00025
    H50      Z     0.00031  -0.00134   0.00016
    H51      X     0.00146  -0.01796  -0.00001
    H51      Y     0.00123  -0.01495  -0.00004
    H51      Z     0.00028  -0.00392  -0.00002
    H52      X    -0.00002  -0.00002  -0.00001
    H52      Y    -0.00015  -0.00010  -0.00003
    H52      Z    -0.00011  -0.00008  -0.00003
    H53      X     0.00009   0.00003   0.00001
    H53      Y    -0.00001  -0.00000  -0.00002
    H53      Z    -0.00022  -0.00007  -0.00007
    H54      X     0.00007   0.00001   0.00005
    H54      Y    -0.00040  -0.00010  -0.00023
    H54      Z     0.00025   0.00006   0.00014
    H55      X     0.00096   0.00013   0.00010
    H55      Y    -0.00004  -0.00000   0.00001
    H55      Z     0.00015   0.00002   0.00001
    H56      X     0.00002  -0.00001   0.00002
    H56      Y     0.00002  -0.00000  -0.00001
    H56      Z    -0.00006  -0.00007   0.00002
    H57      X    -0.00003  -0.00015  -0.00001
    H57      Y     0.00015   0.00043   0.00014
    H57      Z     0.00008   0.00023   0.00008
    H58      X     0.00009   0.00009   0.00031
    H58      Y    -0.00005   0.00002  -0.00015
    H58      Z     0.00004  -0.00002   0.00018
    H59      X     0.00002  -0.00001   0.00000
    H59      Y     0.00013  -0.00001   0.00002
    H59      Z     0.00007   0.00001   0.00002
    H60      X     0.00003   0.00002   0.00002
    H60      Y    -0.00000  -0.00000  -0.00001
    H60      Z    -0.00022  -0.00015  -0.00013
    H61      X     0.00008  -0.00009   0.00004
    H61      Y     0.00002  -0.00002  -0.00000
    H61      Z     0.00001   0.00002   0.00001
    H62      X    -0.00001  -0.00001   0.00000
    H62      Y    -0.00002  -0.00001   0.00001
    H62      Z     0.00000   0.00001   0.00002
    H63      X    -0.00002  -0.00008  -0.00001
    H63      Y     0.00001   0.00009   0.00000
    H63      Z     0.00001  -0.00005   0.00001
    H64      X     0.00011   0.00010   0.00006
    H64      Y     0.00001   0.00000   0.00000
    H64      Z    -0.00029  -0.00026  -0.00014
    C65      X     0.00006   0.00001  -0.00474
    C65      Y     0.00011  -0.00002  -0.00289
    C65      Z    -0.00002  -0.00000  -0.00118
    H66      X     0.00004  -0.00010   0.00434
    H66      Y    -0.00010   0.00001  -0.00401
    H66      Z    -0.00005   0.00002  -0.00199
    H67      X    -0.00085  -0.00029   0.06218
    H67      Y    -0.00025  -0.00010   0.01162
    H67      Z    -0.00036  -0.00017   0.02266
    H68      X    -0.00018   0.00009   0.00444
    H68      Y    -0.00079   0.00047   0.01881
    H68      Z     0.00033  -0.00027  -0.00694
    C69      X     0.00002  -0.00000  -0.00009
    C69      Y     0.00002  -0.00002   0.00007
    C69      Z    -0.00000   0.00002  -0.00009
    H70      X     0.00000   0.00005  -0.00013
    H70      Y    -0.00062   0.00024  -0.00054
    H70      Z     0.00033  -0.00005   0.00020
    H71      X    -0.00054   0.00014   0.00067
    H71      Y     0.00007   0.00000   0.00008
    H71      Z     0.00013   0.00002  -0.00016
    H72      X    -0.00116  -0.00026   0.00057
    H72      Y     0.00002   0.00008  -0.00024
    H72      Z    -0.00052  -0.00026   0.00097
    H73      X    -0.00005  -0.00000   0.00274
    H73      Y    -0.00040   0.00003   0.00619
    H73      Z     0.00014  -0.00002  -0.00116
    H74      X     0.00149   0.00005  -0.00022
    H74      Y     0.00903   0.00002  -0.00037
    H74      Z    -0.00076   0.00003   0.00005
    H75      X     0.00186   0.00134  -0.00038
    H75      Y    -0.00405  -0.00302   0.00049
    H75      Z    -0.00110  -0.00050   0.00021
    H76      X    -0.00003  -0.00006  -0.00049
    H76      Y     0.00007   0.00022   0.00048
    H76      Z     0.00009   0.00017   0.00017
    O3       X    -0.00006  -0.00005   0.00001
    O3       Y    -0.00008   0.00007  -0.00000
    O3       Z    -0.00006   0.00000  -0.00002
    C105     X     0.00006  -0.00000   0.00001
    C105     Y     0.00017  -0.00002   0.00002
    C105     Z     0.00004  -0.00002   0.00002
    C106     X     0.00002   0.00001   0.00001
    C106     Y     0.00017  -0.00005   0.00001
    C106     Z    -0.00003   0.00003   0.00001
    C107     X     0.00047   0.00023   0.00000
    C107     Y     0.00027  -0.00037   0.00001
    C107     Z    -0.00050  -0.00033   0.00001
    C108     X     0.00139  -0.00001   0.00001
    C108     Y    -0.00041   0.00002   0.00001
    C108     Z    -0.00098   0.00004   0.00001
    H109     X    -0.00029   0.00004  -0.00007
    H109     Y    -0.00068   0.00001  -0.00016
    H109     Z    -0.00087   0.00004  -0.00019
    H110     X     0.00030  -0.00039  -0.00004
    H110     Y    -0.00004   0.00016   0.00003
    H110     Z     0.00010  -0.00015  -0.00000
    H111     X    -0.00049   0.00013  -0.00000
    H111     Y    -0.00207   0.00049  -0.00001
    H111     Z     0.00121  -0.00025   0.00002
    H112     X     0.00070  -0.00011  -0.00007
    H112     Y     0.00079  -0.00030  -0.00014
    H112     Z     0.00095  -0.00028  -0.00012
    H113     X    -0.01059   0.00015  -0.00001
    H113     Y     0.00069   0.00005   0.00001
    H113     Z     0.01370  -0.00017   0.00003
    H114     X    -0.00730  -0.00014  -0.00004
    H114     Y     0.00269   0.00011   0.00003
    H114     Z    -0.00240  -0.00009  -0.00001
    H115     X    -0.00014   0.00063  -0.00007
    H115     Y    -0.00046   0.00123  -0.00009
    H115     Z    -0.00092   0.00114  -0.00014
    H116     X    -0.00033   0.00068   0.00001
    H116     Y    -0.00337   0.00331  -0.00000
    H116     Z     0.00121  -0.00169   0.00001
    H117     X    -0.00543  -0.00418  -0.00001
    H117     Y     0.00035   0.00005   0.00001
    H117     Z     0.00602   0.00476   0.00001
  
  Number of imaginary frequencies:   0
   
  Writing vibrational animation data to L_Ar_OtBu_PL274.vib
  Writing IR vibrational spectrum data to L_Ar_OtBu_PL274_vib.spm
  rotational symmetry number:  1

  rotational temperatures (K):      0.004255      0.003782      0.002804
   
  The Quasi-Harmonic approximation will be applied to compute
  vibrational constributions to thermodynamic properties.
  Frequencies will be adjusted to a minimum value of  100.00 cm^-1.

  vibrational temperatures:
       mode:      1        2        3        4        5        6
  temp. (K):   143.88   143.88   143.88   143.88   143.88   143.88
   
       mode:      7        8        9       10       11       12
  temp. (K):   143.88   143.88   143.88   143.88   143.88   143.88
   
       mode:     13       14       15       16       17       18
  temp. (K):   143.88   143.88   145.64   151.14   159.71   165.63
   
       mode:     19       20       21       22       23       24
  temp. (K):   175.31   193.04   199.89   205.55   212.35   222.50
   
       mode:     25       26       27       28       29       30
  temp. (K):   226.10   245.42   262.33   270.22   271.87   281.51
   
       mode:     31       32       33       34       35       36
  temp. (K):   295.38   317.24   325.98   337.64   348.87   351.38
   
       mode:     37       38       39       40       41       42
  temp. (K):   359.85   363.82   366.11   367.95   377.68   387.75
   
       mode:     43       44       45       46       47       48
  temp. (K):   388.12   396.81   402.74   408.25   414.67   420.18
   
       mode:     49       50       51       52       53       54
  temp. (K):   430.88   433.97   437.20   447.90   461.90   471.18
   
       mode:     55       56       57       58       59       60
  temp. (K):   479.71   489.83   496.86   506.20   509.01   526.82
   
       mode:     61       62       63       64       65       66
  temp. (K):   531.75   536.85   553.49   554.49   569.66   577.09
   
       mode:     67       68       69       70       71       72
  temp. (K):   588.51   595.66   600.79   603.10   622.56   631.97
   
       mode:     73       74       75       76       77       78
  temp. (K):   653.22   670.45   690.28   694.64   699.34   722.12
   
       mode:     79       80       81       82       83       84
  temp. (K):   741.93   750.96   759.42   772.09   815.52   831.86
   
       mode:     85       86       87       88       89       90
  temp. (K):   838.67   843.57   851.99   876.57   881.63   912.32
   
       mode:     91       92       93       94       95       96
  temp. (K):   916.54   939.66   952.20   983.13  1022.04  1077.44
   
       mode:     97       98       99      100      101      102
  temp. (K):  1113.52  1117.91  1125.98  1151.32  1179.68  1200.66
   
       mode:    103      104      105      106      107      108
  temp. (K):  1204.07  1204.68  1211.56  1216.66  1244.28  1297.61
   
       mode:    109      110      111      112      113      114
  temp. (K):  1306.69  1310.23  1314.66  1322.84  1328.34  1353.49
   
       mode:    115      116      117      118      119      120
  temp. (K):  1365.38  1368.62  1371.25  1378.29  1379.02  1381.57
   
       mode:    121      122      123      124      125      126
  temp. (K):  1382.71  1390.61  1391.98  1401.81  1403.39  1412.07
   
       mode:    127      128      129      130      131      132
  temp. (K):  1413.67  1418.04  1420.05  1420.47  1423.67  1443.75
   
       mode:    133      134      135      136      137      138
  temp. (K):  1471.71  1476.06  1480.60  1505.12  1511.53  1514.84
   
       mode:    139      140      141      142      143      144
  temp. (K):  1516.02  1520.41  1522.44  1539.44  1560.24  1576.38
   
       mode:    145      146      147      148      149      150
  temp. (K):  1592.45  1597.91  1619.87  1639.30  1643.24  1647.99
   
       mode:    151      152      153      154      155      156
  temp. (K):  1653.01  1673.31  1683.41  1720.45  1720.96  1740.28
   
       mode:    157      158      159      160      161      162
  temp. (K):  1740.95  1741.58  1749.13  1767.08  1775.02  1780.39
   
       mode:    163      164      165      166      167      168
  temp. (K):  1786.08  1791.57  1801.69  1803.75  1815.03  1828.53
   
       mode:    169      170      171      172      173      174
  temp. (K):  1844.07  1865.83  1869.22  1886.29  1897.11  1917.45
   
       mode:    175      176      177      178      179      180
  temp. (K):  1931.62  1934.92  1948.91  1952.51  1953.75  1975.19
   
       mode:    181      182      183      184      185      186
  temp. (K):  2000.47  2013.50  2020.64  2028.43  2044.91  2045.95
   
       mode:    187      188      189      190      191      192
  temp. (K):  2047.53  2050.04  2051.78  2053.96  2055.33  2056.31
   
       mode:    193      194      195      196      197      198
  temp. (K):  2057.72  2075.40  2076.46  2079.21  2094.97  2107.00
   
       mode:    199      200      201      202      203      204
  temp. (K):  2118.14  2140.52  2153.33  2156.39  2157.63  2163.14
   
       mode:    205      206      207      208      209      210
  temp. (K):  2166.14  2168.34  2174.22  2174.85  2178.35  2180.90
   
       mode:    211      212      213      214      215      216
  temp. (K):  2181.88  2182.32  2183.69  2184.25  2188.09  2190.09
   
       mode:    217      218      219      220      221      222
  temp. (K):  2192.49  2194.55  2195.37  2197.25  2201.01  2203.45
   
       mode:    223      224      225      226      227      228
  temp. (K):  2205.44  2206.26  2207.38  2210.57  2212.31  2218.07
   
       mode:    229      230      231      232      233      234
  temp. (K):  2220.57  2221.32  2224.13  2237.18  2243.13  2323.54
   
       mode:    235      236      237      238      239      240
  temp. (K):  2343.35  2364.67  2377.81  2382.55  2414.05  4367.79
   
       mode:    241      242      243      244      245      246
  temp. (K):  4372.08  4372.86  4381.87  4382.56  4382.72  4383.39
   
       mode:    247      248      249      250      251      252
  temp. (K):  4384.23  4386.66  4387.81  4394.23  4395.01  4395.36
   
       mode:    253      254      255      256      257      258
  temp. (K):  4396.29  4397.89  4398.43  4425.55  4472.46  4477.93
   
       mode:    259      260      261      262      263      264
  temp. (K):  4482.95  4483.97  4487.73  4487.73  4488.34  4491.33
   
       mode:    265      266      267      268      269      270
  temp. (K):  4491.96  4496.70  4497.16  4498.07  4500.11  4504.44
   
       mode:    271      272      273      274      275      276
  temp. (K):  4509.16  4509.28  4512.28  4520.22  4529.61  4539.18
   
       mode:    277      278      279      280      281      282
  temp. (K):  4545.36  4546.03  4548.16  4551.73  4554.85  4557.59
   
       mode:    283      284      285      286      287      288
  temp. (K):  4558.24  4562.85  4570.98  4575.54  4584.82  4592.20
   
       mode:    289      290      291      292      293      294
  temp. (K):  4608.33  4608.77  4616.47  4627.54  4628.15  4628.37
   
       mode:    295      296      297
  temp. (K):  4631.52  4645.58  4706.36
   
   
  Thermodynamic properties calculated assuming an ideal gas

  In the table below, the units for temperature
  are kelvins, the units for U, H, and G are
  kcal/mol and the units for Cv and S are cal/(mol K)

  The zero point energy (ZPE):    559.673 kcal/mol
  is not included in U, H, or G in the table below
  
 
  =============================================================================
  Thermodynamic properties for P = 1.00E+00 atm, calculated at   1 temperatures


  T =   298.15 K, P = 1.00E+00 atm
   
                  U         Cv          S          H          G        ln(Q)
              =========  =========  =========  =========  =========  =========
  trans.          0.889      2.981     45.511      1.481    -12.088   20.40215
  rot.            0.889      2.981     37.907      0.889    -10.413   17.57572
  vib.           28.233    184.770    169.828     28.233    -22.402   37.80944
  elec.           0.000      0.000      0.000      0.000      0.000    0.00000
  ----------------------------------------------------------------------------
  total          30.010    190.732    253.247     30.603    -44.903   75.78731
   
   Total internal energy, Utot(SCFE + ZPE + U):   -2162.878514 hartrees
   Total enthalpy, Htot (Utot + nRT), with n=1:   -2162.877570 hartrees
    Total Gibbs free energy, Gtot (Htot - T*S):   -2162.997896 hartrees
   
  end of program freq
   
 Time(freq)  user:       1.120  user+sys:       1.120  wallclock:       0.624
  
  start of program post
  
  Writing input files for PBF
  end of program post
   
 Time(post)  user:       0.296  user+sys:       0.296  wallclock:       0.117

 Total cpu seconds     user:  177351.428   user+sys:  177351.428
  
 Total elapsed time:    21113 seconds

Job L_Ar_OtBu_PL274 completed on bp1-compute081 at Tue Dec  2 14:04:05 2025
