Job ox_add_Br_trans_L1_PL274 started on bp1-compute174.data.bp.acrc.priv at Mon Mar 18 17:46:55 2024
jobid: bp1-compute174-1-65f87e07

  +--------------------------------------------------------------------+
  |  Jaguar version 11.4, release 135                                  |
  |                                                                    |
  |  Copyright Schrodinger, Inc.                                       |
  |  All Rights Reserved.                                              |
  |                                                                    |
  |  The following have contributed to Jaguar (listed alphabetically): |
  |  Mike Beachy, Art Bochevarov, Dale Braden, Yixiang Cao,            |
  |  Alan Chien, Chris Cortis, Rich Friesner, Bill Goddard,            |
  |  Hod Greeley, Tom Hughes, Leif Jacobson, Jean-Marc Langlois,       |
  |  Daniel Levine, Daniel Mainz, Rob Murphy, Dean Philipp,            |
  |  Tom Pollard, Murco Ringnalda, Mark Watson, Haoyu Yu.              |
  |                                                                    |
  |  Use of this program should be acknowledged in publications as:    |
  |                                                                    |
  |  Jaguar, version 11.4, Schrodinger, Inc., New York, NY, 2021.      |
  |                                                                    |
  |  A. D. Bochevarov, E. Harder, T. F. Hughes, J. R. Greenwood,       |
  |  D. A. Braden, D. M. Philipp, D. Rinaldo, M. D. Halls,             |
  |  J. Zhang, R. A. Friesner, "Jaguar: A High-Performance Quantum     |
  |  Chemistry Software Program with Strengths in Life and Materials   |
  |  Sciences", Int. J. Quantum Chem., 2013, 113(18), 2110-2142.       |
  +--------------------------------------------------------------------+
  
  start of program pre
  
  Job name: ox_add_Br_trans_L1_PL274
  Executables used: /sw/apps/schrodinger2021-4/jaguar-v11.4/bin/Linux-x86_64
  Temporary files : /tmp/ar21627/ox_add_Br_trans_L1_PL274
  Maestro file (input):  ox_add_Br_trans_L1_PL274.mae
  Maestro file (output): ox_add_Br_trans_L1_PL274.01.mae
  
 Contents of input file: &gen section only
 ----------------Contents start----------------
&gen
dftname=b3pw91-d3
basis=6-31G*
numd=5
ip11=2
iaccg=3
isolv=2
igeopt=1
solvent=benzene
ifreq=1
&
 -----------------Contents end-----------------
 
  basis set:             non_standard                    
  net molecular charge:    0
  multiplicity:            1
  
  This run will use ECP on            2  atoms
  number of basis functions....          660
  
 Input geometry:
                                   angstroms
  atom               x                 y                 z
  P1            0.0000000000      0.0000000000      0.0000000000 
  Pd2           0.0000000000      0.0000000000      2.3939100518 
  Br3           2.4356423847      0.0000000000      2.9438771575 
  C73          -1.3099704604     -0.1220839423      6.9743739903 
  C74          -1.0539546789      1.1086735116      6.3855515605 
  C75          -0.5609059573      1.1340261808      5.0773016488 
  C76          -0.3472548240     -0.0530180702      4.3631094256 
  C77          -0.5915658045     -1.2748482943      5.0022370772 
  C78          -1.0813195377     -1.3194478731      6.3101427576 
  F79          -1.7900114769     -0.1569033664      8.2397291806 
  H80          -1.2304428206      2.0212751892      6.9491590222 
  H81          -0.3433660729      2.0960382521      4.6160493344 
  H82          -0.4023638020     -2.2111601822      4.4813268881 
  H83          -1.2800057517     -2.2609324443      6.8166244065 
  C3            1.7831463244      0.0000000000     -0.8473727461 
  C4           -0.9886469542     -1.5695736595     -0.6867421696 
  C5           -0.7901183997      1.5049379058     -0.8479766882 
  C6            1.8652236082      0.0548153147     -2.3939977476 
  C7            2.5239751135     -1.2700843094     -0.3645010905 
  C8           -0.7983231708     -2.6816138379      0.3763485688 
  C9           -2.4878216583     -1.2112625211     -0.8064495247 
  C10          -0.8892394008      1.4114160136     -2.2607084982 
  C11          -1.2546226733      2.4840588565     -3.0851574536 
  C12          -1.5207952457      3.7270633661     -2.4988050521 
  C13          -1.4998965492      3.8273578633     -1.1029466553 
  C14          -1.1937791729      2.7411469086     -0.2403429206 
  C15          -1.4955600723      3.0253394478      1.2179072042 
  C16          -2.8573804410      2.9258007927      1.6427194187 
  C17          -3.1835632123      3.2671285981      2.9669664830 
  C18          -2.2184617792      3.7066195558      3.8875966319 
  C19          -0.9059156283      3.8714990162      3.4252879495 
  C20          -0.5242988337      3.5606149275      2.1076927210 
  C21           0.8903072400      3.9069269557      1.6394151962 
  C22           0.9383018438      5.3645307443      1.1161004170 
  C23          -3.9942841535      2.5263893501      0.6865304301 
  C24          -5.0420068080      1.5792654208      1.3115151138 
  C25          -2.5643922096      3.9623566972      5.3522129059 
  C26           1.9790472741      3.6993159789      2.7112369243 
  C27          -4.7121107901      3.7857371286      0.1384320570 
  C28          -2.9590991633      2.6441334860      6.0577614421 
  C29          -3.6562524435      5.0419270943      5.5212642682 
  H30           1.3657093114     -0.7799130754     -2.9078132675 
  H31           1.4803630968      1.0048275598     -2.7998800482 
  H32           2.5173147849     -1.3496627875      0.7346946624 
  H33           2.1017488047     -2.1910767731     -0.8041808148 
  H34           0.2645501696     -2.9543819690      0.5016635869 
  H35          -1.1954620983     -2.3739848413      1.3566866633 
  H36          -2.8745272637     -0.7967271580      0.1378559733 
  H37          -2.6761453324     -0.4931763301     -1.6243074748 
  H38          -0.6668554910      0.4562132947     -2.7391918417 
  H39          -1.3132346546      2.3437192186     -4.1713334739 
  H40          -1.7763881926      4.5999501479     -3.1116595861 
  H41          -1.7717165211      4.7780348876     -0.6311032179 
  H42          -4.2228968831      3.1519016141      3.2973832778 
  H43          -0.1458421643      4.2343620195      4.1269936111 
  H44           1.1276614546      3.2434762284      0.7909457083 
  H45           0.6687945106      6.0742005961      1.9214661099 
  H46           0.2397811224      5.5249556070      0.2757633575 
  H47           1.9575479326      5.6181635074      0.7655036563 
  H48          -3.5450204230      1.9943108666     -0.1710626328 
  H49          -5.6529166403      2.0898430086      2.0802255420 
  H50          -5.7393517058      1.2241094154      0.5284041644 
  H51          -4.5530067634      0.7093391717      1.7781370610 
  H52          -1.6429003120      4.3395922896      5.8404978839 
  H53           1.8882160219      4.4345826098      3.5337800204 
  H54           2.9783958680      3.8431453967      2.2586305933 
  H55           1.9404016142      2.6824878981      3.1362898761 
  H56          -5.1559012677      4.3676159368      0.9685996882 
  H57          -5.5306303802      3.4995242068     -0.5507058279 
  H58          -4.0239116191      4.4517581053     -0.4098786963 
  H59          -3.9048202190      2.2454047989      5.6452470654 
  H60          -3.1042172200      2.8097039111      7.1433702254 
  H61          -2.1833050044      1.8725387701      5.9080647365 
  H62          -4.6088031266      4.7234831349      5.0576118387 
  H63          -3.3573436749      5.9970890541      5.0511848065 
  H64          -3.8569602758      5.2325977594      6.5931467838 
  C65          -0.5441708763     -2.1598303215     -2.0464615814 
  H66          -1.1856029942     -3.0417664424     -2.2477001319 
  H67          -0.6839976165     -1.4712621932     -2.8981229103 
  H68           0.4993445642     -2.5142764624     -2.0464974490 
  C69           2.5160792963      1.2658499196     -0.3495850975 
  H70           3.5592243218      1.2394134262     -0.7263030562 
  H71           2.0423449106      2.1774381524     -0.7572142958 
  H72           2.5500876307      1.3151497824      0.7482272982 
  H73           2.9402802330      0.0025088778     -2.6612312077 
  H74           3.5817627609     -1.2058906194     -0.6913890209 
  H75          -1.3445468212     -3.5877674888      0.0425532017 
  H76          -3.0522249256     -2.1385459761     -1.0343750224 
   
  principal moments of inertia:
        amu*angstrom^2:     5452.19628     6933.70576     8864.10457
                g*cm^2: 9.05358379E-37 1.15136879E-36 1.47191901E-36
   
  rotational constants:
               cm^(-1):      0.00309190      0.00243126      0.00190179
                   GHz:      0.09269274      0.07288729      0.05701411
   
  Molecular weight:     704.18 amu
   
  Stoichiometry: PdC35PH49BrF
  Molecular Point Group: C1      
  Point Group used: C1
  
 
Number of optimization coordinates:   283
Number of independent coordinates:    283
Number of non-redundant coordinates:  258
Number of frozen coordinates:           0
Number of harmonic constraints:         0
 
Number of geometric degrees of freedom:   258
Maximum geometric degrees of freedom:     258
 " " " " " excluding dummy atoms:         258
 
 
  bond lengths (angstroms):
 
 P1      -Pd2     :   2.393910      P1      -C3      :   1.974247
 P1      -C4      :   1.978029      P1      -C5      :   1.899524
 Pd2     -Br3     :   2.496962      Pd2     -C76     :   2.000286
 C73     -C74     :   1.388171      C73     -C78     :   1.388224
 C73     -F79     :   1.353800      C74     -C75     :   1.398305
 C74     -H80     :   1.087034      C75     -C76     :   1.401710
 C75     -H81     :   1.088827      C76     -C77     :   1.400372
 C77     -C78     :   1.397306      C77     -H82     :   1.088037
 C78     -H83     :   1.087379      C3      -C6      :   1.549771
 C3      -C7      :   1.547613      C3      -C69     :   1.545108
 C4      -C8      :   1.550167      C4      -C9      :   1.546041
 C4      -C65     :   1.547514      C5      -C10     :   1.419289
 C5      -C14     :   1.435400      C6      -H30     :   1.100133
 C6      -H31     :   1.102443      C6      -H73     :   1.109007
 C7      -H32     :   1.102093      C7      -H33     :   1.104455
 C7      -H74     :   1.109005      C8      -H34     :   1.104448
 C8      -H35     :   1.101552      C8      -H75     :   1.109457
 C9      -H36     :   1.101405      C9      -H37     :   1.104538
 C9      -H76     :   1.109214      C10     -C11     :   1.401351
 C10     -H38     :   1.091244      C11     -C12     :   1.399899
 C11     -H39     :   1.096772      C12     -C13     :   1.399613
 C12     -H40     :   1.096745      C13     -C14     :   1.420439
 C13     -H41     :   1.095586      C14     -C15     :   1.516025
 C15     -C16     :   1.430010      C15     -C20     :   1.421825
 C16     -C17     :   1.405891      C16     -C23     :   1.538303
 C17     -C18     :   1.404327      C17     -H42     :   1.096662
 C18     -C19     :   1.401318      C18     -C25     :   1.526489
 C19     -C20     :   1.406534      C19     -H43     :   1.096254
 C20     -C21     :   1.529812      C21     -C22     :   1.549442
 C21     -C26     :   1.541836      C21     -H44     :   1.102907
 C22     -H45     :   1.106743      C22     -H46     :   1.104461
 C22     -H47     :   1.107299      C23     -C24     :   1.544465
 C23     -C27     :   1.549724      C23     -H48     :   1.104722
 C24     -H49     :   1.106714      C24     -H50     :   1.107108
 C24     -H51     :   1.101648      C25     -C28     :   1.546384
 C25     -C29     :   1.544736      C25     -H52     :   1.108998
 C26     -H53     :   1.106998      C26     -H54     :   1.106452
 C26     -H55     :   1.102771      C27     -H56     :   1.106667
 C27     -H57     :   1.107611      C27     -H58     :   1.103561
 C28     -H59     :   1.106138      C28     -H60     :   1.107709
 C28     -H61     :   1.104366      C29     -H62     :   1.106225
 C29     -H63     :   1.105738      C29     -H64     :   1.107055
 C65     -H66     :   1.108938      C65     -H67     :   1.104085
 C65     -H68     :   1.102069      C69     -H70     :   1.109399
 C69     -H71     :   1.105251      C69     -H72     :   1.099445
 
  bond angles:
 
 C3      -P1      -Pd2     : 115.417634  C4      -P1      -Pd2     : 110.315238
 C4      -P1      -C3      : 107.602855  C5      -P1      -Pd2     : 116.513936
 C5      -P1      -C3      : 100.607821  C5      -P1      -C4      : 105.413350
 Br3     -Pd2     -P1      : 102.723983  C76     -Pd2     -P1      : 169.885589
 C76     -Pd2     -Br3     :  87.277873  C78     -C73     -C74     : 122.098525
 F79     -C73     -C74     : 118.990092  F79     -C73     -C78     : 118.910051
 C75     -C74     -C73     : 118.552117  H80     -C74     -C73     : 119.634489
 H80     -C74     -C75     : 121.810823  C76     -C75     -C74     : 121.003524
 H81     -C75     -C74     : 118.868929  H81     -C75     -C76     : 120.127545
 C75     -C76     -Pd2     : 120.371939  C77     -C76     -Pd2     : 120.180024
 C77     -C76     -C75     : 118.669095  C78     -C77     -C76     : 121.077373
 H82     -C77     -C76     : 120.131815  H82     -C77     -C78     : 118.790726
 C77     -C78     -C73     : 118.558919  H83     -C78     -C73     : 119.592635
 H83     -C78     -C77     : 121.847482  C6      -C3      -P1      : 118.435966
 C7      -C3      -P1      : 107.363714  C7      -C3      -C6      : 108.363978
 C69     -C3      -P1      : 106.867607  C69     -C3      -C6      : 105.510586
 C69     -C3      -C7      : 110.166900  C8      -C4      -P1      : 105.650726
 C9      -C4      -P1      : 109.125727  C9      -C4      -C8      : 109.780136
 C65     -C4      -P1      : 117.655696  C65     -C4      -C8      : 107.078681
 C65     -C4      -C9      : 107.390303  C10     -C5      -P1      : 114.910189
 C14     -C5      -P1      : 127.613023  C14     -C5      -C10     : 117.288667
 H30     -C6      -C3      : 114.532958  H31     -C6      -C3      : 112.297122
 H31     -C6      -H30     : 108.867652  H73     -C6      -C3      : 106.866856
 H73     -C6      -H30     : 106.966915  H73     -C6      -H31     : 106.878241
 H32     -C7      -C3      : 111.564943  H33     -C7      -C3      : 112.156573
 H33     -C7      -H32     : 109.543807  H74     -C7      -C3      : 108.488385
 H74     -C7      -H32     : 107.693622  H74     -C7      -H33     : 107.191431
 H34     -C8      -C4      : 111.909222  H35     -C8      -C4      : 111.452173
 H35     -C8      -H34     : 108.357701  H75     -C8      -C4      : 108.610725
 H75     -C8      -H34     : 107.831746  H75     -C8      -H35     : 108.563238
 H36     -C9      -C4      : 111.180188  H37     -C9      -C4      : 111.921524
 H37     -C9      -H36     : 109.286245  H76     -C9      -C4      : 108.395216
 H76     -C9      -H36     : 108.189506  H76     -C9      -H37     : 107.733199
 C11     -C10     -C5      : 123.599104  H38     -C10     -C5      : 118.678591
 H38     -C10     -C11     : 117.721925  C12     -C11     -C10     : 118.868590
 H39     -C11     -C10     : 119.909520  H39     -C11     -C12     : 121.215735
 C13     -C12     -C11     : 118.588670  H40     -C12     -C11     : 121.127678
 H40     -C12     -C13     : 120.247906  C14     -C13     -C12     : 123.646751
 H41     -C13     -C12     : 119.209043  H41     -C13     -C14     : 117.096095
 C13     -C14     -C5      : 117.523625  C15     -C14     -C5      : 128.653754
 C15     -C14     -C13     : 113.446166  C16     -C15     -C14     : 117.533585
 C20     -C15     -C14     : 122.449022  C20     -C15     -C16     : 119.395310
 C17     -C16     -C15     : 118.938223  C23     -C16     -C15     : 122.495958
 C23     -C16     -C17     : 118.493284  C18     -C17     -C16     : 122.278192
 H42     -C17     -C16     : 118.565936  H42     -C17     -C18     : 119.122180
 C19     -C18     -C17     : 117.661255  C25     -C18     -C17     : 121.714388
 C25     -C18     -C19     : 120.603101  C20     -C19     -C18     : 122.491344
 H43     -C19     -C18     : 118.501880  H43     -C19     -C20     : 118.990609
 C19     -C20     -C15     : 118.953890  C21     -C20     -C15     : 121.690431
 C21     -C20     -C19     : 119.182645  C22     -C21     -C20     : 110.180843
 C26     -C21     -C20     : 114.184988  C26     -C21     -C22     : 109.851523
 H44     -C21     -C20     : 107.356126  H44     -C21     -C22     : 107.421500
 H44     -C21     -C26     : 107.567152  H45     -C22     -C21     : 110.481288
 H46     -C22     -C21     : 111.964181  H46     -C22     -H45     : 107.849514
 H47     -C22     -C21     : 110.544137  H47     -C22     -H45     : 107.919333
 H47     -C22     -H46     : 107.937853  C24     -C23     -C16     : 114.145295
 C27     -C23     -C16     : 110.559343  C27     -C23     -C24     : 109.100865
 H48     -C23     -C16     : 107.880461  H48     -C23     -C24     : 107.136859
 H48     -C23     -C27     : 107.770660  H49     -C24     -C23     : 111.877424
 H50     -C24     -C23     : 109.741743  H50     -C24     -H49     : 106.954839
 H51     -C24     -C23     : 110.764840  H51     -C24     -H49     : 108.368321
 H51     -C24     -H50     : 109.018969  C28     -C25     -C18     : 110.658205
 C29     -C25     -C18     : 112.474040  C29     -C25     -C28     : 111.432837
 H52     -C25     -C18     : 106.925793  H52     -C25     -C28     : 107.528017
 H52     -C25     -C29     : 107.542121  H53     -C26     -C21     : 111.663558
 H54     -C26     -C21     : 109.628065  H54     -C26     -H53     : 106.960803
 H55     -C26     -C21     : 111.552585  H55     -C26     -H53     : 108.854276
 H55     -C26     -H54     : 108.009914  H56     -C27     -C23     : 110.347547
 H57     -C27     -C23     : 110.631940  H57     -C27     -H56     : 107.833481
 H58     -C27     -C23     : 112.166850  H58     -C27     -H56     : 107.786441
 H58     -C27     -H57     : 107.918693  H59     -C28     -C25     : 110.815466
 H60     -C28     -C25     : 110.681673  H60     -C28     -H59     : 107.900400
 H61     -C28     -C25     : 110.759160  H61     -C28     -H59     : 107.349544
 H61     -C28     -H60     : 109.226744  H62     -C29     -C25     : 111.197675
 H63     -C29     -C25     : 111.475475  H63     -C29     -H62     : 107.653118
 H64     -C29     -C25     : 110.761272  H64     -C29     -H62     : 107.414399
 H64     -C29     -H63     : 108.170877  H66     -C65     -C4      : 107.257040
 H67     -C65     -C4      : 113.798039  H67     -C65     -H66     : 106.424803
 H68     -C65     -C4      : 113.244804  H68     -C65     -H66     : 106.971719
 H68     -C65     -H67     : 108.691356  H70     -C69     -C3      : 108.488016
 H71     -C69     -C3      : 110.705930  H71     -C69     -H70     : 107.303973
 H72     -C69     -C3      : 111.906990  H72     -C69     -H70     : 108.122439
 H72     -C69     -H71     : 110.153626
 
  torsional angles:
 
 P1      -Pd2     -C76     -C75     : -94.452095
 P1      -Pd2     -C76     -C77     :  75.306101
 P1      -C3      -C6      -H30     : -59.388644
 P1      -C3      -C6      -H31     :  65.456959
 P1      -C3      -C6      -H73     :-177.655655
 P1      -C3      -C7      -H32     : -52.264827
 P1      -C3      -C7      -H33     :  71.055768
 P1      -C3      -C7      -H74     :-170.737358
 P1      -C3      -C69     -H70     : 174.235630
 P1      -C3      -C69     -H71     : -68.269516
 P1      -C3      -C69     -H72     :  55.028918
 P1      -C4      -C8      -H34     : -61.587682
 P1      -C4      -C8      -H35     :  59.930593
 P1      -C4      -C8      -H75     : 179.484556
 P1      -C4      -C9      -H36     : -52.261846
 P1      -C4      -C9      -H37     :  70.269199
 P1      -C4      -C9      -H76     :-171.055930
 P1      -C4      -C65     -H66     : 178.243253
 P1      -C4      -C65     -H67     : -64.331096
 P1      -C4      -C65     -H68     :  60.462339
 P1      -C5      -C10     -C11     :-170.210970
 P1      -C5      -C10     -H38     :   9.559426
 P1      -C5      -C14     -C13     : 167.022163
 P1      -C5      -C14     -C15     : -20.537445
 Pd2     -P1      -C3      -C6      :-177.694779
 Pd2     -P1      -C3      -C7      :  59.300540
 Pd2     -P1      -C3      -C69     : -58.880810
 Pd2     -P1      -C4      -C8      : -30.327343
 Pd2     -P1      -C4      -C9      :  87.650420
 Pd2     -P1      -C4      -C65     :-149.743031
 Pd2     -P1      -C5      -C10     :-174.148580
 Pd2     -P1      -C5      -C14     :  11.014824
 Pd2     -C76     -C75     -C74     : 167.622400
 Pd2     -C76     -C75     -H81     : -12.357611
 Pd2     -C76     -C77     -C78     :-167.803463
 Pd2     -C76     -C77     -H82     :  12.088620
 Br3     -Pd2     -P1      -C3      :   0.000000
 Br3     -Pd2     -P1      -C4      : 122.206107
 Br3     -Pd2     -P1      -C5      :-117.700249
 Br3     -Pd2     -C76     -C75     :  94.023527
 Br3     -Pd2     -C76     -C77     : -96.218277
 C73     -C74     -C75     -C76     :   0.978288
 C73     -C74     -C75     -H81     :-179.041455
 C73     -C78     -C77     -C76     :  -0.660408
 C73     -C78     -C77     -H82     : 179.446091
 C74     -C73     -C78     -C77     :  -0.712150
 C74     -C73     -C78     -H83     : 178.937316
 C74     -C75     -C76     -C77     :  -2.288612
 C75     -C74     -C73     -C78     :   0.554537
 C75     -C74     -C73     -F79     :-179.870066
 C75     -C76     -C77     -C78     :   2.127464
 C75     -C76     -C77     -H82     :-177.980453
 C76     -Pd2     -P1      -C3      :-171.319248
 C76     -Pd2     -P1      -C4      : -49.113141
 C76     -Pd2     -P1      -C5      :  70.980503
 C76     -C75     -C74     -H80     :-179.607446
 C76     -C77     -C78     -H83     : 179.698421
 C77     -C76     -C75     -H81     : 177.731377
 C77     -C78     -C73     -F79     : 179.712125
 C78     -C73     -C74     -H80     :-178.872806
 F79     -C73     -C74     -H80     :   0.702591
 F79     -C73     -C78     -H83     :  -0.638409
 H80     -C74     -C75     -H81     :   0.372812
 H82     -C77     -C78     -H83     :  -0.195079
 C3      -P1      -C4      -C8      :  96.372645
 C3      -P1      -C4      -C9      :-145.649592
 C3      -P1      -C4      -C65     : -23.043043
 C3      -P1      -C5      -C10     :  60.299866
 C3      -P1      -C5      -C14     :-114.536731
 C4      -P1      -C3      -C6      :  58.660020
 C4      -P1      -C3      -C7      : -64.344660
 C4      -P1      -C3      -C69     : 177.473990
 C4      -P1      -C5      -C10     : -51.464389
 C4      -P1      -C5      -C14     : 133.699014
 C5      -P1      -C3      -C6      : -51.406213
 C5      -P1      -C3      -C7      :-174.410894
 C5      -P1      -C3      -C69     :  67.407756
 C5      -P1      -C4      -C8      :-156.900754
 C5      -P1      -C4      -C9      : -38.922990
 C5      -P1      -C4      -C65     :  83.683559
 C5      -C10     -C11     -C12     :   0.953559
 C5      -C10     -C11     -H39     :-179.937772
 C5      -C14     -C13     -C12     :   4.722829
 C5      -C14     -C13     -H41     :-177.825264
 C5      -C14     -C15     -C16     : -93.715753
 C5      -C14     -C15     -C20     :  95.390191
 C6      -C3      -C7      -H32     : 178.723324
 C6      -C3      -C7      -H33     : -57.956081
 C6      -C3      -C7      -H74     :  60.250793
 C6      -C3      -C69     -H70     : -58.856036
 C6      -C3      -C69     -H71     :  58.638818
 C6      -C3      -C69     -H72     :-178.062748
 C7      -C3      -C6      -H30     :  63.114911
 C7      -C3      -C6      -H31     :-172.039486
 C7      -C3      -C6      -H73     : -55.152100
 C7      -C3      -C69     -H70     :  57.903115
 C7      -C3      -C69     -H71     : 175.397970
 C7      -C3      -C69     -H72     : -61.303596
 C8      -C4      -C9      -H36     :  63.088416
 C8      -C4      -C9      -H37     :-174.380539
 C8      -C4      -C9      -H76     : -55.705669
 C8      -C4      -C65     -H66     :  59.582873
 C8      -C4      -C65     -H67     : 177.008524
 C8      -C4      -C65     -H68     : -58.198041
 C9      -C4      -C8      -H34     :-179.126282
 C9      -C4      -C8      -H35     : -57.608007
 C9      -C4      -C8      -H75     :  61.945956
 C9      -C4      -C65     -H66     : -58.270103
 C9      -C4      -C65     -H67     :  59.155548
 C9      -C4      -C65     -H68     :-176.051017
 C10     -C5      -C14     -C13     :  -7.708039
 C10     -C5      -C14     -C15     : 164.732353
 C10     -C11     -C12     -C13     :  -4.274707
 C10     -C11     -C12     -H40     : 177.894943
 C11     -C10     -C5      -C14     :   5.187907
 C11     -C12     -C13     -C14     :   1.431251
 C11     -C12     -C13     -H41     :-175.969829
 C12     -C11     -C10     -H38     :-178.818884
 C12     -C13     -C14     -C15     :-168.847479
 C13     -C12     -C11     -H39     : 176.628706
 C13     -C14     -C15     -C16     :  78.978297
 C13     -C14     -C15     -C20     : -91.915759
 C14     -C5      -C10     -H38     :-175.041697
 C14     -C13     -C12     -H40     : 179.281292
 C14     -C15     -C16     -C17     :-175.914414
 C14     -C15     -C16     -C23     :   0.939794
 C14     -C15     -C20     -C19     : 176.192814
 C14     -C15     -C20     -C21     :   1.014125
 C15     -C14     -C13     -H41     :   8.604428
 C15     -C16     -C17     -C18     :   0.183632
 C15     -C16     -C17     -H42     :-177.685208
 C15     -C16     -C23     -C24     : 139.952085
 C15     -C16     -C23     -C27     : -96.603289
 C15     -C16     -C23     -H48     :  21.010825
 C15     -C20     -C19     -C18     :  -1.707070
 C15     -C20     -C19     -H43     : 176.807429
 C15     -C20     -C21     -C22     :  88.760506
 C15     -C20     -C21     -C26     :-147.067892
 C15     -C20     -C21     -H44     : -27.923640
 C16     -C15     -C20     -C19     :   5.462025
 C16     -C15     -C20     -C21     :-169.716664
 C16     -C17     -C18     -C19     :   3.524270
 C16     -C17     -C18     -C25     :-174.807659
 C16     -C23     -C24     -H49     :  69.540809
 C16     -C23     -C24     -H50     :-171.905979
 C16     -C23     -C24     -H51     : -51.484648
 C16     -C23     -C27     -H56     : -60.781100
 C16     -C23     -C27     -H57     : 179.967050
 C16     -C23     -C27     -H58     :  59.410583
 C17     -C16     -C15     -C20     :  -4.731826
 C17     -C16     -C23     -C24     : -43.180339
 C17     -C16     -C23     -C27     :  80.264287
 C17     -C16     -C23     -H48     :-162.121598
 C17     -C18     -C19     -C20     :  -2.756369
 C17     -C18     -C19     -H43     : 178.722196
 C17     -C18     -C25     -C28     :  65.622100
 C17     -C18     -C25     -C29     : -59.729306
 C17     -C18     -C25     -H52     :-177.558553
 C18     -C17     -C16     -C23     :-176.797561
 C18     -C19     -C20     -C21     : 173.594331
 C18     -C25     -C28     -H59     : -66.423954
 C18     -C25     -C28     -H60     : 173.906791
 C18     -C25     -C28     -H61     :  52.606652
 C18     -C25     -C29     -H62     :  62.826165
 C18     -C25     -C29     -H63     : -57.313194
 C18     -C25     -C29     -H64     :-177.812649
 C19     -C18     -C17     -H42     :-178.618321
 C19     -C18     -C25     -C28     :-112.661377
 C19     -C18     -C25     -C29     : 121.987217
 C19     -C18     -C25     -H52     :   4.157970
 C19     -C20     -C21     -C22     : -86.407446
 C19     -C20     -C21     -C26     :  37.764157
 C19     -C20     -C21     -H44     : 156.908408
 C20     -C15     -C16     -C23     : 172.122382
 C20     -C19     -C18     -C25     : 175.595014
 C20     -C21     -C22     -H45     :  61.208828
 C20     -C21     -C22     -H46     : -59.019453
 C20     -C21     -C22     -H47     :-179.402937
 C20     -C21     -C26     -H53     : -68.972886
 C20     -C21     -C26     -H54     : 172.673467
 C20     -C21     -C26     -H55     :  53.083269
 C21     -C20     -C19     -H43     :  -7.891170
 C22     -C21     -C26     -H53     :  55.374850
 C22     -C21     -C26     -H54     : -62.978797
 C22     -C21     -C26     -H55     : 177.431004
 C23     -C16     -C17     -H42     :   5.333599
 C24     -C23     -C27     -H56     :  65.533300
 C24     -C23     -C27     -H57     : -53.718550
 C24     -C23     -C27     -H58     :-174.275017
 C25     -C18     -C17     -H42     :   3.049750
 C25     -C18     -C19     -H43     :  -2.926422
 C26     -C21     -C22     -H45     : -65.429060
 C26     -C21     -C22     -H46     : 174.342659
 C26     -C21     -C22     -H47     :  53.959175
 C27     -C23     -C24     -H49     : -54.688409
 C27     -C23     -C24     -H50     :  63.864803
 C27     -C23     -C24     -H51     :-175.713866
 C28     -C25     -C29     -H62     : -62.101764
 C28     -C25     -C29     -H63     : 177.758876
 C28     -C25     -C29     -H64     :  57.259421
 C29     -C25     -C28     -H59     :  59.512729
 C29     -C25     -C28     -H60     : -60.156527
 C29     -C25     -C28     -H61     : 178.543335
 H30     -C6      -C3      -C69     :-178.908522
 H31     -C6      -C3      -C69     : -54.062920
 H32     -C7      -C3      -C69     :  63.756901
 H33     -C7      -C3      -C69     :-172.922504
 H34     -C8      -C4      -C65     :  64.593465
 H35     -C8      -C4      -C65     :-173.888260
 H36     -C9      -C4      -C65     : 179.172054
 H37     -C9      -C4      -C65     : -58.296901
 H38     -C10     -C11     -H39     :   0.289786
 H39     -C11     -C12     -H40     :  -1.201644
 H40     -C12     -C13     -H41     :   1.880213
 H44     -C21     -C22     -H45     : 177.852204
 H44     -C21     -C22     -H46     :  57.623923
 H44     -C21     -C22     -H47     : -62.759561
 H44     -C21     -C26     -H53     : 172.002201
 H44     -C21     -C26     -H54     :  53.648554
 H44     -C21     -C26     -H55     : -65.941644
 H48     -C23     -C24     -H49     :-171.097361
 H48     -C23     -C24     -H50     : -52.544149
 H48     -C23     -C24     -H51     :  67.877182
 H48     -C23     -C27     -H56     :-178.462614
 H48     -C23     -C27     -H57     :  62.285537
 H48     -C23     -C27     -H58     : -58.270930
 H52     -C25     -C28     -H59     : 177.129053
 H52     -C25     -C28     -H60     :  57.459798
 H52     -C25     -C28     -H61     : -63.840341
 H52     -C25     -C29     -H62     :-179.709569
 H52     -C25     -C29     -H63     :  60.151072
 H52     -C25     -C29     -H64     : -60.348383
 C65     -C4      -C8      -H75     : -54.334297
 C65     -C4      -C9      -H76     :  60.377970
 C69     -C3      -C6      -H73     :  62.824467
 C69     -C3      -C7      -H74     : -54.715630
 
  nuclear repulsion energy.......    5441.100973661 hartrees
  
  Detected an organometallic with only one TM atom. 
  
  Oxidation state on metal       2 is     2
  Formal multiplet on metal      2 is     1
  Formal charge on ligand        3 is    -1
  Formal multiplet on ligand     3 is     1
  Formal charge on ligand        4 is    -1
  Formal multiplet on ligand     4 is     1
  
 
  Will use High-Quality Initial guess for organometallics
       including d-d repulsion (iguess=30)
 
 Non-default options chosen:
   SCF calculation type: DFT(b3pw91-d3)              
   DFT=Becke_3_Parameter/HF+Slater+Becke88+PW91+PW-GGAIIC (B3PW91-D3)
   Geometry will be optimized in redundant internal coordinates
   Solvation energy will be computed using PBF
     -solute cavity energy will not be included
     -surface area terms will not be included
   Vibrational frequencies and related properties will be computed
      from analytic second derivatives
   IR intensities will be computed
   Thermochemical properties will be computed
   Scaling standard convergence criteria by a factor of   5.00
   Solvent: benzene                                                         
   Internal dielectric constant:    1.000
   Continuum dielectric constant:   2.283
   Solvent probe molecule radius:   2.600
  
 Non-default print settings:
     11=  2
  
 Temporary integer options set:
     21= -1  73=  2
  
  atom       vdw   vdw2    cov     mass  grid  daf  charge   basis
  P1        2.147  2.074  1.060   30.974    Y    Y      Y    6-31g*
  Pd2       1.450  1.450  1.280  105.903    Y    Y      Y    lacv3p*
  Br3       2.095  2.095  1.140   78.918    Y    Y      Y    lav3p*
  C73       1.949  1.900  0.770   12.000    Y    Y      Y    6-31g*
  C74       1.949  1.900  0.770   12.000    Y    Y      Y    6-31g*
  C75       1.949  1.900  0.770   12.000    Y    Y      Y    6-31g*
  C76       1.949  1.900  0.770   12.000    Y    Y      Y    6-31g*
  C77       1.949  1.900  0.770   12.000    Y    Y      Y    6-31g*
  C78       1.949  1.900  0.770   12.000    Y    Y      Y    6-31g*
  F79       1.736  1.682  0.720   18.998    Y    Y      Y    6-31g*
  H80       1.597  1.150  0.320    1.008    Y    Y      Y    6-31g*
  H81       1.597  1.150  0.320    1.008    Y    Y      Y    6-31g*
  H82       1.597  1.150  0.320    1.008    Y    Y      Y    6-31g*
  H83       1.597  1.150  0.320    1.008    Y    Y      Y    6-31g*
  C3        1.949  1.900  0.770   12.000    Y    Y      Y    6-31g*
  C4        1.949  1.900  0.770   12.000    Y    Y      Y    6-31g*
  C5        1.949  1.900  0.770   12.000    Y    Y      Y    6-31g*
  C6        1.949  1.900  0.770   12.000    Y    Y      Y    6-31g*
  C7        1.949  1.900  0.770   12.000    Y    Y      Y    6-31g*
  C8        1.949  1.900  0.770   12.000    Y    Y      Y    6-31g*
  C9        1.949  1.900  0.770   12.000    Y    Y      Y    6-31g*
  C10       1.949  1.900  0.770   12.000    Y    Y      Y    6-31g*
  C11       1.949  1.900  0.770   12.000    Y    Y      Y    6-31g*
  C12       1.949  1.900  0.770   12.000    Y    Y      Y    6-31g*
  C13       1.949  1.900  0.770   12.000    Y    Y      Y    6-31g*
  C14       1.949  1.900  0.770   12.000    Y    Y      Y    6-31g*
  C15       1.949  1.900  0.770   12.000    Y    Y      Y    6-31g*
  C16       1.949  1.900  0.770   12.000    Y    Y      Y    6-31g*
  C17       1.949  1.900  0.770   12.000    Y    Y      Y    6-31g*
  C18       1.949  1.900  0.770   12.000    Y    Y      Y    6-31g*
  C19       1.949  1.900  0.770   12.000    Y    Y      Y    6-31g*
  C20       1.949  1.900  0.770   12.000    Y    Y      Y    6-31g*
  C21       1.949  1.900  0.770   12.000    Y    Y      Y    6-31g*
  C22       1.949  1.900  0.770   12.000    Y    Y      Y    6-31g*
  C23       1.949  1.900  0.770   12.000    Y    Y      Y    6-31g*
  C24       1.949  1.900  0.770   12.000    Y    Y      Y    6-31g*
  C25       1.949  1.900  0.770   12.000    Y    Y      Y    6-31g*
  C26       1.949  1.900  0.770   12.000    Y    Y      Y    6-31g*
  C27       1.949  1.900  0.770   12.000    Y    Y      Y    6-31g*
  C28       1.949  1.900  0.770   12.000    Y    Y      Y    6-31g*
  C29       1.949  1.900  0.770   12.000    Y    Y      Y    6-31g*
  H30       1.597  1.150  0.320    1.008    Y    Y      Y    6-31g*
  H31       1.597  1.150  0.320    1.008    Y    Y      Y    6-31g*
  H32       1.597  1.150  0.320    1.008    Y    Y      Y    6-31g*
  H33       1.597  1.150  0.320    1.008    Y    Y      Y    6-31g*
  H34       1.597  1.150  0.320    1.008    Y    Y      Y    6-31g*
  H35       1.597  1.150  0.320    1.008    Y    Y      Y    6-31g*
  H36       1.597  1.150  0.320    1.008    Y    Y      Y    6-31g*
  H37       1.597  1.150  0.320    1.008    Y    Y      Y    6-31g*
  H38       1.597  1.150  0.320    1.008    Y    Y      Y    6-31g*
  H39       1.597  1.150  0.320    1.008    Y    Y      Y    6-31g*
  H40       1.597  1.150  0.320    1.008    Y    Y      Y    6-31g*
  H41       1.597  1.150  0.320    1.008    Y    Y      Y    6-31g*
  H42       1.597  1.150  0.320    1.008    Y    Y      Y    6-31g*
  H43       1.597  1.150  0.320    1.008    Y    Y      Y    6-31g*
  H44       1.597  1.150  0.320    1.008    Y    Y      Y    6-31g*
  H45       1.597  1.150  0.320    1.008    Y    Y      Y    6-31g*
  H46       1.597  1.150  0.320    1.008    Y    Y      Y    6-31g*
  H47       1.597  1.150  0.320    1.008    Y    Y      Y    6-31g*
  H48       1.597  1.150  0.320    1.008    Y    Y      Y    6-31g*
  H49       1.597  1.150  0.320    1.008    Y    Y      Y    6-31g*
  H50       1.597  1.150  0.320    1.008    Y    Y      Y    6-31g*
  H51       1.597  1.150  0.320    1.008    Y    Y      Y    6-31g*
  H52       1.597  1.150  0.320    1.008    Y    Y      Y    6-31g*
  H53       1.597  1.150  0.320    1.008    Y    Y      Y    6-31g*
  H54       1.597  1.150  0.320    1.008    Y    Y      Y    6-31g*
  H55       1.597  1.150  0.320    1.008    Y    Y      Y    6-31g*
  H56       1.597  1.150  0.320    1.008    Y    Y      Y    6-31g*
  H57       1.597  1.150  0.320    1.008    Y    Y      Y    6-31g*
  H58       1.597  1.150  0.320    1.008    Y    Y      Y    6-31g*
  H59       1.597  1.150  0.320    1.008    Y    Y      Y    6-31g*
  H60       1.597  1.150  0.320    1.008    Y    Y      Y    6-31g*
  H61       1.597  1.150  0.320    1.008    Y    Y      Y    6-31g*
  H62       1.597  1.150  0.320    1.008    Y    Y      Y    6-31g*
  H63       1.597  1.150  0.320    1.008    Y    Y      Y    6-31g*
  H64       1.597  1.150  0.320    1.008    Y    Y      Y    6-31g*
  C65       1.949  1.900  0.770   12.000    Y    Y      Y    6-31g*
  H66       1.597  1.150  0.320    1.008    Y    Y      Y    6-31g*
  H67       1.597  1.150  0.320    1.008    Y    Y      Y    6-31g*
  H68       1.597  1.150  0.320    1.008    Y    Y      Y    6-31g*
  C69       1.949  1.900  0.770   12.000    Y    Y      Y    6-31g*
  H70       1.597  1.150  0.320    1.008    Y    Y      Y    6-31g*
  H71       1.597  1.150  0.320    1.008    Y    Y      Y    6-31g*
  H72       1.597  1.150  0.320    1.008    Y    Y      Y    6-31g*
  H73       1.597  1.150  0.320    1.008    Y    Y      Y    6-31g*
  H74       1.597  1.150  0.320    1.008    Y    Y      Y    6-31g*
  H75       1.597  1.150  0.320    1.008    Y    Y      Y    6-31g*
  H76       1.597  1.150  0.320    1.008    Y    Y      Y    6-31g*
 
  atom      formal  2spin      esp    mulk    frag
  P1           0       0        Y    0.000       0
  Pd2          2       0        Y    0.000       0
  Br3         -1       0        Y    0.000       0
  C73         -1       0        Y    0.000       0
  
  end of program pre
   
 Time(pre)  user:        2.8  user+sys:        2.8  wallclock:        4.2
  
  start of program onee
  
  smallest eigenvalue of S:    3.243E-04
  number of canonical orbitals.....          658
  end of program onee
   
 Time(onee)  user:        3.2  user+sys:        3.2  wallclock:        3.2
  
  start of program hfig
  
  initial wavefunction generated automatically from atomic wavefunctions
  Only one state below 0.010000
  Skip d-d repulsion considerations 
 
  Irreducible     Total no   No of occupied orbitals 
  representation  orbitals   Shell_1  Shell_2    ...
  No Symm          658        154
  ------------------------
  Orbital occupation/shell    1.000
 
  end of program hfig
   
 Time(hfig)  user:        0.7  user+sys:        0.7  wallclock:        1.0
  
  start of program probe
  
  end of program probe
   
 Time(probe)  user:        0.4  user+sys:        0.4  wallclock:        0.4
  
  start of program grid
  
   grid     grid set  grid #  grid sym
  ------    --------  ------  --------
  coarse        0        0        1
  medium        2        1        1
  fine          0        0        1
  ultrafine     4        2        1
  charge       -1        3        1
  gradient      4        2        1
  density       0        0        1
  DFT-fine    -11        4        1
  DFT-med.    -10        5        1
  DFT-grad    -12        6        1
  DFT-der2     -8        7        1
  DFT-cphf     -9        8        1
  LMP2-enrg     4        2        1
  LMP2-grad     2        1        1
  DFT-cphf2   -15        9        1
  PBF-dens      0        0        1
  plotting      0        0        1
  Rel-grad    -17        0        1
  
  number of gridpoints: 
     atom        P1      Pd2      Br3      C73      C74      C75      C76
  grid # 1      623      353      489       80       90       96      100
  grid # 2      443      326      470      336      297      320      401
  grid # 3        9      259      257       42       26       25       27
  grid # 4     8714     8714     8714     8714     8714     8714     8714
  grid # 5     1192     1192     1192     1192     1192     1192     1192
  grid # 6     9132     9132     9132     5922     5922     5922     5922
  grid # 7    23034    32968    11582    13950    13950    13950    13950
  grid # 8      722     1150      694      748      748      748      748
  grid # 9      366     2198      358      394      394      394      394
   
  number of gridpoints: 
     atom       C77      C78      F79      H80      H81      H82      H83
  grid # 1       97       95      583      102      104      117      115
  grid # 2      326      323      565      421      424      460      465
  grid # 3       39       48      336      189       66      296      420
  grid # 4     8714     8714     8714     8714     8714     8714     8714
  grid # 5     1192     1192     1192     1192     1192     1192     1192
  grid # 6     5922     5922     5922     5922     5922     5922     5922
  grid # 7    13950    13950    23190    15206    15206    15206    15206
  grid # 8      748      748      770      786      786      786      786
  grid # 9      394      394      420      420      420      420      420
   
  number of gridpoints: 
     atom        C3       C4       C5       C6       C7       C8       C9
  grid # 1       87       90       92       81       81       80       81
  grid # 2      372      371      388      237      241      238      240
  grid # 3        6        6        8        6        6        6        6
  grid # 4     8714     8714     8714     8714     8714     8714     8714
  grid # 5     1192     1192     1192     1192     1192     1192     1192
  grid # 6     5922     5922     5922     5922     5922     5922     5922
  grid # 7    13950    13950    13950    13950    13950    13950    13950
  grid # 8      748      748      748      748      748      748      748
  grid # 9      394      394      394      394      394      394      394
   
  number of gridpoints: 
     atom       C10      C11      C12      C13      C14      C15      C16
  grid # 1       93       95       96       94      100       99       98
  grid # 2      323      324      322      324      353      359      362
  grid # 3       11       27       31       13        8        7       12
  grid # 4     8714     8714     8714     8714     8714     8714     8714
  grid # 5     1192     1192     1192     1192     1192     1192     1192
  grid # 6     5922     5922     5922     5922     5922     5922     5922
  grid # 7    13950    13950    13950    13950    13950    13950    13950
  grid # 8      748      748      748      748      748      748      748
  grid # 9      394      394      394      394      394      394      394
   
  number of gridpoints: 
     atom       C17      C18      C19      C20      C21      C22      C23
  grid # 1       95      100       95       98       92       81       91
  grid # 2      328      360      324      360      309      241      306
  grid # 3       22       16       17       12        6        6        6
  grid # 4     8714     8714     8714     8714     8714     8714     8714
  grid # 5     1192     1192     1192     1192     1192     1192     1192
  grid # 6     5922     5922     5922     5922     5922     5922     5922
  grid # 7    13950    13950    13950    13950    13950    13950    13950
  grid # 8      748      748      748      748      748      748      748
  grid # 9      394      394      394      394      394      394      394
   
  number of gridpoints: 
     atom       C24      C25      C26      C27      C28      C29      H30
  grid # 1       81       90       81       82       82       79      100
  grid # 2      239      305      245      239      238      247      421
  grid # 3        6        6        6        6        6        6      150
  grid # 4     8714     8714     8714     8714     8714     8714     8714
  grid # 5     1192     1192     1192     1192     1192     1192     1192
  grid # 6     5922     5922     5922     5922     5922     5922     5922
  grid # 7    13950    13950    13950    13950    13950    13950    15206
  grid # 8      748      748      748      748      748      748      786
  grid # 9      394      394      394      394      394      394      420
   
  number of gridpoints: 
     atom       H31      H32      H33      H34      H35      H36      H37
  grid # 1      104       99      101      106      105      104      105
  grid # 2      428      432      425      440      444      438      437
  grid # 3      179      131      157      177      160      121      177
  grid # 4     8714     8714     8714     8714     8714     8714     8714
  grid # 5     1192     1192     1192     1192     1192     1192     1192
  grid # 6     5922     5922     5922     5922     5922     5922     5922
  grid # 7    15206    15206    15206    15206    15206    15206    15206
  grid # 8      786      786      786      786      786      786      786
  grid # 9      420      420      420      420      420      420      420
   
  number of gridpoints: 
     atom       H38      H39      H40      H41      H42      H43      H44
  grid # 1      101      117      117      107      104      103      100
  grid # 2      415      469      468      436      428      426      414
  grid # 3       66      406      411      146       87      118       37
  grid # 4     8714     8714     8714     8714     8714     8714     8714
  grid # 5     1192     1192     1192     1192     1192     1192     1192
  grid # 6     5922     5922     5922     5922     5922     5922     5922
  grid # 7    15206    15206    15206    15206    15206    15206    15206
  grid # 8      786      786      786      786      786      786      786
  grid # 9      420      420      420      420      420      420      420
   
  number of gridpoints: 
     atom       H45      H46      H47      H48      H49      H50      H51
  grid # 1      110      106      110      105      106      108      109
  grid # 2      453      441      451      427      442      450      448
  grid # 3      288      191      309      107      230      307      232
  grid # 4     8714     8714     8714     8714     8714     8714     8714
  grid # 5     1192     1192     1192     1192     1192     1192     1192
  grid # 6     5922     5922     5922     5922     5922     5922     5922
  grid # 7    15206    15206    15206    15206    15206    15206    15206
  grid # 8      786      786      786      786      786      786      786
  grid # 9      420      420      420      420      420      420      420
   
  number of gridpoints: 
     atom       H52      H53      H54      H55      H56      H57      H58
  grid # 1      109      105      109      102      108      110      107
  grid # 2      439      440      447      432      451      452      439
  grid # 3      182      237      267      100      265      319      188
  grid # 4     8714     8714     8714     8714     8714     8714     8714
  grid # 5     1192     1192     1192     1192     1192     1192     1192
  grid # 6     5922     5922     5922     5922     5922     5922     5922
  grid # 7    15206    15206    15206    15206    15206    15206    15206
  grid # 8      786      786      786      786      786      786      786
  grid # 9      420      420      420      420      420      420      420
   
  number of gridpoints: 
     atom       H59      H60      H61      H62      H63      H64      C65
  grid # 1      107      108       92      108      111      109       82
  grid # 2      448      440      383      446      460      457      239
  grid # 3      247      245       56      243      347      325        6
  grid # 4     8714     8714     8714     8714     8714     8714     8714
  grid # 5     1192     1192     1192     1192     1192     1192     1192
  grid # 6     5922     5922     5922     5922     5922     5922     5922
  grid # 7    15206    15206    15206    15206    15206    15206    13950
  grid # 8      786      786      786      786      786      786      748
  grid # 9      420      420      420      420      420      420      394
   
  number of gridpoints: 
     atom       H66      H67      H68      C69      H70      H71      H72
  grid # 1      108       99      100       79      108      103       96
  grid # 2      445      425      425      241      446      424      422
  grid # 3      257      167      152        6      260      143       62
  grid # 4     8714     8714     8714     8714     8714     8714     8714
  grid # 5     1192     1192     1192     1192     1192     1192     1192
  grid # 6     5922     5922     5922     5922     5922     5922     5922
  grid # 7    15206    15206    15206    13950    15206    15206    15206
  grid # 8      786      786      786      748      786      786      786
  grid # 9      420      420      420      394      420      420      420
   
  number of gridpoints: 
     atom       H73      H74      H75      H76    total
  grid # 1      109      109      109      108    10380
  grid # 2      445      447      447      447    33992
  grid # 3      257      269      270      268    11638
  grid # 4     8714     8714     8714     8714   766832
  grid # 5     1192     1192     1192     1192   104896
  grid # 6     5922     5922     5922     5922   530766
  grid # 7    15206    15206    15206    15206  1324118
  grid # 8      786      786      786      786    68030
  grid # 9      420      420      420      420    37712
   
  end of program grid
   
 Time(grid)  user:      268.0  user+sys:      268.0  wallclock:      269.0
  
  start of program rwr
  
  end of program rwr
   
 Time(rwr)  user:       10.8  user+sys:       10.8  wallclock:       12.9
  
  start of program scf
  
 number of electrons..........        308
 number of alpha electrons....        154
 number of beta electrons.....        154
 number of orbitals, total....        658
 number of doubly-occ'd orbs..        154
 number of open shell orbs....          0
 number of occupied orbitals..        154
 number of virtual orbitals...        504
 number of hamiltonians.......          1
 number of shells.............          1
 SCF type: DFT=Becke_3_Parameter/HF+Slater+Becke88+PW91+PW-GGAIIC (B3PW91-D3)
 Energy computed with NOPS off.
 Convergence Criterion:
    Energy (econv):       1.00E-05
    RMS density (dconv):  5.00E-06
  
       i  u  d  i  g                   
       t  p  i  c  r                                 RMS    maximum
       e  d  i  u  i                       energy  density   DIIS  
       r  t  s  t  d       total energy    change  change    error 
  
etot    1  N  N  5  M   -1939.00875617046           2.0E-03  2.2E-01
etot    2  Y  Y  6  M   -1942.30648148441  3.3E+00  3.0E-03  1.3E-01
etot    3  Y  Y  6  M   -1943.36486698875  1.1E+00  1.3E-03  6.1E-02
etot    4  N  Y  2  U   -1943.62823837146  2.6E-01  7.8E-04  3.3E-02
etot    5  Y  Y  6  M   -1943.74926527641  1.2E-01  5.0E-04  2.0E-02
etot    6  N  Y  2  U   -1943.76206131364  1.3E-02  5.0E-04  1.0E-02
etot    7  Y  Y  6  M   -1943.76028625427 -1.8E-03  1.3E-04  4.3E-03
etot    8  Y  Y  6  M   -1943.76565164312  5.4E-03  4.0E-05  1.9E-03
etot    9  N  Y  2  U   -1943.76668040944  1.0E-03  9.2E-06  1.5E-04
etot   10  N  Y  2  U   -1943.76668599551  5.6E-06  4.1E-06  8.9E-05
etot   11  N  N  2  U   -1943.76668862745  2.6E-06  0.0E+00  0.0E+00
 
  Computing the dispersion energy correction and its gradients...
  
  
 Energy components, in hartrees:
   (A)  Nuclear repulsion............    5441.10097366072
   (E)  Total one-electron terms.....  -13539.96326601676
   (F)    Electron-nuclear...........  -15383.18435774241
   (H)    Kinetic....................    1843.22109172565
   (I)  Total two-electron terms.....    6155.09560372859
   (J)    Coulomb....................    6411.87571234436
   (K)    Exchange+Correlation.......    -256.78010861577
   (L)  Electronic energy............   -7384.86766228817  (E+I)
   (N0) D3 correction................      -0.16588541382
   (N)  Total energy.................   -1943.93257404128  (A+L+N0)
   (O)  Gas phase energy.............   -1943.93257404128
  
 SCFE: SCF energy: DFT(b3pw91-d3)     -1943.93257404128 hartrees   iterations:  11
  
 
 HOMO energy:    -0.21811
 LUMO energy:    -0.10833
 
  Orbital energies (hartrees): 
   -77.08041   -24.67972   -10.24566   -10.21800   -10.20984   -10.20898
   -10.20712   -10.19408   -10.19308   -10.19172   -10.19109   -10.18876
   -10.18764   -10.18422   -10.18250   -10.18028   -10.18020   -10.18011
   -10.17771   -10.17426   -10.17411   -10.17354   -10.17330   -10.17284
   -10.17212   -10.16967   -10.16806   -10.16672   -10.16332   -10.16207
   -10.16040   -10.15779   -10.15518   -10.15417   -10.15113   -10.14196
   -10.13408    -6.58003    -4.73826    -4.73755    -4.73445    -3.34559
    -2.08532    -2.06860    -2.04737    -1.21088    -0.88050    -0.86374
    -0.85942    -0.83122    -0.81539    -0.81162    -0.81060    -0.77748
    -0.77475    -0.76397    -0.76114    -0.73788    -0.72344    -0.71721
    -0.70367    -0.70066    -0.69594    -0.68555    -0.68484    -0.68322
    -0.68142    -0.67308    -0.65655    -0.63372    -0.62834    -0.61843
    -0.61026    -0.60351    -0.59223    -0.58913    -0.55593    -0.55285
    -0.54205    -0.53584    -0.53135    -0.51552    -0.49328    -0.49017
    -0.48329    -0.47584    -0.47373    -0.46936    -0.46656    -0.45969
    -0.45602    -0.45362    -0.44958    -0.44311    -0.44202    -0.43989
    -0.43770    -0.43695    -0.43283    -0.43086    -0.42659    -0.42374
    -0.41507    -0.41306    -0.40966    -0.40556    -0.40237    -0.39978
    -0.39635    -0.39086    -0.38899    -0.38666    -0.38511    -0.38224
    -0.38107    -0.37887    -0.37490    -0.37439    -0.37274    -0.36593
    -0.36501    -0.36272    -0.35754    -0.35479    -0.35271    -0.34993
    -0.34591    -0.34496    -0.33989    -0.33781    -0.33568    -0.33421
    -0.33187    -0.32963    -0.32352    -0.32118    -0.31912    -0.31847
    -0.31157    -0.30755    -0.30438    -0.29277    -0.28444    -0.27443
    -0.26674    -0.26217    -0.25932    -0.24548    -0.23878    -0.23452
    -0.23274    -0.22719    -0.22088    -0.21811    -0.10833    -0.04267
    -0.02605    -0.01398    -0.00634    -0.00422     0.00421     0.01808
     0.02928     0.04514
 
  end of program scf
   
 Time(scf)  user:      311.9  user+sys:      311.9  wallclock:      324.2
  
  start of program der1a
  
  end of program der1a
   
 Time(der1a)  user:       11.0  user+sys:       11.0  wallclock:       11.1
  
  start of program rwr
  
  end of program rwr
   
 Time(rwr)  user:       12.8  user+sys:       12.8  wallclock:       16.3
  
  start of program der1b
  
   
  forces (hartrees/bohr) : total     
   
 atom  label           x              y              z
 ---- --------   -------------  -------------  -------------
    1 P1          2.277044E-03   5.197847E-03  -2.821769E-02
    2 Pd2        -9.483021E-03   6.666391E-03   9.420069E-03
    3 Br3        -1.822486E-03  -4.541926E-03   1.190259E-02
    4 C73         1.541600E-03  -2.644240E-03   5.491677E-03
    5 C74         4.844207E-02  -2.707660E-02   2.023157E-02
    6 C75         2.408511E-02  -7.936910E-03  -8.712990E-03
    7 C76        -1.248855E-03   7.396515E-03   3.944375E-03
    8 C77         2.091086E-03  -7.747216E-03  -2.663086E-03
    9 C78        -2.645417E-03   1.760457E-03  -4.648297E-03
   10 F79         2.220641E-03   1.428444E-03  -4.008753E-03
   11 H80         3.065026E-02  -1.419929E-02   1.225366E-02
   12 H81         6.160000E-04  -5.360924E-03   1.901460E-03
   13 H82         1.454163E-03  -3.353801E-04   6.020254E-04
   14 H83        -1.741021E-05   8.128700E-04  -9.467334E-04
   15 C3         -7.592921E-04  -7.997095E-04  -1.292565E-03
   16 C4          3.070096E-03   2.825104E-03  -9.320577E-04
   17 C5         -1.696469E-03   2.003528E-03  -3.386495E-03
   18 C6          3.935424E-04  -1.280775E-04  -6.044902E-04
   19 C7         -2.562756E-04   7.025512E-04   5.537091E-04
   20 C8         -6.849464E-05   7.848882E-04  -3.606008E-03
   21 C9          2.875169E-03  -1.802071E-03   1.652826E-03
   22 C10        -1.300725E-03   3.248590E-03   9.236208E-04
   23 C11         5.844443E-04  -6.712791E-04   5.422028E-03
   24 C12         7.480765E-04  -4.308224E-03   3.699681E-03
   25 C13         4.175422E-04  -3.163003E-03   8.346294E-04
   26 C14         6.604826E-04   4.542421E-04  -7.378174E-03
   27 C15         4.007170E-04  -2.677861E-03   2.349363E-03
   28 C16         9.340875E-04  -1.666478E-03   3.663241E-03
   29 C17         2.598825E-03  -2.729564E-03   2.880997E-04
   30 C18        -1.251532E-03   5.169066E-04  -4.480437E-03
   31 C19        -2.613037E-03   1.372891E-03  -4.004093E-03
   32 C20        -7.054772E-04   3.806121E-04   1.154437E-03
   33 C21         1.171962E-03  -1.431441E-03  -2.664733E-03
   34 C22        -8.497757E-04   9.480127E-04   2.357832E-05
   35 C23         1.375261E-03   3.221736E-04  -2.935998E-03
   36 C24         1.141489E-03   1.279657E-03  -3.815601E-05
   37 C25        -9.607663E-04  -2.516335E-04   1.288475E-03
   38 C26        -4.693410E-04   3.801042E-04  -9.204187E-05
   39 C27        -3.118483E-04   1.128934E-03   2.386441E-04
   40 C28        -3.790764E-02   2.012437E-02  -1.615171E-02
   41 C29        -7.175882E-04   1.693599E-03  -1.808795E-04
   42 H30         3.361699E-03   5.073908E-03   3.204439E-03
   43 H31         2.312677E-03  -5.162193E-03   2.541235E-03
   44 H32         1.834916E-04  -1.438519E-03  -7.768749E-03
   45 H33         2.206319E-03   5.206499E-03   2.746410E-03
   46 H34        -6.043424E-03   2.143376E-03   2.408093E-04
   47 H35         1.076490E-03  -1.962154E-03  -2.054288E-03
   48 H36        -5.156654E-04   1.774580E-04  -3.630726E-03
   49 H37         7.490059E-04  -3.192447E-03   6.703557E-03
   50 H38        -1.275452E-03   5.849157E-03   2.946482E-03
   51 H39         4.438702E-04   8.980476E-04   6.631609E-03
   52 H40         1.618231E-03  -5.304526E-03   3.895716E-03
   53 H41         1.620202E-03  -5.159559E-03  -2.571310E-03
   54 H42         6.418473E-03   1.591277E-03  -1.555207E-03
   55 H43        -4.327789E-03   1.329826E-04  -4.535731E-03
   56 H44        -1.837497E-03   3.351079E-03   4.860735E-03
   57 H45         1.428500E-03  -4.217137E-03  -4.206687E-03
   58 H46         3.854614E-03  -1.410709E-03   4.737227E-03
   59 H47        -6.007019E-03  -2.106601E-03   2.119318E-03
   60 H48        -1.807376E-03   2.729780E-03   3.886332E-03
   61 H49         4.055941E-03  -3.649600E-03  -4.117960E-03
   62 H50         4.941483E-03   1.376810E-03   5.042866E-03
   63 H51        -3.001340E-03   2.226984E-03  -1.294873E-03
   64 H52        -3.995477E-03  -1.181918E-03  -2.220152E-03
   65 H53         7.331965E-04  -4.061257E-03  -4.739781E-03
   66 H54        -6.134358E-03  -1.501338E-03   2.609140E-03
   67 H55         6.581689E-05   6.735426E-03  -2.090653E-03
   68 H56         2.691438E-03  -3.436591E-03  -4.226566E-03
   69 H57         5.234349E-03   1.259392E-03   4.087134E-03
   70 H58        -3.691342E-03  -4.420181E-03   3.362202E-03
   71 H59         1.494983E-03   4.700430E-03   1.966448E-03
   72 H60         7.677692E-04  -1.924911E-03  -5.343415E-03
   73 H61        -6.092069E-02   3.001074E-02  -1.641463E-02
   74 H62         5.703816E-03   1.141324E-03   2.618385E-03
   75 H63        -1.141539E-03  -5.392770E-03   2.468392E-03
   76 H64         1.696407E-03  -1.618480E-03  -6.370760E-03
   77 C65        -1.113584E-03  -1.487657E-03  -5.280351E-04
   78 H66         3.848450E-03   4.746257E-03   6.125531E-04
   79 H67         6.722747E-04  -3.936821E-03   5.977388E-03
   80 H68        -6.254848E-03   2.570807E-03   5.675817E-04
   81 C69        -8.181445E-04  -4.061448E-04  -5.832470E-05
   82 H70        -6.395793E-03   2.383619E-04   3.086257E-03
   83 H71         2.148047E-03  -4.920659E-03   2.754523E-03
   84 H72         3.506653E-04   1.986298E-03  -6.721655E-03
   85 H73        -6.431751E-03   2.192105E-04   1.411085E-03
   86 H74        -6.441547E-03  -6.708742E-04   2.438771E-03
   87 H75         3.030022E-03   5.362325E-03   3.976461E-03
   88 H76         2.453009E-03   6.181951E-03   2.444906E-03
 -------------   -------------  -------------  -------------
     total        1.670830E-03  -6.963053E-04   3.828264E-04
   
  end of program der1b
   
 Time(der1b)  user:      123.2  user+sys:      123.2  wallclock:      123.8
  
  start of program geopt
  
 ----------------------------------------------------------------------------
  Geometry optimization step   1
  Total energy:     -1943.93257404128 hartrees
 ----------------------------------------------------------------------------
  
  
  Level shifts adjusted to satisfy step-size constraints
   Step size:    0.3004252
   Cos(theta):   0.2430647
   Final level shift:  -4.5717460E-01
  
  gradient maximum:        9.8722E-01 .  (  2.2500E-03 )
  gradient rms:            1.2523E-01 .  (  1.5000E-03 )
  displacement maximum:    4.9427E-02 .  (  9.0000E-03 )
  displacement rms:        9.3549E-03 .  (  6.0000E-03 )
  
  predicted energy change:  -6.5677E-02
  step size:     0.15737
  trust radius:  0.30000
  
  molecular structure not yet converged...
  
  center of mass moved by:
     x:     7.4143E-02     y:     2.1029E-02     z:    -8.2614E-03
  
  new geometry: 
                                   angstroms
  atom               x                 y                 z
  P1           -0.0378302938      0.0294507432     -0.0197261019 
  Pd2           0.0179195596      0.0625877650      2.3782145885 
  Br3           2.4412243063     -0.1788314523      2.9313790072 
  C73          -1.0605455103      0.1107352017      7.0080781360 
  C74          -0.7133261078      1.3049177020      6.3889280221 
  C75          -0.2907667894      1.2596403606      5.0584190126 
  C76          -0.2320866749      0.0514407988      4.3566566496 
  C77          -0.5633049150     -1.1352715581      5.0218604590 
  C78          -0.9914202896     -1.1116169345      6.3509590807 
  F79          -1.4716126622      0.1388106841      8.2961546941 
  H80          -0.7438724263      2.2274212455      6.9566855039 
  H81           0.0016240761      2.1846233609      4.5684456175 
  H82          -0.4920933108     -2.0906640781      4.5059509259 
  H83          -1.2585991833     -2.0220165357      6.8813516078 
  C3            1.7146084298     -0.1274911328     -0.9039266600 
  C4           -1.1888241664     -1.4557729282     -0.6128641236 
  C5           -0.7537438421      1.5652102716     -0.8592797952 
  C6            1.7639590979     -0.0985140683     -2.4499660513 
  C7            2.3545447496     -1.4491012389     -0.4226998574 
  C8           -1.0504441913     -2.5427841894      0.4802943658 
  C9           -2.6485433341     -0.9561419993     -0.6664327460 
  C10          -0.8701937418      1.4903945513     -2.2672133202 
  C11          -1.2072103587      2.5843023203     -3.0691169967 
  C12          -1.4361670223      3.8220270726     -2.4622874893 
  C13          -1.4060731008      3.8999747033     -1.0685937956 
  C14          -1.1111883438      2.7960871011     -0.2331053330 
  C15          -1.4325930735      3.0205634815      1.2275204060 
  C16          -2.7960106221      2.8291683543      1.5946228753 
  C17          -3.1982016919      3.1063722837      2.9059359105 
  C18          -2.3086486815      3.5719310531      3.8790414609 
  C19          -0.9915064572      3.8320193354      3.4781473880 
  C20          -0.5352207123      3.5855266639      2.1703380271 
  C21           0.8650911639      4.0383029561      1.7652710531 
  C22           0.8287075829      5.5089449735      1.2882673610 
  C23          -3.8615510730      2.3910418580      0.5811617257 
  C24          -4.8638649314      1.3596478143      1.1376154487 
  C25          -2.7666334322      3.7615943308      5.3205817411 
  C26           1.9237040952      3.8726245007      2.8698371858 
  C27          -4.6357818540      3.6178607100      0.0446620437 
  C28          -3.1576653183      2.4081452766      5.9603807185 
  C29          -3.9098849699      4.7893089058      5.4407132507 
  H30           1.1866650499     -0.8936397778     -2.9393612642 
  H31           1.4497797218      0.8733302762     -2.8590854907 
  H32           2.3651305944     -1.5201219536      0.6743555866 
  H33           1.8478839800     -2.3331950433     -0.8429011124 
  H34          -0.0133949001     -2.9047050965      0.5718891487 
  H35          -1.3745226387     -2.1703092192      1.4639096663 
  H36          -2.9452722540     -0.4846790040      0.2825342939 
  H37          -2.8097366277     -0.2410807574     -1.4892965707 
  H38          -0.6972096507      0.5331643781     -2.7566330610 
  H39          -1.2810508524      2.4630699909     -4.1542898754 
  H40          -1.6696588332      4.7096807502     -3.0582703065 
  H41          -1.6514942119      4.8473306412     -0.5807410643 
  H42          -4.2397698998      2.9199247584      3.1850183766 
  H43          -0.2871605460      4.2211417138      4.2195852894 
  H44           1.1739367502      3.4210667327      0.9077574153 
  H45           0.4840773054      6.1705552070      2.1028699796 
  H46           0.1504810998      5.6466651133      0.4303656040 
  H47           1.8370128818      5.8415941336      0.9825048129 
  H48          -3.3450761146      1.9150655542     -0.2691949890 
  H49          -5.5341994564      1.8038470091      1.8944951815 
  H50          -5.5043158520      0.9828626593      0.3203348597 
  H51          -4.3376909941      0.5100709253      1.5982068149 
  H52          -1.9042447019      4.1710961111      5.8815853100 
  H53           1.7556801526      4.5763352857      3.7047414422 
  H54           2.9250624614      4.0914587597      2.4596418368 
  H55           1.9360200680      2.8468165939      3.2677178957 
  H56          -5.1487278634      4.1394825589      0.8721523694 
  H57          -5.4031092864      3.3040509879     -0.6862534912 
  H58          -3.9715752185      4.3430498780     -0.4508958820 
  H59          -4.0451631186      1.9823950570      5.4586548740 
  H60          -3.4036898752      2.5393466094      7.0303456028 
  H61          -2.3338135753      1.6651372465      5.8815235013 
  H62          -4.8098960229      4.4487995820      4.8995977278 
  H63          -3.6177173724      5.7683033861      5.0234180047 
  H64          -4.1941733373      4.9355610506      6.4980860318 
  C65          -0.8637912198     -2.1226293280     -1.9675833014 
  H66          -1.5893320828     -2.9457895406     -2.1121560048 
  H67          -0.9796076579     -1.4497449205     -2.8320067459 
  H68           0.1403244764     -2.5698226177     -2.0001719070 
  C69           2.5529557118      1.0824852326     -0.4410503508 
  H70           3.5808135732      0.9699205979     -0.8360109831 
  H71           2.1436538197      2.0204879531     -0.8527681567 
  H72           2.6141606611      1.1480860974      0.6524354504 
  H73           2.8220518337     -0.2424258636     -2.7404935096 
  H74           3.4047618211     -1.4779936625     -0.7700186749 
  H75          -1.6876389454     -3.4055858939      0.2067070817 
  H76          -3.3112228774     -1.8256999550     -0.8384901719 
   
 
  bond lengths (angstroms):
 
 P1      -Pd2     :   2.398818      P1      -C3      :   1.969133
 P1      -C4      :   1.970403      P1      -C5      :   1.891016
 Pd2     -Br3     :   2.497335      Pd2     -C76     :   1.994207
 C73     -C74     :   1.389237      C73     -C78     :   1.389507
 C73     -F79     :   1.352370      C74     -C75     :   1.396732
 C74     -H80     :   1.083649      C75     -C76     :   1.398449
 C75     -H81     :   1.086812      C76     -C77     :   1.400174
 C77     -C78     :   1.396548      C77     -H82     :   1.088122
 C78     -H83     :   1.086981      C3      -C6      :   1.547098
 C3      -C7      :   1.545235      C3      -C69     :   1.543089
 C4      -C8      :   1.547817      C4      -C9      :   1.543788
 C4      -C65     :   1.544541      C5      -C10     :   1.414721
 C5      -C14     :   1.426506      C6      -H30     :   1.097725
 C6      -H31     :   1.100259      C6      -H73     :   1.106651
 C7      -H32     :   1.099403      C7      -H33     :   1.102223
 C7      -H74     :   1.106536      C8      -H34     :   1.102201
 C8      -H35     :   1.100574      C8      -H75     :   1.106930
 C9      -H36     :   1.100393      C9      -H37     :   1.101999
 C9      -H76     :   1.106743      C10     -C11     :   1.397592
 C10     -H38     :   1.088919      C11     -C12     :   1.397364
 C11     -H39     :   1.094418      C12     -C13     :   1.396196
 C12     -H40     :   1.094369      C13     -C14     :   1.415474
 C13     -H41     :   1.093488      C14     -C15     :   1.512322
 C15     -C16     :   1.424887      C15     -C20     :   1.418931
 C16     -C17     :   1.399336      C16     -C23     :   1.534417
 C17     -C18     :   1.398207      C17     -H42     :   1.094310
 C18     -C19     :   1.401152      C18     -C25     :   1.524389
 C19     -C20     :   1.406883      C19     -H43     :   1.094189
 C20     -C21     :   1.526420      C21     -C22     :   1.546494
 C21     -C26     :   1.538888      C21     -H44     :   1.100771
 C22     -H45     :   1.104570      C22     -H46     :   1.102249
 C22     -H47     :   1.104910      C23     -C24     :   1.542092
 C23     -C27     :   1.546722      C23     -H48     :   1.102908
 C24     -H49     :   1.104323      C24     -H50     :   1.104578
 C24     -H51     :   1.100356      C25     -C28     :   1.547279
 C25     -C29     :   1.541964      C25     -H52     :   1.107308
 C26     -H53     :   1.104765      C26     -H54     :   1.104023
 C26     -H55     :   1.100337      C27     -H56     :   1.104510
 C27     -H57     :   1.105217      C27     -H58     :   1.101203
 C28     -H59     :   1.104828      C28     -H60     :   1.105697
 C28     -H61     :   1.112210      C29     -H62     :   1.103980
 C29     -H63     :   1.103597      C29     -H64     :   1.104648
 C65     -H66     :   1.106754      C65     -H67     :   1.101551
 C65     -H68     :   1.099678      C69     -H70     :   1.106868
 C69     -H71     :   1.103127      C69     -H72     :   1.097160
 
  bond angles:
 
 C3      -P1      -Pd2     : 115.422149  C4      -P1      -Pd2     : 108.959629
 C4      -P1      -C3      : 108.942222  C5      -P1      -Pd2     : 116.192428
 C5      -P1      -C3      : 101.671321  C5      -P1      -C4      : 104.913844
 Br3     -Pd2     -P1      : 104.042241  C76     -Pd2     -P1      : 171.394237
 C76     -Pd2     -Br3     :  84.339064  C78     -C73     -C74     : 122.207528
 F79     -C73     -C74     : 118.856215  F79     -C73     -C78     : 118.934961
 C75     -C74     -C73     : 118.183328  H80     -C74     -C73     : 119.420778
 H80     -C74     -C75     : 122.358443  C76     -C75     -C74     : 121.246658
 H81     -C75     -C74     : 118.898721  H81     -C75     -C76     : 119.853678
 C75     -C76     -Pd2     : 119.886205  C77     -C76     -Pd2     : 120.379446
 C77     -C76     -C75     : 118.941204  C78     -C77     -C76     : 120.683954
 H82     -C77     -C76     : 120.227137  H82     -C77     -C78     : 119.088737
 C77     -C78     -C73     : 118.700146  H83     -C78     -C73     : 119.591069
 H83     -C78     -C77     : 121.705107  C6      -C3      -P1      : 118.399656
 C7      -C3      -P1      : 107.270815  C7      -C3      -C6      : 108.301788
 C69     -C3      -P1      : 106.637455  C69     -C3      -C6      : 105.530127
 C69     -C3      -C7      : 110.624032  C8      -C4      -P1      : 105.339350
 C9      -C4      -P1      : 108.592058  C9      -C4      -C8      : 109.653394
 C65     -C4      -P1      : 117.809975  C65     -C4      -C8      : 107.303510
 C65     -C4      -C9      : 107.955405  C10     -C5      -P1      : 115.470965
 C14     -C5      -P1      : 126.922917  C14     -C5      -C10     : 117.506988
 H30     -C6      -C3      : 114.530593  H31     -C6      -C3      : 112.272997
 H31     -C6      -H30     : 108.896085  H73     -C6      -C3      : 106.882640
 H73     -C6      -H30     : 106.953005  H73     -C6      -H31     : 106.873967
 H32     -C7      -C3      : 111.715589  H33     -C7      -C3      : 112.143638
 H33     -C7      -H32     : 109.452636  H74     -C7      -C3      : 108.520203
 H74     -C7      -H32     : 107.600842  H74     -C7      -H33     : 107.197850
 H34     -C8      -C4      : 111.926324  H35     -C8      -C4      : 111.542904
 H35     -C8      -H34     : 108.295418  H75     -C8      -C4      : 108.746312
 H75     -C8      -H34     : 107.831030  H75     -C8      -H35     : 108.371922
 H36     -C9      -C4      : 111.328322  H37     -C9      -C4      : 111.976144
 H37     -C9      -H36     : 109.056027  H76     -C9      -C4      : 108.498086
 H76     -C9      -H36     : 108.013273  H76     -C9      -H37     : 107.827293
 C11     -C10     -C5      : 123.331270  H38     -C10     -C5      : 118.731813
 H38     -C10     -C11     : 117.935220  C12     -C11     -C10     : 118.922666
 H39     -C11     -C10     : 119.900473  H39     -C11     -C12     : 121.175580
 C13     -C12     -C11     : 118.646739  H40     -C12     -C11     : 121.125010
 H40     -C12     -C13     : 120.194040  C14     -C13     -C12     : 123.377095
 H41     -C13     -C12     : 119.266622  H41     -C13     -C14     : 117.327121
 C13     -C14     -C5      : 117.776708  C15     -C14     -C5      : 127.249032
 C15     -C14     -C13     : 114.207608  C16     -C15     -C14     : 115.610256
 C20     -C15     -C14     : 124.502089  C20     -C15     -C16     : 119.172436
 C17     -C16     -C15     : 119.329901  C23     -C16     -C15     : 122.185215
 C23     -C16     -C17     : 118.418834  C18     -C17     -C16     : 122.363661
 H42     -C17     -C16     : 118.607057  H42     -C17     -C18     : 118.998374
 C19     -C18     -C17     : 117.435067  C25     -C18     -C17     : 120.559154
 C25     -C18     -C19     : 121.998500  C20     -C19     -C18     : 122.569674
 H43     -C19     -C18     : 118.506295  H43     -C19     -C20     : 118.909743
 C19     -C20     -C15     : 118.836562  C21     -C20     -C15     : 121.463609
 C21     -C20     -C19     : 119.488028  C22     -C21     -C20     : 110.019867
 C26     -C21     -C20     : 114.120989  C26     -C21     -C22     : 109.874114
 H44     -C21     -C20     : 107.325001  H44     -C21     -C22     : 107.430533
 H44     -C21     -C26     : 107.804737  H45     -C22     -C21     : 110.454670
 H46     -C22     -C21     : 111.922913  H46     -C22     -H45     : 107.889332
 H47     -C22     -C21     : 110.498559  H47     -C22     -H45     : 107.967594
 H47     -C22     -H46     : 107.969588  C24     -C23     -C16     : 113.828299
 C27     -C23     -C16     : 110.501056  C27     -C23     -C24     : 109.287522
 H48     -C23     -C16     : 107.895389  H48     -C23     -C24     : 107.094200
 H48     -C23     -C27     : 108.015597  H49     -C24     -C23     : 111.889989
 H50     -C24     -C23     : 109.756219  H50     -C24     -H49     : 106.999826
 H51     -C24     -C23     : 110.893629  H51     -C24     -H49     : 108.296733
 H51     -C24     -H50     : 108.880783  C28     -C25     -C18     : 110.984825
 C29     -C25     -C18     : 112.293528  C29     -C25     -C28     : 111.310026
 H52     -C25     -C18     : 106.925540  H52     -C25     -C28     : 108.108630
 H52     -C25     -C29     : 106.946606  H53     -C26     -C21     : 111.668619
 H54     -C26     -C21     : 109.628115  H54     -C26     -H53     : 107.006298
 H55     -C26     -C21     : 111.568476  H55     -C26     -H53     : 108.799916
 H55     -C26     -H54     : 107.998252  H56     -C27     -C23     : 110.315416
 H57     -C27     -C23     : 110.591981  H57     -C27     -H56     : 107.886208
 H58     -C27     -C23     : 112.117698  H58     -C27     -H56     : 107.833791
 H58     -C27     -H57     : 107.947023  H59     -C28     -C25     : 110.628728
 H60     -C28     -C25     : 110.644833  H60     -C28     -H59     : 107.844478
 H61     -C28     -C25     : 111.582566  H61     -C28     -H59     : 107.781760
 H61     -C28     -H60     : 108.221898  H62     -C29     -C25     : 111.142064
 H63     -C29     -C25     : 111.438408  H63     -C29     -H62     : 107.704306
 H64     -C29     -C25     : 110.709316  H64     -C29     -H62     : 107.469697
 H64     -C29     -H63     : 108.217472  H66     -C65     -C4      : 107.321761
 H67     -C65     -C4      : 113.730131  H67     -C65     -H66     : 106.433058
 H68     -C65     -C4      : 113.186167  H68     -C65     -H66     : 106.993412
 H68     -C65     -H67     : 108.732813  H70     -C69     -C3      : 108.525769
 H71     -C69     -C3      : 110.684049  H71     -C69     -H70     : 107.328430
 H72     -C69     -C3      : 112.095672  H72     -C69     -H70     : 108.053803
 H72     -C69     -H71     : 109.988703
 
  torsional angles:
 
 P1      -Pd2     -C76     -C75     : -98.833030
 P1      -Pd2     -C76     -C77     :  70.860995
 P1      -C3      -C6      -H30     : -59.382388
 P1      -C3      -C6      -H31     :  65.479925
 P1      -C3      -C6      -H73     :-177.641405
 P1      -C3      -C7      -H32     : -52.161913
 P1      -C3      -C7      -H33     :  71.142287
 P1      -C3      -C7      -H74     :-170.630241
 P1      -C3      -C69     -H70     : 174.171229
 P1      -C3      -C69     -H71     : -68.294139
 P1      -C3      -C69     -H72     :  54.909958
 P1      -C4      -C8      -H34     : -61.570939
 P1      -C4      -C8      -H35     :  59.943846
 P1      -C4      -C8      -H75     : 179.404021
 P1      -C4      -C9      -H36     : -52.211535
 P1      -C4      -C9      -H37     :  70.167959
 P1      -C4      -C9      -H76     :-170.941953
 P1      -C4      -C65     -H66     : 178.214496
 P1      -C4      -C65     -H67     : -64.346416
 P1      -C4      -C65     -H68     :  60.398744
 P1      -C5      -C10     -C11     :-171.185868
 P1      -C5      -C10     -H38     :   9.298341
 P1      -C5      -C14     -C13     : 168.998251
 P1      -C5      -C14     -C15     : -21.667220
 Pd2     -P1      -C3      -C6      :-177.595021
 Pd2     -P1      -C3      -C7      :  59.588871
 Pd2     -P1      -C3      -C69     : -58.958769
 Pd2     -P1      -C4      -C8      : -30.688833
 Pd2     -P1      -C4      -C9      :  86.713007
 Pd2     -P1      -C4      -C65     :-150.251933
 Pd2     -P1      -C5      -C10     :-175.553250
 Pd2     -P1      -C5      -C14     :   8.182843
 Pd2     -C76     -C75     -C74     : 167.736306
 Pd2     -C76     -C75     -H81     : -12.620897
 Pd2     -C76     -C77     -C78     :-167.541706
 Pd2     -C76     -C77     -H82     :  12.305865
 Br3     -Pd2     -P1      -C3      :  -1.232891
 Br3     -Pd2     -P1      -C4      : 121.677193
 Br3     -Pd2     -P1      -C5      :-120.141911
 Br3     -Pd2     -C76     -C75     :  94.136428
 Br3     -Pd2     -C76     -C77     : -96.169547
 C73     -C74     -C75     -C76     :   0.790362
 C73     -C74     -C75     -H81     :-178.855771
 C73     -C78     -C77     -C76     :  -1.087005
 C73     -C78     -C77     -H82     : 179.063709
 C74     -C73     -C78     -C77     :  -0.271333
 C74     -C73     -C78     -H83     : 179.043024
 C74     -C75     -C76     -C77     :  -2.105568
 C75     -C74     -C73     -C78     :   0.420190
 C75     -C74     -C73     -F79     :-179.998560
 C75     -C76     -C77     -C78     :   2.248738
 C75     -C76     -C77     -H82     :-177.903691
 C76     -Pd2     -P1      -C3      :-167.923066
 C76     -Pd2     -P1      -C4      : -45.012981
 C76     -Pd2     -P1      -C5      :  73.167914
 C76     -C75     -C74     -H80     : 178.549761
[...]
    C22      Z     0.00001 -0.00054 -0.00001 -0.00007  0.00012 -0.00003
    C23      X    -0.00000  0.00000 -0.00005 -0.00065 -0.00001 -0.00002
    C23      Y     0.00002  0.00002  0.00005  0.00013  0.00001  0.00001
    C23      Z    -0.00001 -0.00002  0.00002  0.00077  0.00003  0.00004
    C24      X    -0.00063 -0.00007 -0.00109 -0.00095  0.00003 -0.00001
    C24      Y     0.00030  0.00002  0.00055  0.00067 -0.00001 -0.00002
    C24      Z    -0.00020 -0.00002 -0.00027  0.00170  0.00001 -0.00002
    C25      X    -0.00013 -0.00000  0.00006 -0.00038  0.00008 -0.00000
    C25      Y     0.00005  0.00000 -0.00005 -0.00016 -0.00002 -0.00000
    C25      Z    -0.00008 -0.00000  0.00008  0.00026  0.00008  0.00000
    C26      X    -0.00003  0.00002 -0.00001  0.00003 -0.00005  0.00002
    C26      Y    -0.00070  0.00011 -0.00020 -0.00003 -0.00148  0.00001
    C26      Z     0.00002 -0.00000  0.00002 -0.00008  0.00012 -0.00001
    C27      X    -0.00000  0.00035 -0.00005 -0.00086 -0.00000 -0.00000
    C27      Y     0.00001  0.00054  0.00005  0.00017  0.00001  0.00002
    C27      Z     0.00000 -0.00044  0.00009  0.00181  0.00003 -0.00002
    C28      X     0.00003 -0.00001 -0.00009 -0.00078 -0.00001 -0.00001
    C28      Y     0.00004  0.00002  0.00010 -0.00035  0.00002  0.00001
    C28      Z    -0.00001  0.00001 -0.00005 -0.00109 -0.00001  0.00001
    C29      X    -0.00008  0.00000  0.00001 -0.00033  0.00009 -0.00001
    C29      Y    -0.00001  0.00001  0.00000  0.00003  0.00002  0.00001
    C29      Z    -0.00001  0.00002 -0.00001 -0.00002 -0.00001  0.00001
    H30      X    -0.00001 -0.00106 -0.00007  0.00004  0.00001  0.00421
    H30      Y    -0.00001 -0.00119 -0.00006  0.00004 -0.00001  0.00209
    H30      Z    -0.00002 -0.00160 -0.00007  0.00006 -0.00005  0.00380
    H31      X    -0.00001 -0.00044 -0.00004 -0.00002  0.00005  0.00388
    H31      Y     0.00001  0.00281  0.00008  0.00016 -0.00011 -0.01728
    H31      Z    -0.00000 -0.00030 -0.00000 -0.00002  0.00001  0.00180
    H32      X     0.00007 -0.00003  0.00010 -0.00000 -0.00003 -0.00000
    H32      Y     0.00010 -0.00006  0.00018 -0.00002 -0.00009 -0.00027
    H32      Z    -0.00028  0.00016 -0.00049  0.00003  0.00030  0.00039
    H33      X    -0.00006  0.00022 -0.00014  0.00008  0.00001  0.00000
    H33      Y    -0.00012  0.00032 -0.00022  0.00014 -0.00002  0.00011
    H33      Z    -0.00012  0.00039 -0.00023  0.00015 -0.00004 -0.00000
    H34      X     0.00022 -0.00017  0.00018  0.00013 -0.00032 -0.00016
    H34      Y    -0.00007  0.00004 -0.00003 -0.00005  0.00010 -0.00005
    H34      Z     0.00002 -0.00003  0.00002 -0.00000 -0.00001  0.00000
    H35      X     0.00015  0.00010  0.00018 -0.00002  0.00003 -0.00072
    H35      Y    -0.00007 -0.00007 -0.00003 -0.00002 -0.00004  0.00032
    H35      Z    -0.00044 -0.00029 -0.00049 -0.00002 -0.00002  0.00175
    H36      X     0.00059  0.00036  0.00062 -0.00031 -0.00003 -0.00117
    H36      Y    -0.00021 -0.00011 -0.00020  0.00004 -0.00001  0.00014
    H36      Z    -0.00145 -0.00096 -0.00147  0.00069  0.00001  0.00309
    H37      X    -0.00008 -0.00030 -0.00007 -0.00006  0.00001  0.00097
    H37      Y     0.00041  0.00040  0.00040  0.00017 -0.00008 -0.00235
    H37      Z    -0.00023 -0.00029 -0.00022 -0.00017  0.00005  0.00088
    H38      X    -0.00003  0.04258 -0.00043  0.00064  0.00047 -0.39760
    H38      Y     0.00005 -0.06610  0.00068 -0.00100 -0.00071  0.62139
    H38      Z     0.00005 -0.06501  0.00069 -0.00089 -0.00072  0.58031
    H39      X    -0.00000 -0.00517 -0.00000 -0.00003  0.00001  0.00024
    H39      Y     0.00001 -0.05865  0.00019 -0.00011 -0.00013 -0.02591
    H39      Z    -0.00007  0.41487 -0.00123  0.00085  0.00079  0.15379
    H40      X     0.00003  0.30974 -0.00062  0.00119  0.00041  0.01255
    H40      Y    -0.00006 -0.60049  0.00120 -0.00232 -0.00080 -0.02394
    H40      Z     0.00003  0.26522 -0.00052  0.00108  0.00035  0.00916
    H41      X    -0.00002  0.18616 -0.00059  0.00077  0.00061  0.00771
    H41      Y     0.00004 -0.28544  0.00091 -0.00132 -0.00093 -0.01186
    H41      Z     0.00003 -0.27240  0.00083 -0.00132 -0.00083 -0.01143
    H42      X     0.00403 -0.00294  0.07764  0.84592  0.00447  0.00102
    H42      Y     0.00129 -0.00092  0.02281  0.24447  0.00128  0.00027
    H42      Z    -0.00164  0.00119 -0.03279 -0.35571 -0.00191 -0.00047
    H43      X    -0.00246 -0.00162 -0.00172 -0.00291 -0.01095 -0.00034
    H43      Y    -0.00236 -0.00163 -0.00159 -0.00209 -0.01077 -0.00035
    H43      Z    -0.00217 -0.00149 -0.00131 -0.00123 -0.00928 -0.00035
    H44      X    -0.00000  0.00017 -0.00006 -0.00016  0.00013  0.00011
    H44      Y     0.00013 -0.00018  0.00012  0.00031  0.00001 -0.00008
    H44      Z     0.00027 -0.00027  0.00027  0.00070 -0.00002 -0.00016
    H45      X    -0.00001 -0.00036 -0.00002 -0.00009  0.00011  0.00001
    H45      Y     0.00000  0.00112  0.00010  0.00039 -0.00048 -0.00001
    H45      Z    -0.00001  0.00201  0.00014  0.00054 -0.00069  0.00001
    H46      X     0.00000  0.00595 -0.00009  0.00007 -0.00042  0.00033
    H46      Y    -0.00002 -0.00156  0.00001 -0.00001 -0.00000 -0.00008
    H46      Z     0.00001  0.00496 -0.00008  0.00006 -0.00031  0.00027
    H47      X     0.00018  0.00121 -0.00005 -0.00035  0.00071 -0.00014
    H47      Y     0.00008  0.00035 -0.00001 -0.00009  0.00033 -0.00008
    H47      Z    -0.00010 -0.00050  0.00003  0.00018 -0.00036  0.00008
    H48      X     0.00003 -0.00020  0.00023  0.00423  0.00012  0.00015
    H48      Y     0.00003 -0.00001  0.00006 -0.00059 -0.00008 -0.00022
    H48      Z     0.00004  0.00027  0.00015 -0.00407 -0.00030 -0.00044
    H49      X    -0.00038  0.00006 -0.00046  0.01087  0.00005 -0.00003
    H49      Y     0.00011 -0.00002  0.00006 -0.00518 -0.00001  0.00004
    H49      Z     0.00030 -0.00018  0.00009 -0.02222 -0.00016  0.00004
    H50      X     0.00198  0.00027  0.00297 -0.00227 -0.00012  0.00030
    H50      Y     0.00143  0.00024  0.00232 -0.00105 -0.00013  0.00019
    H50      Z     0.00195  0.00026  0.00315 -0.00223 -0.00011  0.00021
    H51      X     0.00696  0.00074  0.01315  0.00351 -0.00046 -0.00009
    H51      Y    -0.00552 -0.00066 -0.01028 -0.00284  0.00033  0.00004
    H51      Z     0.00208  0.00022  0.00470  0.00090 -0.00026 -0.00006
    H52      X     0.00091  0.00003 -0.00099 -0.00079 -0.00089  0.00001
    H52      Y    -0.00023 -0.00001  0.00008 -0.00044  0.00051 -0.00000
    H52      Z     0.00080 -0.00003 -0.00092 -0.00209 -0.00082 -0.00002
    H53      X    -0.00015  0.00004 -0.00002  0.00001 -0.00018 -0.00001
    H53      Y     0.00067 -0.00021  0.00003  0.00038  0.00043 -0.00002
    H53      Z     0.00143 -0.00046  0.00022  0.00066  0.00142 -0.00007
    H54      X     0.00150 -0.00039  0.00042 -0.00039  0.00338 -0.00027
    H54      Y     0.00042 -0.00009  0.00013 -0.00012  0.00059 -0.00010
    H54      Z    -0.00088  0.00020 -0.00028  0.00026 -0.00202  0.00013
    H55      X    -0.00046  0.00017 -0.00013 -0.00003 -0.00030  0.00003
    H55      Y     0.00812 -0.00131  0.00248  0.00004  0.02056 -0.00010
    H55      Z    -0.00206  0.00032 -0.00064  0.00004 -0.00667  0.00001
    H56      X     0.00006 -0.00122  0.00074  0.01091  0.00018  0.00001
    H56      Y    -0.00003  0.00065 -0.00039 -0.00627 -0.00009 -0.00002
    H56      Z    -0.00011  0.00228 -0.00123 -0.01802 -0.00028 -0.00001
    H57      X     0.00007 -0.00076 -0.00003 -0.00173 -0.00015  0.00015
    H57      Y     0.00003 -0.00067 -0.00010 -0.00200 -0.00010  0.00008
    H57      Z     0.00005 -0.00070 -0.00009 -0.00196 -0.00013  0.00012
    H58      X    -0.00007 -0.00233 -0.00008  0.00207  0.00000 -0.00010
    H58      Y    -0.00016 -0.00668 -0.00013  0.00571 -0.00001 -0.00027
    H58      Z     0.00009  0.00376  0.00008 -0.00324  0.00002  0.00015
    H59      X    -0.00024  0.00005  0.00103  0.01237  0.00003  0.00004
    H59      Y     0.00043 -0.00002 -0.00024 -0.00269 -0.00005 -0.00001
    H59      Z    -0.00027  0.00004  0.00094  0.01034  0.00007  0.00004
    H60      X    -0.00002  0.00004  0.00006 -0.00024  0.00001  0.00002
    H60      Y     0.00011 -0.00009  0.00006  0.00454  0.00002 -0.00005
    H60      Z     0.00011 -0.00023  0.00013  0.00882  0.00002 -0.00013
    H61      X     0.00026 -0.00000  0.00023 -0.00041 -0.00009 -0.00001
    H61      Y    -0.00149 -0.00016 -0.00033  0.00678 -0.00020 -0.00004
    H61      Z     0.00046  0.00002  0.00004  0.00003  0.00003  0.00002
    H62      X     0.00056 -0.00000 -0.00006  0.00177 -0.00036  0.00002
    H62      Y    -0.00025 -0.00000  0.00006 -0.00070  0.00009 -0.00001
    H62      Z     0.00051  0.00002 -0.00005  0.00164 -0.00029  0.00003
    H63      X     0.00079 -0.00006 -0.00025  0.00209 -0.00081  0.00002
    H63      Y     0.00047 -0.00002 -0.00017  0.00116 -0.00044  0.00002
    H63      Z    -0.00038  0.00003  0.00012 -0.00075  0.00036  0.00000
    H64      X    -0.00005  0.00006  0.00003  0.00046  0.00002  0.00004
    H64      Y    -0.00004 -0.00014 -0.00001 -0.00114 -0.00003 -0.00008
    H64      Z    -0.00004 -0.00027 -0.00000 -0.00177  0.00000 -0.00016
    C65      X    -0.00000  0.00046 -0.00002  0.00000  0.00003 -0.00147
    C65      Y     0.00001 -0.00078  0.00002 -0.00002 -0.00001  0.00293
    C65      Z    -0.00000  0.00047  0.00001  0.00000 -0.00001 -0.00217
    H66      X    -0.00003  0.00088 -0.00020  0.00011  0.00015 -0.00229
    H66      Y    -0.00005  0.00110 -0.00035  0.00017  0.00027 -0.00255
    H66      Z    -0.00003  0.00054 -0.00026  0.00009  0.00021 -0.00145
    H67      X     0.00001 -0.00128  0.00002 -0.00003 -0.00000  0.00465
    H67      Y    -0.00006  0.00819 -0.00006  0.00015 -0.00001 -0.03842
    H67      Z     0.00005 -0.00654  0.00008 -0.00014 -0.00002  0.02911
    H68      X     0.00002 -0.00496  0.00021 -0.00006 -0.00030  0.01408
    H68      Y    -0.00000  0.00120 -0.00003  0.00000  0.00006 -0.00335
    H68      Z     0.00000  0.00017  0.00001 -0.00001 -0.00000 -0.00051
    C69      X    -0.00000  0.00003 -0.00002  0.00002  0.00005  0.00005
    C69      Y     0.00002 -0.00003  0.00001 -0.00002  0.00001  0.00011
    C69      Z    -0.00002  0.00002 -0.00001  0.00000 -0.00005 -0.00010
    H70      X     0.00002 -0.00038  0.00025 -0.00017 -0.00057 -0.00060
    H70      Y     0.00000 -0.00000  0.00002  0.00001 -0.00001  0.00005
    H70      Z    -0.00000  0.00005 -0.00003  0.00003  0.00009  0.00009
    H71      X     0.00006 -0.00004  0.00004 -0.00005 -0.00001  0.00038
    H71      Y    -0.00020  0.00027 -0.00018  0.00022  0.00008 -0.00101
    H71      Z     0.00002  0.00001  0.00002 -0.00003 -0.00001 -0.00002
    H72      X    -0.00004  0.00005 -0.00005  0.00002 -0.00006 -0.00017
    H72      Y    -0.00007  0.00009 -0.00002 -0.00001 -0.00024 -0.00040
    H72      Z     0.00024 -0.00025  0.00016 -0.00001  0.00070  0.00107
    H73      X     0.00003 -0.00215  0.00034 -0.00016 -0.00048  0.00614
    H73      Y     0.00000  0.00031  0.00002  0.00001 -0.00001 -0.00147
    H73      Z    -0.00002  0.00013 -0.00012  0.00002  0.00016 -0.00002
    H74      X     0.00004 -0.00036  0.00027 -0.00007 -0.00046 -0.00033
    H74      Y    -0.00000  0.00004 -0.00001  0.00001  0.00001  0.00016
    H74      Z     0.00000  0.00003 -0.00001  0.00000  0.00005 -0.00001
    H75      X    -0.00004  0.00019 -0.00027  0.00013  0.00011  0.00021
    H75      Y    -0.00005  0.00032 -0.00040  0.00020  0.00018  0.00038
    H75      Z    -0.00002  0.00011 -0.00020  0.00011  0.00007  0.00014
    H76      X    -0.00012  0.00026 -0.00030  0.00023  0.00014  0.00026
    H76      Y    -0.00017  0.00046 -0.00039  0.00039  0.00017  0.00040
    H76      Z    -0.00006  0.00022 -0.00020  0.00022  0.00010  0.00007
  
  Number of imaginary frequencies:   0
   
  Writing vibrational animation data to ox_add_Br_trans_L1_PL274.vib
  Writing IR vibrational spectrum data to ox_add_Br_trans_L1_PL274_vib.spm
  rotational symmetry number:  1

  rotational temperatures (K):      0.005270      0.003585      0.002936
   
  The Quasi-Harmonic approximation will be applied to compute
  vibrational constributions to thermodynamic properties.
  Frequencies will be adjusted to a minimum value of  100.00 cm^-1.

  vibrational temperatures:
       mode:      1        2        3        4        5        6
  temp. (K):   143.88   143.88   143.88   143.88   143.88   143.88
   
       mode:      7        8        9       10       11       12
  temp. (K):   143.88   143.88   143.88   143.88   143.88   143.88
   
       mode:     13       14       15       16       17       18
  temp. (K):   155.72   157.72   166.21   172.83   179.59   183.29
   
       mode:     19       20       21       22       23       24
  temp. (K):   204.20   206.03   217.11   226.05   238.28   256.74
   
       mode:     25       26       27       28       29       30
  temp. (K):   265.23   288.11   297.57   304.51   325.67   332.02
   
       mode:     31       32       33       34       35       36
  temp. (K):   342.72   351.11   354.35   368.48   369.90   374.29
   
       mode:     37       38       39       40       41       42
  temp. (K):   377.07   383.00   391.40   396.99   406.76   417.78
   
       mode:     43       44       45       46       47       48
  temp. (K):   425.16   441.51   451.98   456.50   459.13   469.77
   
       mode:     49       50       51       52       53       54
  temp. (K):   481.83   493.03   497.36   500.86   516.44   522.34
   
       mode:     55       56       57       58       59       60
  temp. (K):   544.49   555.94   569.55   584.02   587.90   595.52
   
       mode:     61       62       63       64       65       66
  temp. (K):   596.59   600.95   614.06   620.37   651.68   682.53
   
       mode:     67       68       69       70       71       72
  temp. (K):   709.84   717.96   736.35   745.52   758.43   807.09
   
       mode:     73       74       75       76       77       78
  temp. (K):   816.58   826.16   847.98   858.95   880.45   883.23
   
       mode:     79       80       81       82       83       84
  temp. (K):   903.49   911.48   947.36   962.17   987.26  1017.25
   
       mode:     85       86       87       88       89       90
  temp. (K):  1079.11  1117.96  1136.70  1147.56  1181.10  1192.36
   
       mode:     91       92       93       94       95       96
  temp. (K):  1199.47  1203.49  1204.02  1211.61  1239.20  1303.59
   
       mode:     97       98       99      100      101      102
  temp. (K):  1311.46  1317.20  1339.20  1354.44  1370.84  1371.16
   
       mode:    103      104      105      106      107      108
  temp. (K):  1372.54  1372.74  1377.77  1383.01  1383.76  1387.62
   
       mode:    109      110      111      112      113      114
  temp. (K):  1391.92  1396.04  1411.96  1416.37  1421.88  1423.29
   
       mode:    115      116      117      118      119      120
  temp. (K):  1425.80  1435.74  1464.44  1474.22  1476.39  1507.16
   
       mode:    121      122      123      124      125      126
  temp. (K):  1519.80  1522.34  1526.92  1541.53  1550.80  1577.40
   
       mode:    127      128      129      130      131      132
  temp. (K):  1589.29  1596.84  1619.92  1637.82  1642.02  1648.67
   
       mode:    133      134      135      136      137      138
  temp. (K):  1654.78  1670.10  1684.06  1720.12  1722.57  1737.22
   
       mode:    139      140      141      142      143      144
  temp. (K):  1741.56  1745.54  1753.79  1763.75  1775.21  1786.28
   
       mode:    145      146      147      148      149      150
  temp. (K):  1797.49  1799.46  1818.41  1835.87  1858.03  1863.64
   
       mode:    151      152      153      154      155      156
  temp. (K):  1871.11  1900.68  1917.37  1921.86  1933.36  1944.39
   
       mode:    157      158      159      160      161      162
  temp. (K):  1950.54  1963.86  1970.15  1997.57  2024.97  2045.32
   
       mode:    163      164      165      166      167      168
  temp. (K):  2047.87  2050.32  2051.13  2052.62  2053.67  2058.29
   
       mode:    169      170      171      172      173      174
  temp. (K):  2060.37  2079.37  2080.65  2082.73  2098.20  2110.11
   
       mode:    175      176      177      178      179      180
  temp. (K):  2118.33  2126.18  2142.86  2163.39  2164.74  2170.12
   
       mode:    181      182      183      184      185      186
  temp. (K):  2171.83  2177.53  2180.01  2181.88  2183.32  2185.17
   
       mode:    187      188      189      190      191      192
  temp. (K):  2186.35  2188.21  2190.03  2192.49  2197.40  2199.84
   
       mode:    193      194      195      196      197      198
  temp. (K):  2201.78  2204.47  2207.81  2208.58  2213.08  2214.62
   
       mode:    199      200      201      202      203      204
  temp. (K):  2217.30  2221.79  2222.70  2233.40  2242.24  2290.16
   
       mode:    205      206      207      208      209      210
  temp. (K):  2338.62  2361.81  2366.88  2377.10  2398.09  4377.75
   
       mode:    211      212      213      214      215      216
  temp. (K):  4378.85  4378.94  4379.33  4380.05  4383.09  4383.92
   
       mode:    217      218      219      220      221      222
  temp. (K):  4385.60  4385.99  4386.70  4388.28  4391.02  4393.91
   
       mode:    223      224      225      226      227      228
  temp. (K):  4451.17  4483.07  4484.99  4486.15  4487.13  4490.84
   
       mode:    229      230      231      232      233      234
  temp. (K):  4492.59  4493.61  4493.77  4493.89  4497.28  4498.87
   
       mode:    235      236      237      238      239      240
  temp. (K):  4499.68  4503.26  4507.59  4513.56  4515.87  4524.88
   
       mode:    241      242      243      244      245      246
  temp. (K):  4528.01  4530.83  4542.22  4552.54  4558.54  4564.49
   
       mode:    247      248      249      250      251      252
  temp. (K):  4570.79  4579.17  4584.41  4588.28  4599.20  4599.92
   
       mode:    253      254      255      256      257      258
  temp. (K):  4602.18  4618.66  4630.99  4637.89  4640.20  4673.28
   
   
  Thermodynamic properties calculated assuming an ideal gas

  In the table below, the units for temperature
  are kelvins, the units for U, H, and G are
  kcal/mol and the units for Cv and S are cal/(mol K)

  The zero point energy (ZPE):    480.505 kcal/mol
  is not included in U, H, or G in the table below
  
 
  =============================================================================
  Thermodynamic properties for P = 1.00E+00 atm, calculated at   1 temperatures


  T =   298.15 K, P = 1.00E+00 atm
   
                  U         Cv          S          H          G        ln(Q)
              =========  =========  =========  =========  =========  =========
  trans.          0.889      2.981     45.536      1.481    -12.095   20.41467
  rot.            0.889      2.981     37.702      0.889    -10.352   17.47250
  vib.           24.882    162.617    149.636     24.882    -19.732   33.30367
  elec.           0.000      0.000      0.000      0.000      0.000    0.00000
  ----------------------------------------------------------------------------
  total          26.660    168.578    232.875     27.252    -42.180   71.19084
   
   Total internal energy, Utot(SCFE + ZPE + U):   -1943.257169 hartrees
   Total enthalpy, Htot (Utot + nRT), with n=1:   -1943.256225 hartrees
    Total Gibbs free energy, Gtot (Htot - T*S):   -1943.366871 hartrees
   
  end of program freq
   
 Time(freq)  user:        2.1  user+sys:        2.1  wallclock:        2.4
  
  start of program post
  
  Writing input files for PBF
  end of program post
   
 Time(post)  user:        2.1  user+sys:        2.1  wallclock:        2.2

 Total cpu seconds     user:   68892.155   user+sys:   68892.155
  
 Total elapsed time:    69785 seconds

Job ox_add_Br_trans_L1_PL274 completed on bp1-compute174.data.bp.acrc.priv at Tue Mar 19 13:10:00 2024
