Job ox_add_TS_L1_PL274_3 started on bp1-compute134 at Thu Dec  4 18:18:14 2025
jobid: bp1-compute134-0-6931cfba

  +--------------------------------------------------------------------+
  |  Jaguar version 12.5, release 138                                  |
  |                                                                    |
  |  Copyright Schrodinger, Inc.                                       |
  |  All Rights Reserved.                                              |
  |                                                                    |
  |  The following have contributed to Jaguar (listed alphabetically): |
  |  Ty Balduf, Mike Beachy, Chandler Bennett, Art Bochevarov,         |
  |  Dale Braden, Yixiang Cao, Alan Chien, Chris Cortis,               |
  |  Rich Friesner, Jim Furness, Bill Goddard, Hod Greeley,            |
  |  Tom Hughes, Leif Jacobson, Jean-Marc Langlois, Daniel Levine,     |
  |  Rob Murphy, Dean Philipp, Tom Pollard, Murco Ringnalda,           |
  |  Daniel Mainz, Pablo Videla, Mark Watson, Haoyu Yu.                |
  |                                                                    |
  |  Use of this program should be acknowledged in publications as:    |
  |                                                                    |
  |  Jaguar, version 12.5, Schrodinger, Inc., New York, NY, 2024.      |
  |                                                                    |
  |  A. D. Bochevarov, E. Harder, T. F. Hughes, J. R. Greenwood,       |
  |  D. A. Braden, D. M. Philipp, D. Rinaldo, M. D. Halls,             |
  |  J. Zhang, R. A. Friesner, "Jaguar: A High-Performance Quantum     |
  |  Chemistry Software Program with Strengths in Life and Materials   |
  |  Sciences", Int. J. Quantum Chem., 2013, 113(18), 2110-2142.       |
  +--------------------------------------------------------------------+
  
  start of program pre
  
  Job name: ox_add_TS_L1_PL274_3
  Executables used: /software/local/apps/schrodinger2024-3/jaguar-v12.5/bin/Linux-x86_64
  Temporary files : /tmp/ar21627/ox_add_TS_L1_PL274_3#bp1-compute134-0-6931cfba
  Basis file : using default basis file from /software/local/apps/schrodinger2024-3
  Maestro file (input):  ox_add_TS_L1_PL274_3.mae
  Maestro file (output): ox_add_TS_L1_PL274_3.01.mae
  
 Contents of input file: &gen and (if present) &atomic sections only
 ----------------Contents start----------------
&gen
dftname=b3pw91-d3
basis=6-31G*
numd=5
ip11=2
iaccg=3
isolv=2
igeopt=2
solvent=benzene
ifreq=1
&
&atomic
atom basis
Pd2 lacv3p*
Br3 lacv3p*
&
 -----------------Contents end-----------------
 
  PS calculation requested. Using PS version of 6-31g*
  basis set:               non_standard                    
  net molecular charge:    0
  multiplicity:            1
  
  Using up to  18 threads per process
  
  This run will use ECP on            2  atoms
  number of basis functions....          660
  
 Input geometry:
                                   angstroms
  atom               x                 y                 z
  P1            0.1759209026      0.0335149699     -0.1015528650 
  Pd2          -0.1403881499      0.4034616418      2.2092028099 
  Br3          -0.6553906783     -1.2205193339      4.2842655415 
  C73          -0.9382299164      3.6877549909      4.8885876400 
  C74           0.3134403301      3.0931740860      5.0064870942 
  C75           0.4781325863      1.7741592354      4.5853978938 
  C76          -0.6128014676      1.1061657248      4.0115422205 
  C77          -1.8855977373      1.6994272210      3.9403635721 
  C78          -2.0399558452      3.0177793316      4.3684559802 
  F79          -1.0924879273      4.9604300609      5.3073425477 
  H80           1.1404938458      3.6611986974      5.4249886228 
  H81           1.4388186281      1.2786059659      4.6700853830 
  H82          -2.7368679422      1.1327116752      3.5741965587 
  H83          -3.0006622526      3.5229496568      4.3132252600 
  C3            1.8821346745     -0.1280815149     -0.7970931096 
  C4           -0.5336092185      1.5576168472     -1.0135700355 
  C5           -0.7206829830     -1.5791571024     -0.5845991016 
  C6            3.0726726662      0.1519721400      1.4911232143 
  C7            3.5809011495      1.3259643167      2.0677153069 
  C8            3.8504613079      1.3913541767      3.4326659326 
  C9            3.6254761732      0.2771865904      4.2434137709 
  C10           3.0840411997     -0.8819857019      3.6886767443 
  C11           2.8032530690     -0.9432338740      2.3240716894 
  C12           3.0348859863      0.0273306029      0.0061783821 
  C13           4.2982828767      0.0434130609     -0.6131437557 
  C14           4.4512314754     -0.1099689277     -1.9854571063 
  C15           3.3192237475     -0.2861490592     -2.7776548077 
  C16           2.0621707730     -0.2880881528     -2.1833517107 
  C17           0.5613884587      2.6360442115     -0.9316659085 
  C18          -0.9599489810      1.3630929729     -2.4726210676 
  C19          -1.7515654701      2.0543741973     -0.2123364866 
  C20          -2.2045812195     -1.4116359304     -0.2228086564 
  C21          -0.1050921067     -2.6537361129      0.3306883215 
  C22          -0.6025869389     -2.0730669314     -2.0323169936 
  C35           3.8643250298      2.5419761353      1.1662796959 
  H24           4.2486313362      2.3084700797      3.8618924823 
  C37           3.9534417005      0.3331548552      5.7470447650 
  H26           2.8713463427     -1.7419952272      4.3172843196 
  C39           2.2558004045     -2.2467458952      1.7135375047 
  H28           5.1775001309      0.1604890247      0.0165407874 
  H29           5.4445913488     -0.0990707291     -2.4283023516 
  H30           3.4085520340     -0.4141978657     -3.8541110310 
  H31           1.1972672816     -0.3968507948     -2.8247607277 
  H32           1.4228729101      2.3976886916     -1.5633928100 
  H33           0.1502604708      3.5989178243     -1.2632356477 
  H34           0.9201478565      2.7606379560      0.0985205453 
  H35          -0.1333336960      1.0518979748     -3.1172783260 
  H36          -1.7745632490      0.6383817010     -2.5706222295 
  H37          -1.3286608586      2.3206499899     -2.8665941044 
  H38          -1.4873338732      2.2693531905      0.8309938048 
  H39          -2.1276049906      2.9823295153     -0.6649868612 
  H40          -2.5724122375      1.3313287751     -0.2053330376 
  H41          -2.3286028292     -1.0178192492      0.7937061958 
  H42          -2.7260911528     -0.7472833931     -0.9205312436 
  H43          -2.7025346467     -2.3895044971     -0.2673300934 
  H44          -0.2324435520     -2.4085865538      1.3909142011 
  H45          -0.5947652888     -3.6186917847      0.1419821363 
  H46           0.9654298497     -2.7802335783      0.1277796304 
  H47          -0.9581849704     -1.3455595914     -2.7672740721 
  H48           0.4250967128     -2.3525758717     -2.2823244424 
  H49          -1.2181312419     -2.9763388706     -2.1450825162 
  C62           3.6119006158     -1.0198739985      6.3983992065 
  C63           5.4530135367      0.6287640908      5.9354578428 
  H64           3.3662577636      1.1212583975      6.2184340210 
  H65           5.6851449813      0.6683779925      6.9997161438 
  H66           6.0411162441     -0.1591627006      5.4649192397 
  H67           5.6956724256      1.5866041213      5.4752848976 
  H68           3.8440320604     -0.9802600969      7.4626575075 
  H69           2.5505085302     -1.2297559923      6.2661252889 
  H70           4.1990777278     -1.8086296211      5.9280933412 
  C71           2.0454107848     -3.2879515838      2.8285383665 
  H72           1.3047121755     -2.0461419439      1.2202939184 
  C79           3.2616989935     -2.7943260642      0.6840114063 
  H74           1.6579280548     -4.2105672352      2.3964070279 
  H75           2.9961180186     -3.4897343112      3.3220355667 
  H76           1.3330626065     -2.9015573832      3.5574825307 
  H77           2.8742162634     -3.7169417155      0.2518800677 
  H78           3.4108416046     -2.0582994034     -0.1060020343 
  H79           4.2130177002     -2.9958606278      1.1764304736 
  C80           3.5159087896      3.8362998565      1.9245225517 
  C81           5.3550815162      2.5594529446      0.7803526828 
  H84           3.2566756941      2.4754002996      0.2638219722 
  H85           3.7165140036      4.6969835464      1.2864934504 
  H86           2.4607302908      3.8251919455      2.1976066960 
  H87           4.1235254513      3.9041377306      2.8269082870 
  H88           5.5556867301      3.4201366345      0.1423235815 
  H89           5.9636227978      2.6266489006      1.6821632017 
  H90           5.6025797620      1.6439608207      0.2430270932 
   
  principal moments of inertia:
        amu*angstrom^2:              5481.26416              6602.77737              7614.73398
                g*cm^2:          9.10185214E-37          1.09641684E-36          1.26445617E-36
   
  rotational constants:
               cm^(-1):      0.00307550      0.00255311      0.00221382
                   GHz:      0.09220118      0.07654037      0.06636857
   
  Molecular weight:     704.18 amu
   
  Stoichiometry: PdC35PH49BrF
  Molecular Point Group: C1      
  Point Group used: C1
  
 
Number of optimization coordinates:   283
Number of independent coordinates:    283
Number of non-redundant coordinates:  258
Number of frozen coordinates:           0
Number of harmonic constraints:         0
 
Number of geometric degrees of freedom:   258
Maximum geometric degrees of freedom:     258
 " " " " " excluding dummy atoms:         258
 
 
  bond lengths (angstroms):
 
 P1      -Pd2     :   2.361462      P1      -C3      :   1.849609
 P1      -C4      :   1.912615      P1      -C5      :   1.907339
 Pd2     -Br3     :   2.684851      Pd2     -C76     :   1.991330
 C73     -C74     :   1.390721      C73     -C78     :   1.390397
 C73     -F79     :   1.348649      C74     -C75     :   1.394360
 C74     -H80     :   1.087112      C75     -C76     :   1.402021
 C75     -H81     :   1.084280      C76     -C77     :   1.406071
 C77     -C78     :   1.394683      C77     -H82     :   1.086235
 C78     -H83     :   1.086832      C3      -C12     :   1.413589
 C3      -C16     :   1.407028      C4      -C17     :   1.539069
 C4      -C18     :   1.532460      C4      -C19     :   1.540182
 C5      -C20     :   1.536525      C5      -C21     :   1.539943
 C5      -C22     :   1.534204      C6      -C7      :   1.403215
 C6      -C11     :   1.402094      C6      -C12     :   1.490646
 C7      -C8      :   1.392849      C7      -C35     :   1.540000
 C8      -C9      :   1.396173      C8      -H24     :   1.088061
 C9      -C10     :   1.394477      C9      -C37     :   1.540000
 C10     -C11     :   1.394539      C10     -H26     :   1.086279
 C11     -C39     :   1.540000      C12     -C13     :   1.407121
 C13     -C14     :   1.389303      C13     -H28     :   1.087765
 C14     -C15     :   1.392860      C14     -H29     :   1.087656
 C15     -C16     :   1.390461      C15     -H30     :   1.087720
 C16     -H31     :   1.082263      C17     -H32     :   1.094554
 C17     -H33     :   1.098221      C17     -H34     :   1.097960
 C18     -H35     :   1.093489      C18     -H36     :   1.094718
 C18     -H37     :   1.099126      C19     -H38     :   1.097530
 C19     -H39     :   1.098817      C19     -H40     :   1.093907
 C20     -H41     :   1.097167      C20     -H42     :   1.095515
 C20     -H43     :   1.098256      C21     -H44     :   1.095626
 C21     -H45     :   1.098421      C21     -H46     :   1.096901
 C22     -H47     :   1.093562      C22     -H48     :   1.093966
 C22     -H49     :   1.098868      C35     -C80     :   1.540000
 C35     -C81     :   1.540000      C35     -H84     :   1.090000
 C37     -C62     :   1.540000      C37     -C63     :   1.540000
 C37     -H64     :   1.090000      C39     -C71     :   1.540000
 C39     -H72     :   1.090000      C39     -C79     :   1.540000
 C62     -H68     :   1.090000      C62     -H69     :   1.090000
 C62     -H70     :   1.090000      C63     -H65     :   1.090000
 C63     -H66     :   1.090000      C63     -H67     :   1.090000
 C71     -H74     :   1.090000      C71     -H75     :   1.090000
 C71     -H76     :   1.090000      C79     -H77     :   1.090000
 C79     -H78     :   1.090000      C79     -H79     :   1.090000
 C80     -H85     :   1.090000      C80     -H86     :   1.090000
 C80     -H87     :   1.090000      C81     -H88     :   1.090000
 C81     -H89     :   1.090000      C81     -H90     :   1.090000
 
  bond angles:
 
 C3      -P1      -Pd2     : 120.346038  C4      -P1      -Pd2     : 106.982294
 C4      -P1      -C3      : 103.445388  C5      -P1      -Pd2     : 108.500343
 C5      -P1      -C3      : 105.339028  C5      -P1      -C4      : 112.247463
 Br3     -Pd2     -P1      : 133.410217  C76     -Pd2     -P1      : 166.585680
 C76     -Pd2     -Br3     :  57.887339  C78     -C73     -C74     : 122.605959
 F79     -C73     -C74     : 118.690010  F79     -C73     -C78     : 118.700850
 C75     -C74     -C73     : 119.021251  H80     -C74     -C73     : 119.601175
 H80     -C74     -C75     : 121.377427  C76     -C75     -C74     : 118.842771
 H81     -C75     -C74     : 120.890628  H81     -C75     -C76     : 120.240773
 C75     -C76     -Pd2     : 110.731839  C77     -C76     -Pd2     : 108.531237
 C77     -C76     -C75     : 121.604547  C78     -C77     -C76     : 118.913169
 H82     -C77     -C76     : 120.420410  H82     -C77     -C78     : 120.657552
 C77     -C78     -C73     : 118.856275  H83     -C78     -C73     : 119.700388
 H83     -C78     -C77     : 121.439943  C12     -C3      -P1      : 121.935376
 C16     -C3      -P1      : 119.898593  C16     -C3      -C12     : 117.905828
 C17     -C4      -P1      : 105.608014  C18     -C4      -P1      : 117.132972
 C18     -C4      -C17     : 109.727430  C19     -C4      -P1      : 107.596595
 C19     -C4      -C17     : 107.995170  C19     -C4      -C18     : 108.435623
 C20     -C5      -P1      : 107.587752  C21     -C5      -P1      : 104.569762
 C21     -C5      -C20     : 108.795250  C22     -C5      -P1      : 118.358830
 C22     -C5      -C20     : 109.367428  C22     -C5      -C21     : 107.784787
 C11     -C6      -C7      : 118.620621  C12     -C6      -C7      : 119.240351
 C12     -C6      -C11     : 121.440828  C8      -C7      -C6      : 120.800488
 C35     -C7      -C6      : 119.128068  C35     -C7      -C8      : 120.061912
 C9      -C8      -C7      : 120.027191  H24     -C8      -C7      : 119.800330
 H24     -C8      -C9      : 120.167724  C10     -C9      -C8      : 119.664475
 C37     -C9      -C8      : 120.242360  C37     -C9      -C10     : 120.086964
 C11     -C10     -C9      : 120.262182  H26     -C10     -C9      : 120.260302
 H26     -C10     -C11     : 119.476205  C10     -C11     -C6      : 120.552373
 C39     -C11     -C6      : 119.601038  C39     -C11     -C10     : 119.781472
 C6      -C12     -C3      : 126.579748  C13     -C12     -C3      : 118.903467
 C13     -C12     -C6      : 114.502643  C14     -C13     -C12     : 122.163385
 H28     -C13     -C12     : 118.175001  H28     -C13     -C14     : 119.649917
 C15     -C14     -C13     : 119.097209  H29     -C14     -C13     : 120.106986
 H29     -C14     -C15     : 120.794276  C16     -C15     -C14     : 119.460734
 H30     -C15     -C14     : 120.731325  H30     -C15     -C16     : 119.806291
 C15     -C16     -C3      : 122.454172  H31     -C16     -C3      : 119.543143
 H31     -C16     -C15     : 117.989970  H32     -C17     -C4      : 112.127471
 H33     -C17     -C4      : 109.386219  H33     -C17     -H32     : 108.138751
 H34     -C17     -C4      : 111.218047  H34     -C17     -H32     : 108.002969
 H34     -C17     -H33     : 107.824870  H35     -C18     -C4      : 112.775255
 H36     -C18     -C4      : 112.103928  H36     -C18     -H35     : 108.744238
 H37     -C18     -C4      : 108.905738  H37     -C18     -H35     : 106.870226
 H37     -C18     -H36     : 107.159073  H38     -C19     -C4      : 111.550604
 H39     -C19     -C4      : 109.190064  H39     -C19     -H38     : 107.973258
 H40     -C19     -C4      : 112.552921  H40     -C19     -H38     : 107.700269
 H40     -C19     -H39     : 107.700208  H41     -C20     -C5      : 111.496954
 H42     -C20     -C5      : 112.079358  H42     -C20     -H41     : 108.577691
 H43     -C20     -C5      : 109.344925  H43     -C20     -H41     : 107.812329
 H43     -C20     -H42     : 107.355357  H44     -C21     -C5      : 111.873549
 H45     -C21     -C5      : 109.432680  H45     -C21     -H44     : 108.119177
 H46     -C21     -C5      : 111.140787  H46     -C21     -H44     : 108.557222
 H46     -C21     -H45     : 107.576966  H47     -C22     -C5      : 113.265325
 H48     -C22     -C5      : 111.728917  H48     -C22     -H47     : 108.775173
 H49     -C22     -C5      : 108.562881  H49     -C22     -H47     : 107.201303
 H49     -C22     -H48     : 107.022565  C80     -C35     -C7      : 109.500000
 C81     -C35     -C7      : 109.500000  C81     -C35     -C80     : 109.442426
 H84     -C35     -C7      : 109.500000  H84     -C35     -C80     : 109.442426
 H84     -C35     -C81     : 109.442426  C62     -C37     -C9      : 109.500000
 C63     -C37     -C9      : 109.500000  C63     -C37     -C62     : 109.442426
 H64     -C37     -C9      : 109.500000  H64     -C37     -C62     : 109.442426
 H64     -C37     -C63     : 109.442426  C71     -C39     -C11     : 109.500000
 H72     -C39     -C11     : 109.500000  H72     -C39     -C71     : 109.442426
 C79     -C39     -C11     : 109.500000  C79     -C39     -C71     : 109.442426
 C79     -C39     -H72     : 109.442426  H68     -C62     -C37     : 109.500000
 H69     -C62     -C37     : 109.500000  H69     -C62     -H68     : 109.442426
 H70     -C62     -C37     : 109.500000  H70     -C62     -H68     : 109.442426
 H70     -C62     -H69     : 109.442426  H65     -C63     -C37     : 109.500000
 H66     -C63     -C37     : 109.500000  H66     -C63     -H65     : 109.442426
 H67     -C63     -C37     : 109.500000  H67     -C63     -H65     : 109.442426
 H67     -C63     -H66     : 109.442426  H74     -C71     -C39     : 109.500000
 H75     -C71     -C39     : 109.500000  H75     -C71     -H74     : 109.442426
 H76     -C71     -C39     : 109.500000  H76     -C71     -H74     : 109.442426
 H76     -C71     -H75     : 109.442426  H77     -C79     -C39     : 109.500000
 H78     -C79     -C39     : 109.500000  H78     -C79     -H77     : 109.442426
 H79     -C79     -C39     : 109.500000  H79     -C79     -H77     : 109.442426
 H79     -C79     -H78     : 109.442426  H85     -C80     -C35     : 109.500000
 H86     -C80     -C35     : 109.500000  H86     -C80     -H85     : 109.442426
 H87     -C80     -C35     : 109.500000  H87     -C80     -H85     : 109.442426
 H87     -C80     -H86     : 109.442426  H88     -C81     -C35     : 109.500000
 H89     -C81     -C35     : 109.500000  H89     -C81     -H88     : 109.442426
 H90     -C81     -C35     : 109.500000  H90     -C81     -H88     : 109.442426
 H90     -C81     -H89     : 109.442426
 
  torsional angles:
 
 P1      -Pd2     -C76     -C75     : -97.040849
 P1      -Pd2     -C76     -C77     :  38.836714
 P1      -C3      -C12     -C6      :   8.635302
 P1      -C3      -C12     -C13     :-172.812993
 P1      -C3      -C16     -C15     : 173.688536
 P1      -C3      -C16     -H31     :  -4.987561
 P1      -C4      -C17     -H32     :  70.920230
 P1      -C4      -C17     -H33     :-169.122530
 P1      -C4      -C17     -H34     : -50.128385
 P1      -C4      -C18     -H35     : -60.613851
 P1      -C4      -C18     -H36     :  62.525922
 P1      -C4      -C18     -H37     :-179.070143
 P1      -C4      -C19     -H38     :  55.859434
 P1      -C4      -C19     -H39     : 175.117111
 P1      -C4      -C19     -H40     : -65.336831
 P1      -C5      -C20     -H41     : -47.805222
 P1      -C5      -C20     -H42     :  74.150765
 P1      -C5      -C20     -H43     :-166.930035
 P1      -C5      -C21     -H44     :  58.196584
 P1      -C5      -C21     -H45     : 177.998218
 P1      -C5      -C21     -H46     : -63.332164
 P1      -C5      -C22     -H47     : -58.114213
 P1      -C5      -C22     -H48     :  65.149301
 P1      -C5      -C22     -H49     :-177.058307
 Pd2     -P1      -C3      -C12     :  -3.123669
 Pd2     -P1      -C3      -C16     :-177.139898
 Pd2     -P1      -C4      -C17     :  80.934772
 Pd2     -P1      -C4      -C18     :-156.587998
 Pd2     -P1      -C4      -C19     : -34.222820
 Pd2     -P1      -C5      -C20     :  58.471132
 Pd2     -P1      -C5      -C21     : -57.098377
 Pd2     -P1      -C5      -C22     :-177.027333
 Pd2     -C76     -C75     -C74     : 124.532464
 Pd2     -C76     -C75     -H81     : -53.635560
 Pd2     -C76     -C77     -C78     :-125.670942
 Pd2     -C76     -C77     -H82     :  55.405275
 Br3     -Pd2     -P1      -C3      : -96.184880
 Br3     -Pd2     -P1      -C4      : 146.395465
 Br3     -Pd2     -P1      -C5      :  25.088216
 Br3     -Pd2     -C76     -C75     : 112.981132
 Br3     -Pd2     -C76     -C77     :-111.141306
 C73     -C74     -C75     -C76     :   2.294912
 C73     -C74     -C75     -H81     :-179.549381
 C73     -C78     -C77     -C76     :  -1.906458
 C73     -C78     -C77     -H82     : 177.014694
 C74     -C73     -C78     -C77     :  -0.354330
 C74     -C73     -C78     -H83     : 178.985232
 C74     -C75     -C76     -C77     :  -4.658189
 C75     -C74     -C73     -C78     :   0.158993
 C75     -C74     -C73     -F79     : 179.501228
 C75     -C76     -C77     -C78     :   4.466508
 C75     -C76     -C77     -H82     :-174.457275
 C76     -Pd2     -P1      -C3      : 119.502385
 C76     -Pd2     -P1      -C4      :   2.082729
 C76     -Pd2     -P1      -C5      :-119.224520
 C76     -C75     -C74     -H80     :-177.845299
 C76     -C77     -C78     -H83     : 178.765934
 C77     -C76     -C75     -H81     : 177.173787
 C77     -C78     -C73     -F79     :-179.696497
 C78     -C73     -C74     -H80     :-179.703333
 F79     -C73     -C74     -H80     :  -0.361097
 F79     -C73     -C78     -H83     :  -0.356935
 H80     -C74     -C75     -H81     :   0.310408
 H82     -C77     -C78     -H83     :  -2.312915
 C3      -P1      -C4      -C17     : -47.100956
 C3      -P1      -C4      -C18     :  75.376273
 C3      -P1      -C4      -C19     :-162.258549
 C3      -P1      -C5      -C20     :-171.422118
 C3      -P1      -C5      -C21     :  73.008373
 C3      -P1      -C5      -C22     : -46.920583
 C3      -C12     -C6      -C7      :-118.071734
 C3      -C12     -C6      -C11     :  71.636389
 C3      -C12     -C13     -C14     :  -1.059042
 C3      -C12     -C13     -H28     :-179.809619
 C3      -C16     -C15     -C14     :  -0.511009
 C3      -C16     -C15     -H30     : 179.952895
 C4      -P1      -C3      -C12     : 116.081862
 C4      -P1      -C3      -C16     : -57.934367
 C4      -P1      -C5      -C20     : -59.539577
 C4      -P1      -C5      -C21     :-175.109085
 C4      -P1      -C5      -C22     :  64.961959
 C5      -P1      -C3      -C12     :-125.933575
 C5      -P1      -C3      -C16     :  60.050196
 C5      -P1      -C4      -C17     :-160.158440
 C5      -P1      -C4      -C18     : -37.681211
 C5      -P1      -C4      -C19     :  84.683968
 C6      -C7      -C8      -C9      :   0.510054
 C6      -C7      -C8      -H24     : 179.718164
 C6      -C7      -C35     -C80     : 143.400000
 C6      -C7      -C35     -C81     : -96.600000
 C6      -C7      -C35     -H84     :  23.400000
 C6      -C11     -C10     -C9      :   0.619015
 C6      -C11     -C10     -H26     :-179.796376
 C6      -C11     -C39     -C71     : 180.000000
 C6      -C11     -C39     -H72     : -60.000000
 C6      -C11     -C39     -C79     :  60.000000
 C6      -C12     -C3      -C16     :-177.234249
 C6      -C12     -C13     -C14     : 177.662861
 C6      -C12     -C13     -H28     :  -1.087716
 C7      -C6      -C11     -C10     :  -2.445767
 C7      -C6      -C11     -C39     :-179.504946
 C7      -C6      -C12     -C13     :  63.321627
 C7      -C8      -C9      -C10     :  -2.369819
 C7      -C8      -C9      -C37     : 178.535185
 C7      -C35     -C80     -H85     :-179.999999
 C7      -C35     -C80     -H86     : -60.000000
 C7      -C35     -C80     -H87     :  60.000000
 C7      -C35     -C81     -H88     : 180.000000
 C7      -C35     -C81     -H89     : -60.000000
 C7      -C35     -C81     -H90     :  60.000000
 C8      -C7      -C6      -C11     :   1.884792
 C8      -C7      -C6      -C12     :-168.682019
 C8      -C7      -C35     -C80     : -37.714002
 C8      -C7      -C35     -C81     :  82.285998
 C8      -C7      -C35     -H84     :-157.714002
 C8      -C9      -C10     -C11     :   1.811414
 C8      -C9      -C10     -H26     :-177.769916
 C8      -C9      -C37     -C62     : 180.000000
 C8      -C9      -C37     -C63     : -60.000000
 C8      -C9      -C37     -H64     :  60.000000
 C9      -C8      -C7      -C35     :-178.357034
 C9      -C10     -C11     -C39     : 177.672905
 C9      -C37     -C62     -H68     : 180.000000
 C9      -C37     -C62     -H69     : -60.000000
 C9      -C37     -C62     -H70     :  60.000000
 C9      -C37     -C63     -H65     :-179.999999
 C9      -C37     -C63     -H66     : -60.000000
 C9      -C37     -C63     -H67     :  60.000000
 C10     -C9      -C8      -H24     : 178.425007
 C10     -C9      -C37     -C62     :   0.908845
 C10     -C9      -C37     -C63     : 120.908845
 C10     -C9      -C37     -H64     :-119.091155
 C10     -C11     -C6      -C12     : 167.904533
 C10     -C11     -C39     -C71     :   2.917892
 C10     -C11     -C39     -H72     : 122.917892
 C10     -C11     -C39     -C79     :-117.082108
 C11     -C6      -C7      -C35     :-179.237679
 C11     -C6      -C12     -C13     :-106.970250
 C11     -C10     -C9      -C37     :-179.092164
 C11     -C39     -C71     -H74     :-179.999999
 C11     -C39     -C71     -H75     : -60.000000
 C11     -C39     -C71     -H76     :  60.000000
 C11     -C39     -C79     -H77     : 180.000000
 C11     -C39     -C79     -H78     : -60.000000
 C11     -C39     -C79     -H79     :  60.000000
 C12     -C3      -C16     -C15     :  -0.565991
 C12     -C3      -C16     -H31     :-179.242089
 C12     -C6      -C7      -C35     :  10.195509
 C12     -C6      -C11     -C39     :  -9.154646
 C12     -C13     -C14     -C15     :  -0.022461
 C12     -C13     -C14     -H29     :-179.576179
 C13     -C12     -C3      -C16     :   1.317456
 C13     -C14     -C15     -C16     :   0.804140
 C13     -C14     -C15     -H30     :-179.664157
 C14     -C15     -C16     -H31     : 178.184650
 C15     -C14     -C13     -H28     : 178.710221
 C16     -C15     -C14     -H29     :-179.645301
 C17     -C4      -C18     -H35     :  59.713297
 C17     -C4      -C18     -H36     :-177.146931
 C17     -C4      -C18     -H37     : -58.742995
 C17     -C4      -C19     -H38     : -57.706208
 C17     -C4      -C19     -H39     :  61.551469
 C17     -C4      -C19     -H40     :-178.902473
 C18     -C4      -C17     -H32     : -56.180411
 C18     -C4      -C17     -H33     :  63.776829
 C18     -C4      -C17     -H34     :-177.229026
 C18     -C4      -C19     -H38     :-176.547568
 C18     -C4      -C19     -H39     : -57.289891
 C18     -C4      -C19     -H40     :  62.256166
 C19     -C4      -C17     -H32     :-174.196283
 C19     -C4      -C17     -H33     : -54.239043
 C19     -C4      -C17     -H34     :  64.755103
 C19     -C4      -C18     -H35     : 177.455171
 C19     -C4      -C18     -H36     : -59.405057
 C19     -C4      -C18     -H37     :  58.998879
 C20     -C5      -C21     -H44     : -56.527617
 C20     -C5      -C21     -H45     :  63.274017
 C20     -C5      -C21     -H46     :-178.056365
 C20     -C5      -C22     -H47     :  65.507638
 C20     -C5      -C22     -H48     :-171.228847
 C20     -C5      -C22     -H49     : -53.436455
 C21     -C5      -C20     -H41     :  64.940336
 C21     -C5      -C20     -H42     :-173.103677
 C21     -C5      -C20     -H43     : -54.184477
 C21     -C5      -C22     -H47     :-176.366530
 C21     -C5      -C22     -H48     : -53.103015
 C21     -C5      -C22     -H49     :  64.689377
 C22     -C5      -C20     -H41     :-177.567052
 C22     -C5      -C20     -H42     : -55.611064
 C22     -C5      -C20     -H43     :  63.308135
 C22     -C5      -C21     -H44     :-175.020891
 C22     -C5      -C21     -H45     : -55.219257
 C22     -C5      -C21     -H46     :  63.450361
 C35     -C7      -C8      -H24     :   0.851076
 H24     -C8      -C9      -C37     :  -0.669989
 C37     -C9      -C10     -H26     :   1.326506
 H26     -C10     -C11     -C39     :  -2.742487
 H28     -C13     -C14     -H29     :  -0.843497
 H29     -C14     -C15     -H30     :  -0.113597
 H30     -C15     -C16     -H31     :  -1.351446
 C62     -C37     -C63     -H65     : -59.964768
 C62     -C37     -C63     -H66     :  60.035232
 C62     -C37     -C63     -H67     :-179.964768
 C63     -C37     -C62     -H68     :  59.964768
 C63     -C37     -C62     -H69     : 179.964768
 C63     -C37     -C62     -H70     : -60.035232
 H64     -C37     -C62     -H68     : -59.964768
 H64     -C37     -C62     -H69     :  60.035232
 H64     -C37     -C62     -H70     :-179.964768
 H64     -C37     -C63     -H65     :  59.964768
 H64     -C37     -C63     -H66     : 179.964768
 H64     -C37     -C63     -H67     : -60.035232
 C71     -C39     -C79     -H77     :  59.964768
 C71     -C39     -C79     -H78     : 179.964768
 C71     -C39     -C79     -H79     : -60.035232
 H72     -C39     -C71     -H74     :  59.964768
 H72     -C39     -C71     -H75     : 179.964768
 H72     -C39     -C71     -H76     : -60.035232
 H72     -C39     -C79     -H77     : -59.964768
 H72     -C39     -C79     -H78     :  60.035232
 H72     -C39     -C79     -H79     :-179.964768
 C79     -C39     -C71     -H74     : -59.964768
 C79     -C39     -C71     -H75     :  60.035232
 C79     -C39     -C71     -H76     :-179.964768
 C80     -C35     -C81     -H88     : -59.964768
 C80     -C35     -C81     -H89     :  60.035232
 C80     -C35     -C81     -H90     :-179.964768
 C81     -C35     -C80     -H85     :  59.964768
 C81     -C35     -C80     -H86     : 179.964768
 C81     -C35     -C80     -H87     : -60.035232
 H84     -C35     -C80     -H85     : -59.964768
 H84     -C35     -C80     -H86     :  60.035232
 H84     -C35     -C80     -H87     :-179.964768
 H84     -C35     -C81     -H88     :  59.964768
 H84     -C35     -C81     -H89     : 179.964768
 H84     -C35     -C81     -H90     : -60.035232
 
  nuclear repulsion energy.......          5584.219611580 hartrees
  
  Detected an organometallic with only one TM atom. 
  
  Oxidation state on metal       2 is     2
  Formal multiplet on metal      2 is     1
  Formal charge on ligand        3 is    -1
  Formal multiplet on ligand     3 is     1
  Formal charge on ligand        4 is    -1
  Formal multiplet on ligand     4 is     1
  
 
  Will use High-Quality Initial guess for organometallics
       including d-d repulsion (iguess=30)
 
 Non-default options chosen:
   SCF calculation type: DFT(b3pw91-d3)              
   DFT=Becke_3_Parameter/HF+Slater+Becke88+PW91+PW-GGAIIC (B3PW91-D3)
   Transition state optimization
   Geometry will be optimized in redundant internal coordinates
   Culot/Fletcher trust radius adjustment
      initial trust radius:  0.100
   P-RFO level-shifting used
   Solvation energy will be computed using PBF
     -solute cavity energy will not be included
     -surface area terms will not be included
   Vibrational frequencies and related properties will be computed
      from analytic second derivatives
   IR intensities will be computed
   Thermochemical properties will be computed
   Maximum number of geometry steps: 100
   Scaling standard convergence criteria by a factor of   5.00
   Mixed Murtagh-Sargent/Powell Hessian-updating used
   Solvent: benzene                                                         
   Internal dielectric constant:    1.000
   Continuum dielectric constant:   2.283
   Solvent probe molecule radius:   2.600
  
 Non-default print settings:
     11=  2
  
 Temporary integer options set:
     21= -1  73=  2
  
  atom       vdw   vdw2    cov     mass  grid  daf  charge   basis
  P1        2.147  2.074  1.060   30.974    Y    Y      Y    ps_6-31g*
  Pd2       1.450  1.450  1.280  105.903    Y    Y      Y    lacv3p*
  Br3       2.095  2.095  1.140   78.918    Y    Y      Y    lav3p*
  C73       1.949  1.900  0.770   12.000    Y    Y      Y    ps_6-31g*
  C74       1.949  1.900  0.770   12.000    Y    Y      Y    ps_6-31g*
  C75       1.949  1.900  0.770   12.000    Y    Y      Y    ps_6-31g*
  C76       1.949  1.900  0.770   12.000    Y    Y      Y    ps_6-31g*
  C77       1.949  1.900  0.770   12.000    Y    Y      Y    ps_6-31g*
  C78       1.949  1.900  0.770   12.000    Y    Y      Y    ps_6-31g*
  F79       1.736  1.682  0.720   18.998    Y    Y      Y    ps_6-31g*
  H80       1.597  1.150  0.320    1.008    Y    Y      Y    ps_6-31g*
  H81       1.597  1.150  0.320    1.008    Y    Y      Y    ps_6-31g*
  H82       1.597  1.150  0.320    1.008    Y    Y      Y    ps_6-31g*
  H83       1.597  1.150  0.320    1.008    Y    Y      Y    ps_6-31g*
  C3        1.949  1.900  0.770   12.000    Y    Y      Y    ps_6-31g*
  C4        1.949  1.900  0.770   12.000    Y    Y      Y    ps_6-31g*
  C5        1.949  1.900  0.770   12.000    Y    Y      Y    ps_6-31g*
  C6        1.949  1.900  0.770   12.000    Y    Y      Y    ps_6-31g*
  C7        1.949  1.900  0.770   12.000    Y    Y      Y    ps_6-31g*
  C8        1.949  1.900  0.770   12.000    Y    Y      Y    ps_6-31g*
  C9        1.949  1.900  0.770   12.000    Y    Y      Y    ps_6-31g*
  C10       1.949  1.900  0.770   12.000    Y    Y      Y    ps_6-31g*
  C11       1.949  1.900  0.770   12.000    Y    Y      Y    ps_6-31g*
  C12       1.949  1.900  0.770   12.000    Y    Y      Y    ps_6-31g*
  C13       1.949  1.900  0.770   12.000    Y    Y      Y    ps_6-31g*
  C14       1.949  1.900  0.770   12.000    Y    Y      Y    ps_6-31g*
  C15       1.949  1.900  0.770   12.000    Y    Y      Y    ps_6-31g*
  C16       1.949  1.900  0.770   12.000    Y    Y      Y    ps_6-31g*
  C17       1.949  1.900  0.770   12.000    Y    Y      Y    ps_6-31g*
  C18       1.949  1.900  0.770   12.000    Y    Y      Y    ps_6-31g*
  C19       1.949  1.900  0.770   12.000    Y    Y      Y    ps_6-31g*
  C20       1.949  1.900  0.770   12.000    Y    Y      Y    ps_6-31g*
  C21       1.949  1.900  0.770   12.000    Y    Y      Y    ps_6-31g*
  C22       1.949  1.900  0.770   12.000    Y    Y      Y    ps_6-31g*
  C35       1.949  1.900  0.770   12.000    Y    Y      Y    ps_6-31g*
  H24       1.597  1.150  0.320    1.008    Y    Y      Y    ps_6-31g*
  C37       1.949  1.900  0.770   12.000    Y    Y      Y    ps_6-31g*
  H26       1.597  1.150  0.320    1.008    Y    Y      Y    ps_6-31g*
  C39       1.949  1.900  0.770   12.000    Y    Y      Y    ps_6-31g*
  H28       1.597  1.150  0.320    1.008    Y    Y      Y    ps_6-31g*
  H29       1.597  1.150  0.320    1.008    Y    Y      Y    ps_6-31g*
  H30       1.597  1.150  0.320    1.008    Y    Y      Y    ps_6-31g*
  H31       1.597  1.150  0.320    1.008    Y    Y      Y    ps_6-31g*
  H32       1.597  1.150  0.320    1.008    Y    Y      Y    ps_6-31g*
  H33       1.597  1.150  0.320    1.008    Y    Y      Y    ps_6-31g*
  H34       1.597  1.150  0.320    1.008    Y    Y      Y    ps_6-31g*
  H35       1.597  1.150  0.320    1.008    Y    Y      Y    ps_6-31g*
  H36       1.597  1.150  0.320    1.008    Y    Y      Y    ps_6-31g*
  H37       1.597  1.150  0.320    1.008    Y    Y      Y    ps_6-31g*
  H38       1.597  1.150  0.320    1.008    Y    Y      Y    ps_6-31g*
  H39       1.597  1.150  0.320    1.008    Y    Y      Y    ps_6-31g*
  H40       1.597  1.150  0.320    1.008    Y    Y      Y    ps_6-31g*
  H41       1.597  1.150  0.320    1.008    Y    Y      Y    ps_6-31g*
  H42       1.597  1.150  0.320    1.008    Y    Y      Y    ps_6-31g*
  H43       1.597  1.150  0.320    1.008    Y    Y      Y    ps_6-31g*
  H44       1.597  1.150  0.320    1.008    Y    Y      Y    ps_6-31g*
  H45       1.597  1.150  0.320    1.008    Y    Y      Y    ps_6-31g*
  H46       1.597  1.150  0.320    1.008    Y    Y      Y    ps_6-31g*
  H47       1.597  1.150  0.320    1.008    Y    Y      Y    ps_6-31g*
  H48       1.597  1.150  0.320    1.008    Y    Y      Y    ps_6-31g*
  H49       1.597  1.150  0.320    1.008    Y    Y      Y    ps_6-31g*
  C62       1.949  1.900  0.770   12.000    Y    Y      Y    ps_6-31g*
  C63       1.949  1.900  0.770   12.000    Y    Y      Y    ps_6-31g*
  H64       1.597  1.150  0.320    1.008    Y    Y      Y    ps_6-31g*
  H65       1.597  1.150  0.320    1.008    Y    Y      Y    ps_6-31g*
  H66       1.597  1.150  0.320    1.008    Y    Y      Y    ps_6-31g*
  H67       1.597  1.150  0.320    1.008    Y    Y      Y    ps_6-31g*
  H68       1.597  1.150  0.320    1.008    Y    Y      Y    ps_6-31g*
  H69       1.597  1.150  0.320    1.008    Y    Y      Y    ps_6-31g*
  H70       1.597  1.150  0.320    1.008    Y    Y      Y    ps_6-31g*
  C71       1.949  1.900  0.770   12.000    Y    Y      Y    ps_6-31g*
  H72       1.597  1.150  0.320    1.008    Y    Y      Y    ps_6-31g*
  C79       1.949  1.900  0.770   12.000    Y    Y      Y    ps_6-31g*
  H74       1.597  1.150  0.320    1.008    Y    Y      Y    ps_6-31g*
  H75       1.597  1.150  0.320    1.008    Y    Y      Y    ps_6-31g*
  H76       1.597  1.150  0.320    1.008    Y    Y      Y    ps_6-31g*
  H77       1.597  1.150  0.320    1.008    Y    Y      Y    ps_6-31g*
  H78       1.597  1.150  0.320    1.008    Y    Y      Y    ps_6-31g*
  H79       1.597  1.150  0.320    1.008    Y    Y      Y    ps_6-31g*
  C80       1.949  1.900  0.770   12.000    Y    Y      Y    ps_6-31g*
  C81       1.949  1.900  0.770   12.000    Y    Y      Y    ps_6-31g*
  H84       1.597  1.150  0.320    1.008    Y    Y      Y    ps_6-31g*
  H85       1.597  1.150  0.320    1.008    Y    Y      Y    ps_6-31g*
  H86       1.597  1.150  0.320    1.008    Y    Y      Y    ps_6-31g*
  H87       1.597  1.150  0.320    1.008    Y    Y      Y    ps_6-31g*
  H88       1.597  1.150  0.320    1.008    Y    Y      Y    ps_6-31g*
  H89       1.597  1.150  0.320    1.008    Y    Y      Y    ps_6-31g*
  H90       1.597  1.150  0.320    1.008    Y    Y      Y    ps_6-31g*
 
  atom      formal  2spin      esp    mulk    frag
  P1           0       0        Y    0.000       0
  Pd2          2       0        Y    0.000       0
  Br3         -1       0        Y    0.000       0
  C73         -1       0        Y    0.000       0
  
  end of program pre
   
 Time(pre)  user:       4.602  user+sys:       4.602  wallclock:       6.786
  
  start of program onee
  
  smallest eigenvalue of S:    2.832E-04
  number of canonical orbitals.....          658
  end of program onee
   
 Time(onee)  user:      12.063  user+sys:      12.063  wallclock:       2.357
  
  start of program hfig
  
  initial wavefunction generated automatically from atomic wavefunctions
  Only one state below 0.010000
  Skip d-d repulsion considerations 
 
  Irreducible     Total no   No of occupied orbitals 
  representation  orbitals   Shell_1  Shell_2    ...
  No Symm          658        154
  ------------------------
  Orbital occupation/shell    1.000
 
  end of program hfig
   
 Time(hfig)  user:       2.366  user+sys:       2.366  wallclock:       1.860
  
  start of program probe
  
  end of program probe
   
 Time(probe)  user:       1.472  user+sys:       1.472  wallclock:       0.482
  
  start of program grid
  
   grid     grid set  grid #  grid sym
  ------    --------  ------  --------
  coarse        0        0        1
  medium        2        1        1
  fine          0        0        1
  ultrafine     4        2        1
  charge       -1        3        1
  gradient      4        2        1
  density       0        0        1
  DFT-fine    -11        4        1
  DFT-med.    -10        5        1
  DFT-grad    -12        6        1
  DFT-der2     -8        7        1
  DFT-cphf     -9        8        1
  LMP2-enrg     4        2        1
  LMP2-grad     2        1        1
  DFT-cphf2   -15        9        1
  PBF-dens      0        0        1
  plotting      0        0        1
  Rel-grad    -17        0        1
  
  number of gridpoints: 
     atom           P1         Pd2         Br3         C73         C74         C75         C76
  grid # 1         614         357         493          80          94          96          96
  grid # 2         432         328         469         337         322         323         389
  grid # 3           6         250         271          48          36          33          20
  grid # 4        8714        8714        8714        8714        8714        8714        8714
  grid # 5        1192        1192        1192        1192        1192        1192        1192
  grid # 6        9132        9132        9132        5922        5922        5922        5922
  grid # 7       23034       32968       11582       13950       13950       13950       13950
  grid # 8         722        1150         694         748         748         748         748
  grid # 9         366        2198         358         394         394         394         394
   
  number of gridpoints: 
     atom          C77         C78         F79         H80         H81         H82         H83
  grid # 1          96          94         585         113         105         114         114
  grid # 2         323         321         567         459         429         461         466
  grid # 3          27          37         361         327          80         290         406
  grid # 4        8714        8714        8714        8714        8714        8714        8714
  grid # 5        1192        1192        1192        1192        1192        1192        1192
  grid # 6        5922        5922        5922        5922        5922        5922        5922
  grid # 7       13950       13950       23190       15206       15206       15206       15206
  grid # 8         748         748         770         786         786         786         786
  grid # 9         394         394         420         420         420         420         420
   
  number of gridpoints: 
     atom           C3          C4          C5          C6          C7          C8          C9
  grid # 1          90          87          89         100          98          95         100
  grid # 2         380         366         362         360         362         321         360
  grid # 3           6           6           6          11          11          19          13
  grid # 4        8714        8714        8714        8714        8714        8714        8714
  grid # 5        1192        1192        1192        1192        1192        1192        1192
  grid # 6        5922        5922        5922        5922        5922        5922        5922
  grid # 7       13950       13950       13950       13950       13950       13950       13950
  grid # 8         748         748         748         748         748         748         748
  grid # 9         394         394         394         394         394         394         394
   
  number of gridpoints: 
     atom          C10         C11         C12         C13         C14         C15         C16
  grid # 1          95         100          97          94          94          94          92
  grid # 2         324         361         349         318         320         321         323
  grid # 3          21          11           6           8          22          25           8
  grid # 4        8714        8714        8714        8714        8714        8714        8714
  grid # 5        1192        1192        1192        1192        1192        1192        1192
  grid # 6        5922        5922        5922        5922        5922        5922        5922
  grid # 7       13950       13950       13950       13950       13950       13950       13950
  grid # 8         748         748         748         748         748         748         748
  grid # 9         394         394         394         394         394         394         394
   
  number of gridpoints: 
     atom          C17         C18         C19         C20         C21         C22         C35
  grid # 1          80          81          78          80          78          81          91
  grid # 2         236         233         241         238         242         236         303
  grid # 3           6           6           6           6           6           6           6
  grid # 4        8714        8714        8714        8714        8714        8714        8714
  grid # 5        1192        1192        1192        1192        1192        1192        1192
  grid # 6        5922        5922        5922        5922        5922        5922        5922
  grid # 7       13950       13950       13950       13950       13950       13950       13950
  grid # 8         748         748         748         748         748         748         748
  grid # 9         394         394         394         394         394         394         394
   
  number of gridpoints: 
     atom          H24         C37         H26         C39         H28         H29         H30
  grid # 1         102          91          97          91         106         118         118
  grid # 2         421         303         410         303         420         463         466
  grid # 3         103           6          35           6         165         402         415
  grid # 4        8714        8714        8714        8714        8714        8714        8714
  grid # 5        1192        1192        1192        1192        1192        1192        1192
  grid # 6        5922        5922        5922        5922        5922        5922        5922
  grid # 7       15206       13950       15206       13950       15206       15206       15206
  grid # 8         786         748         786         748         786         786         786
  grid # 9         420         394         420         394         420         420         420
   
  number of gridpoints: 
     atom          H31         H32         H33         H34         H35         H36         H37
  grid # 1         103         104         108         100         101         101         109
  grid # 2         420         435         447         430         427         428         446
  grid # 3          87         164         267          85         165         161         275
  grid # 4        8714        8714        8714        8714        8714        8714        8714
  grid # 5        1192        1192        1192        1192        1192        1192        1192
  grid # 6        5922        5922        5922        5922        5922        5922        5922
  grid # 7       15206       15206       15206       15206       15206       15206       15206
  grid # 8         786         786         786         786         786         786         786
  grid # 9         420         420         420         420         420         420         420
   
  number of gridpoints: 
     atom          H38         H39         H40         H41         H42         H43         H44
  grid # 1         103         108         105         104         102         108          98
  grid # 2         440         447         434         439         431         447         416
  grid # 3         126         269         163         144         168         272          65
  grid # 4        8714        8714        8714        8714        8714        8714        8714
  grid # 5        1192        1192        1192        1192        1192        1192        1192
  grid # 6        5922        5922        5922        5922        5922        5922        5922
  grid # 7       15206       15206       15206       15206       15206       15206       15206
  grid # 8         786         786         786         786         786         786         786
  grid # 9         420         420         420         420         420         420         420
   
  number of gridpoints: 
     atom          H45         H46         H47         H48         H49         C62         C63
  grid # 1         108          93         103         105         109          80          80
  grid # 2         447         391         425         431         447         236         237
  grid # 3         248          40         156         193         268           6           6
  grid # 4        8714        8714        8714        8714        8714        8714        8714
  grid # 5        1192        1192        1192        1192        1192        1192        1192
  grid # 6        5922        5922        5922        5922        5922        5922        5922
  grid # 7       15206       15206       15206       15206       15206       13950       13950
  grid # 8         786         786         786         786         786         748         748
  grid # 9         420         420         420         420         420         394         394
   
  number of gridpoints: 
     atom          H64         H65         H66         H67         H68         H69         H70
  grid # 1         108         110         110         107         110         106         106
  grid # 2         440         454         452         446         454         442         438
  grid # 3         190         318         302         246         318         200         221
  grid # 4        8714        8714        8714        8714        8714        8714        8714
  grid # 5        1192        1192        1192        1192        1192        1192        1192
  grid # 6        5922        5922        5922        5922        5922        5922        5922
  grid # 7       15206       15206       15206       15206       15206       15206       15206
  grid # 8         786         786         786         786         786         786         786
  grid # 9         420         420         420         420         420         420         420
   
  number of gridpoints: 
     atom          C71         H72         C79         H74         H75         H76         H77
  grid # 1          80          90          80         109         106         101         109
  grid # 2         237         373         238         449         438         431         443
  grid # 3           6           6           6         269         214         115         250
  grid # 4        8714        8714        8714        8714        8714        8714        8714
  grid # 5        1192        1192        1192        1192        1192        1192        1192
  grid # 6        5922        5922        5922        5922        5922        5922        5922
  grid # 7       13950       15206       13950       15206       15206       15206       15206
  grid # 8         748         786         748         786         786         786         786
  grid # 9         394         420         394         420         420         420         420
   
  number of gridpoints: 
     atom          H78         H79         C80         C81         H84         H85         H86
  grid # 1         103         110          80          80         106         110         107
  grid # 2         420         450         236         238         419         453         445
  grid # 3          99         285           6           6          79         307         192
  grid # 4        8714        8714        8714        8714        8714        8714        8714
  grid # 5        1192        1192        1192        1192        1192        1192        1192
  grid # 6        5922        5922        5922        5922        5922        5922        5922
  grid # 7       15206       15206       13950       13950       15206       15206       15206
  grid # 8         786         786         748         748         786         786         786
  grid # 9         420         420         394         394         420         420         420
   
  number of gridpoints: 
     atom          H87         H88         H89         H90       total
  grid # 1         103         110         108         100       10349
  grid # 2         429         454         449         417       33814
  grid # 3         197         313         260         132       11404
  grid # 4        8714        8714        8714        8714      766832
  grid # 5        1192        1192        1192        1192      104896
  grid # 6        5922        5922        5922        5922      530766
  grid # 7       15206       15206       15206       15206     1324118
  grid # 8         786         786         786         786       68030
  grid # 9         420         420         420         420       37712
   
  end of program grid
   
 Time(grid)  user:     474.527  user+sys:     474.527  wallclock:      33.628
  
  start of program rwr
  
  end of program rwr
   
 Time(rwr)  user:      66.413  user+sys:      66.413  wallclock:      15.380
  
  start of program scf
  
 number of electrons..........        308
 number of alpha electrons....        154
 number of beta electrons.....        154
 number of orbitals, total....        658
 number of doubly-occ'd orbs..        154
 number of open shell orbs....          0
 number of occupied orbitals..        154
 number of virtual orbitals...        504
 number of hamiltonians.......          1
 number of shells.............          1
 SCF type: DFT=Becke_3_Parameter/HF+Slater+Becke88+PW91+PW-GGAIIC (B3PW91-D3)
 Energy computed using pseudospectral method.
 Convergence Criterion:
    Energy (econv):       1.00E-05
    RMS density (dconv):  5.00E-06
  
       i  u  d  i  g                   
       t  p  i  c  r                                 RMS    maximum
       e  d  i  u  i                       energy  density   DIIS  
       r  t  s  t  d       total energy    change  change    error 
  
etot    1  N  N  5  M   -1938.79375113891           2.0E-03  2.0E-01
etot    2  Y  Y  6  M   -1942.15873945604  3.4E+00  3.4E-03  1.1E-01
etot    3  Y  Y  6  M   -1943.31410236246  1.2E+00  1.9E-03  7.1E-02
etot    4  N  Y  2  U   -1943.37595705152  6.2E-02  1.1E-03  7.5E-02
etot    5  Y  Y  6  M   -1943.74533851893  3.7E-01  6.6E-04  2.9E-02
etot    6  N  Y  2  U   -1943.77283391702  2.7E-02  6.4E-04  1.5E-02
etot    7  Y  Y  6  M   -1943.77127392028 -1.6E-03  2.0E-04  5.7E-03
etot    8  Y  Y  6  M   -1943.77794039736  6.7E-03  7.5E-05  2.3E-03
etot    9  N  Y  2  U   -1943.77975613073  1.8E-03  1.5E-05  3.2E-04
etot   10  N  Y  2  U   -1943.77977733809  2.1E-05  7.1E-06  2.0E-04
etot   11  N  Y  2  U   -1943.77978336758  6.0E-06  2.9E-06  1.4E-04
etot   12  N  N  2  U   -1943.77978468700  1.3E-06  0.0E+00  0.0E+00
 
  Computing the dispersion energy correction and its gradients...
  
  
 Energy components, in hartrees:
   (A)  Nuclear repulsion............    5584.21961157971
   (E)  Total one-electron terms.....  -13826.96766661121
   (F)    Electron-nuclear...........  -15671.79908296252
   (H)    Kinetic....................    1844.83141635131
   (I)  Total two-electron terms.....    6298.96827034450
   (J)    Coulomb....................    6556.18432906416
   (K)    Exchange+Correlation.......    -257.21605871965
   (L)  Electronic energy............   -7527.99939626671  (E+I)
   (N0) D3 correction................      -0.17289437589
   (N)  Total energy.................   -1943.95267906290  (A+L+N0)
   (O)  Gas phase energy.............   -1943.95267906290
  
 SCFE: SCF energy: DFT(b3pw91-d3)     -1943.95267906290 hartrees   iterations:  12
  
 
 HOMO energy:    -0.19509
 LUMO energy:    -0.06825
 
  Orbital energies (hartrees): 
   -77.06515   -24.68451   -10.25286   -10.21824   -10.20251   -10.20121
   -10.19870   -10.19515   -10.18807   -10.18728   -10.18680   -10.18559
   -10.18196   -10.18075   -10.17997   -10.17929   -10.17254   -10.17201
   -10.17181   -10.17056   -10.16945   -10.16936   -10.16764   -10.16386
   -10.16177   -10.16147   -10.15986   -10.15788   -10.15323   -10.15108
   -10.14961   -10.14953   -10.14887   -10.14809   -10.14463   -10.13793
   -10.13491    -6.56607    -4.72425    -4.72371    -4.72030    -3.29907
    -2.04019    -2.01718    -2.00926    -1.21767    -0.88499    -0.86794
    -0.86020    -0.83476    -0.81894    -0.81516    -0.80937    -0.77677
    -0.77091    -0.76562    -0.76214    -0.75667    -0.72192    -0.71654
    -0.70553    -0.70331    -0.69943    -0.69600    -0.69103    -0.68515
    -0.68233    -0.67584    -0.65749    -0.62889    -0.62723    -0.62119
    -0.61010    -0.60390    -0.59369    -0.58418    -0.56441    -0.55287
    -0.54223    -0.53558    -0.53107    -0.51693    -0.49422    -0.48882
    -0.48470    -0.47894    -0.47357    -0.47046    -0.46892    -0.46155
    -0.45739    -0.45664    -0.45122    -0.44700    -0.44651    -0.44434
    -0.44218    -0.43907    -0.43611    -0.43386    -0.43112    -0.42881
    -0.42443    -0.41019    -0.40455    -0.40276    -0.40059    -0.39786
    -0.39725    -0.39447    -0.39201    -0.39027    -0.38652    -0.38533
    -0.38210    -0.38132    -0.37743    -0.37171    -0.36979    -0.36558
    -0.36267    -0.35889    -0.35729    -0.35506    -0.35175    -0.34797
    -0.34578    -0.34397    -0.34166    -0.33933    -0.33761    -0.33288
    -0.33012    -0.32498    -0.31889    -0.31517    -0.31147    -0.30539
    -0.30125    -0.29991    -0.28640    -0.28526    -0.27383    -0.26782
    -0.26551    -0.26214    -0.25691    -0.23803    -0.23253    -0.22846
    -0.22422    -0.21973    -0.20451    -0.19509    -0.06825    -0.03659
    -0.02467    -0.01696    -0.00363     0.00368     0.01023     0.03395
     0.04067     0.05407
 
  end of program scf
   
 Time(scf)  user:     615.407  user+sys:     615.407  wallclock:      61.444
  
  start of program der1a
  
  end of program der1a
   
 Time(der1a)  user:      32.430  user+sys:      32.430  wallclock:       2.795
  
  start of program rwr
  
  end of program rwr
   
 Time(rwr)  user:      42.249  user+sys:      42.249  wallclock:      17.353
  
  start of program der1b
  
   
  forces (hartrees/bohr) : total     
   
 atom  label           x              y              z
 ---- --------   -------------  -------------  -------------
    1 P1         -1.114854E-03  -2.455191E-04   7.320135E-04
    2 Pd2         4.307917E-03   1.375074E-03   1.783840E-03
    3 Br3        -1.907708E-03   1.107962E-03  -6.426050E-04
    4 C73        -1.826225E-04   2.165636E-03   7.349479E-04
    5 C74        -1.193210E-04  -1.067333E-03  -1.440829E-04
    6 C75         1.235130E-04  -3.771478E-04   7.521885E-05
    7 C76        -5.225645E-04   3.705700E-03  -1.403795E-03
    8 C77        -2.389694E-04  -1.218216E-03   1.015596E-03
    9 C78         5.207495E-04  -5.146336E-04   6.964211E-05
   10 F79         2.584298E-04  -1.797910E-03  -5.486302E-04
   11 H80        -6.777704E-04  -4.702071E-04  -3.760207E-04
   12 H81        -5.331601E-04  -2.150689E-04  -4.897901E-04
   13 H82         7.839070E-04   1.287037E-04  -4.181124E-04
   14 H83         8.001322E-04  -1.870938E-04   2.512450E-04
   15 C3          3.638044E-04   4.005411E-03  -8.267969E-04
   16 C4         -2.206157E-04   1.248171E-04  -2.197269E-04
   17 C5         -1.310674E-03  -8.686143E-04  -5.156259E-04
   18 C6         -2.139294E-04   9.707490E-04   7.459960E-03
   19 C7          8.977698E-04   1.606927E-02  -1.464899E-02
   20 C8         -1.856317E-03  -9.180348E-03  -3.113014E-03
   21 C9          4.021891E-04   2.983850E-03   1.715015E-02
   22 C10         1.201105E-03   1.050333E-02  -6.439336E-03
   23 C11        -7.611197E-03  -2.085999E-02  -8.651180E-03
   24 C12        -2.887793E-03   7.557765E-03  -1.574064E-03
   25 C13        -2.169556E-03  -5.086436E-03  -6.016526E-03
   26 C14         3.251659E-04   5.171006E-04   1.772383E-03
   27 C15        -6.725273E-04  -2.625563E-04   1.625712E-04
   28 C16         5.430366E-04   3.148561E-04  -2.850828E-04
   29 C17        -3.270879E-04  -4.295717E-04   6.997652E-04
   30 C18         7.549556E-05   4.549045E-04   8.088105E-05
   31 C19         1.503265E-04  -2.378980E-04   2.983099E-05
   32 C20         1.931417E-04   3.814238E-04   2.589568E-04
   33 C21        -2.030983E-02  -1.012502E-02  -1.901696E-02
   34 C22         1.703714E-04  -2.550295E-04   3.896622E-04
   35 C35         7.403852E-03  -4.203928E-04   2.230006E-02
   36 H24        -1.083211E-03  -3.282303E-03   1.068591E-03
   37 C37         7.557533E-03  -1.975089E-02  -1.445955E-02
   38 H26         1.123584E-03   7.316286E-03  -5.050942E-03
   39 C39         3.380359E-02   1.095586E-02   2.938776E-02
   40 H28        -5.635450E-03  -1.078310E-02  -3.126391E-03
   41 H29        -3.640149E-04  -1.090018E-04   1.276362E-04
   42 H30        -9.738499E-06   4.993261E-05   3.389564E-04
   43 H31         1.370614E-04  -2.782219E-04   1.433560E-04
   44 H32        -2.081113E-05   2.331501E-05  -3.047629E-04
   45 H33         1.244113E-04  -3.379157E-06   3.792687E-05
   46 H34        -6.606062E-04   2.104274E-04  -2.581409E-04
   47 H35        -2.536430E-04   9.447800E-05   1.177176E-04
   48 H36         1.218208E-04   1.578518E-04   1.063490E-04
   49 H37         2.931512E-05  -1.608883E-04  -1.013315E-04
   50 H38         1.973877E-06   5.999313E-05  -1.965193E-04
   51 H39         9.157319E-05  -8.940417E-05   7.251338E-05
   52 H40         1.821591E-04   1.499941E-04  -3.387302E-06
   53 H41        -8.929346E-05  -2.334712E-04   3.179310E-05
   54 H42         6.853913E-05   4.953383E-05  -7.116779E-05
   55 H43         1.954697E-04   7.753707E-05   6.823490E-05
   56 H44        -8.065892E-03  -3.176580E-03  -2.732478E-03
   57 H45        -2.673619E-03  -7.326798E-05  -6.322614E-04
   58 H46        -2.026830E-02  -9.882281E-03  -1.672699E-02
   59 H47         1.469793E-04  -1.246607E-05   8.555496E-05
   60 H48         6.073953E-05  -8.756231E-05   3.000162E-05
   61 H49         8.239282E-05   1.716685E-04  -5.264130E-05
   62 C62        -4.370432E-04   1.719589E-02   2.323707E-03
   63 C63        -1.351628E-02   2.875444E-03  -1.031871E-04
   64 H64        -3.181794E-03   4.536150E-03   2.208075E-03
   65 H65         3.991478E-03   1.121571E-03   3.439318E-03
   66 H66         3.650179E-03  -1.266224E-03  -1.390859E-03
   67 H67         5.879750E-03   2.336836E-03   1.356442E-04
   68 H68        -4.326048E-05  -2.592300E-03   3.960090E-03
   69 H69        -3.102803E-03  -3.987705E-03   3.775910E-03
   70 H70         1.685817E-03  -4.205554E-03   1.863419E-03
   71 C71        -6.313499E-03   7.122776E-03  -1.544696E-02
   72 H72         3.220718E-02   1.274419E-02   2.564340E-02
   73 C79        -9.595693E-03   3.533291E-03   4.325840E-03
   74 H74        -1.530954E-03  -4.949747E-03   5.567618E-04
   75 H75         1.926145E-03  -5.633124E-03   1.316089E-03
   76 H76        -1.693763E-03  -4.425855E-03   2.213448E-03
   77 H77         1.407290E-03  -5.657076E-03  -3.051123E-03
   78 H78         3.771831E-03  -1.144295E-02  -9.933907E-04
   79 H79         4.022931E-03  -2.034329E-03  -4.425107E-04
   80 C80        -1.320921E-03  -8.872785E-03  -1.219190E-02
   81 C81        -9.700104E-03   2.606496E-03  -5.431960E-05
   82 H84        -1.370328E-03  -4.327665E-04  -1.967352E-03
   83 H85         2.364266E-04   5.147821E-03   1.241982E-04
   84 H86        -3.297750E-03   2.562689E-03   3.501820E-03
   85 H87        -1.747463E-05   6.492326E-03   1.069472E-03
   86 H88         3.981004E-03   2.962813E-03  -2.777816E-03
   87 H89         3.922863E-03   2.028969E-04   2.225398E-03
   88 H90         7.331857E-03   1.178788E-02   2.338992E-03
 -------------   -------------  -------------  -------------
     total       -8.599460E-04  -2.329718E-03   1.383877E-04
   
  end of program der1b
   
 Time(der1b)  user:     197.481  user+sys:     197.481  wallclock:      17.175
  
  start of program geopt
  
 ----------------------------------------------------------------------------
  Geometry optimization step  1
  Total energy:     -1943.95267906290 hartrees
 ----------------------------------------------------------------------------
  
  Hessian eigenvalues: 
    0.00000E+00    0.00000E+00    0.00000E+00    0.00000E+00    0.00000E+00
    0.00000E+00    0.00000E+00    0.00000E+00    0.00000E+00    0.00000E+00
    0.00000E+00    0.00000E+00    0.00000E+00    0.00000E+00    0.00000E+00
    0.00000E+00    0.00000E+00    0.00000E+00    0.00000E+00    0.00000E+00
    0.00000E+00    0.00000E+00    0.00000E+00    0.00000E+00    0.00000E+00
    6.95596E-03    7.29953E-03    1.26413E-02    1.51045E-02    1.66209E-02
    1.84950E-02    1.85299E-02    1.91222E-02    1.92855E-02    1.93650E-02
    1.95035E-02    1.98933E-02    2.00790E-02    2.18150E-02    2.22893E-02
    2.30608E-02    2.40849E-02    2.48530E-02    2.57669E-02    2.75909E-02
    2.86164E-02    3.05938E-02    3.32732E-02    3.56139E-02    3.76784E-02
    4.06805E-02    4.21125E-02    4.75332E-02    4.92892E-02    4.97856E-02
    5.24789E-02    6.39843E-02    7.32888E-02    7.34164E-02    7.36436E-02
    7.43806E-02    7.48345E-02    7.52232E-02    7.90426E-02    7.91300E-02
    7.93197E-02    7.98686E-02    8.02620E-02    8.03648E-02    8.30292E-02
    8.37114E-02    1.20218E-01    1.24249E-01    1.26848E-01    1.28828E-01
    1.31176E-01    1.32146E-01    1.32790E-01    1.33343E-01    1.33393E-01
    1.34020E-01    1.34291E-01    1.34316E-01    1.34429E-01    1.34458E-01
    1.34481E-01    1.34734E-01    1.35974E-01    1.38098E-01    1.38263E-01
    1.41216E-01    1.44649E-01    1.51213E-01    1.53944E-01    1.57789E-01
    1.62859E-01    1.67010E-01    1.69403E-01    1.73923E-01    1.81456E-01
    1.85296E-01    1.91885E-01    1.99473E-01    2.00540E-01    2.07076E-01
    2.09048E-01    2.17406E-01    2.20078E-01    2.21208E-01    2.22732E-01
    2.23806E-01    2.29359E-01    2.30386E-01    2.32733E-01    2.34529E-01
    2.35543E-01    2.35890E-01    2.35917E-01    2.35946E-01    2.36001E-01
    2.36099E-01    2.36105E-01    2.36118E-01    2.36309E-01    2.36333E-01
    2.36386E-01    2.36458E-01    2.36800E-01    2.37277E-01    2.37976E-01
    2.38438E-01    2.39664E-01    2.40115E-01    2.40915E-01    2.41126E-01
    2.41265E-01    2.41333E-01    2.42372E-01    2.42992E-01    2.43798E-01
    2.45031E-01    2.46098E-01    2.50944E-01    2.52394E-01    2.58881E-01
    2.60795E-01    2.66633E-01    2.74322E-01    2.85928E-01    2.89015E-01
    2.93990E-01    2.94676E-01    2.99843E-01    3.01863E-01    3.09763E-01
    3.17620E-01    3.19081E-01    3.21753E-01    3.21810E-01    3.21857E-01
    3.21876E-01    3.22886E-01    3.23945E-01    3.30918E-01    3.31198E-01
    3.31253E-01    3.31379E-01    3.31681E-01    3.31858E-01    3.31896E-01
    3.32172E-01    3.32684E-01    3.33037E-01    3.34150E-01    3.34743E-01
    3.34837E-01    3.35713E-01    3.35905E-01    3.35942E-01    3.36564E-01
    3.36622E-01    3.37009E-01    3.37087E-01    3.37721E-01    3.38049E-01
    3.39093E-01    3.39806E-01    3.40556E-01    3.40955E-01    3.40960E-01
    3.40960E-01    3.40960E-01    3.40960E-01    3.40960E-01    3.40960E-01
    3.40960E-01    3.40960E-01    3.40961E-01    3.40970E-01    3.40970E-01
    3.40970E-01    3.40971E-01    3.40972E-01    3.40972E-01    3.40992E-01
    3.41076E-01    3.41396E-01    3.42606E-01    3.42911E-01    3.43160E-01
    3.43525E-01    3.43598E-01    3.43715E-01    3.44251E-01    3.44569E-01
    3.45219E-01    3.45303E-01    3.46136E-01    3.47556E-01    3.49844E-01
    3.50862E-01    3.51946E-01    3.56732E-01    3.58598E-01    3.59672E-01
    3.62487E-01    3.65259E-01    3.67089E-01    3.69270E-01    3.69571E-01
    3.70446E-01    3.71843E-01    3.72545E-01    3.74932E-01    3.75294E-01
    3.76635E-01    3.77642E-01    3.79853E-01    3.83803E-01    3.85664E-01
    3.85738E-01    3.85963E-01    3.86580E-01    3.92834E-01    3.93465E-01
    3.93507E-01    3.93585E-01    3.93623E-01    3.93899E-01    3.94031E-01
    4.04943E-01    4.07167E-01    4.10549E-01    4.18641E-01    4.23648E-01
    4.27905E-01    4.36825E-01    4.36960E-01    4.55798E-01    4.62346E-01
    4.64230E-01    4.67694E-01    4.92851E-01    5.28682E-01    5.32429E-01
    5.33943E-01    5.43899E-01    5.47264E-01    5.63578E-01    6.09622E-01
    6.12942E-01    6.15703E-01    6.30792E-01    6.49221E-01    6.59440E-01
    6.78344E-01    6.97065E-01    7.26248E-01    7.33529E-01    7.39607E-01
    7.83935E-01    9.82834E-01    3.79025E+00
  
 WARNING: Hessian has wrong number of negative eigenvalues:           0
  
  TS search will follow eigenvector  26 on this iteration
  
  Selected vector:  eigenvalue     6.95596E-03

 26)  C8-C9-C37-H64(149)  0.70707
      C8-C9-C37-C62(148)  0.70483
  
  
  Level shifts adjusted to satisfy step-size constraints
   Step size:    0.1001215
   Cos(theta):   0.9770304
   Final level shift:  -3.6034849E+00
  
  gradient maximum:        3.0431E-01 .  (  2.2500E-03 )
  gradient rms:            4.0107E-02 .  (  1.5000E-03 )
  displacement maximum:    4.0257E-02 .  (  9.0000E-03 )
  displacement rms:        5.9515E-03 *  (  6.0000E-03 )
  
  predicted energy change:  -5.1048E-02
  step size:     0.10012
  trust radius:  0.10000
  
  molecular structure not yet converged...
  
  center of mass moved by:
     x:    -1.9906E-02     y:    -5.6904E-02     z:    -2.4985E-03
  
  new geometry: 
                                   angstroms
  atom               x                 y                 z
  P1            0.1643705831      0.0231633026     -0.1146053204 
  Pd2          -0.1575078806      0.3688515853      2.2000323978 
  Br3          -0.6961680321     -1.2737767314      4.2541532536 
  C73          -0.9461856048      3.6168692043      4.9252144190 
  C74           0.2986074712      3.0083590565      5.0437262817 
  C75           0.4539853721      1.6947974819      4.6032038011 
  C76          -0.6384232434      1.0465111702      4.0104011141 
  C77          -1.9047281214      1.6528603508      3.9380462397 
  C78          -2.0498407066      2.9657778006      4.3856283858 
  F79          -1.0915366924      4.8840087284      5.3627382643 
  H80           1.1275416537      3.5615638517      5.4777654805 
  H81           1.4089865703      1.1884223974      4.6875012274 
  H82          -2.7578274925      1.1002634971      3.5551652432 
  H83          -3.0050707277      3.4810370088      4.3307116372 
  C3            1.8838943667     -0.1404509648     -0.7830505182 
  C4           -0.4579507343      1.5850400073     -1.0266261647 
  C5           -0.8484394207     -1.4931500241     -0.6879174040 
  C6            3.0880173245      0.1386453790      1.5147847128 
  C7            3.5773826252      1.3359833502      2.0710999580 
  C8            3.8689465878      1.4323267376      3.4292652244 
  C9            3.6893566454      0.3329140793      4.2677843131 
  C10           3.1756031565     -0.8493652528      3.7388217607 
  C11           2.8718544730     -0.9474060769      2.3808951369 
  C12           3.0383327785      0.0112130736      0.0269774250 
  C13           4.2974304386      0.0358930551     -0.6013769018 
  C14           4.4490256869     -0.1114856693     -1.9742588534 
  C15           3.3177798784     -0.2866486236     -2.7663595486 
  C16           2.0625941955     -0.2927485200     -2.1702672119 
  C17           0.6855312298      2.6096583317     -0.9214305708 
  C18          -0.8711242835      1.4205522261     -2.4931059165 
  C19          -1.6625834981      2.1346406173     -0.2400111609 
  C20          -2.3232822878     -1.2173467167     -0.3569041219 
  C21          -0.3757949403     -2.6751289053      0.1750956563 
  C22          -0.7292555563     -1.9368715306     -2.1516554421 
  C35           3.8113538476      2.5633237485      1.1684454028 
  H24           4.2502875612      2.3661103640      3.8363429014 
  C37           4.0474666369      0.4426734299      5.7618126781 
  H26           2.9952568903     -1.7034159402      4.3833920942 
  C39           2.3658585253     -2.2914058893      1.8303632368 
  H28           5.1801267169      0.1448434203      0.0231527597 
  H29           5.4415654311     -0.0933971366     -2.4185811751 
  H30           3.4069613114     -0.4099397064     -3.8433366947 
  H31           1.1969291748     -0.3935921850     -2.8119015502 
  H32           1.5441803771      2.3343334907     -1.5419259118 
  H33           0.3256529912      3.5929354856     -1.2526855139 
  H34           1.0339333156      2.7111412958      0.1147660342 
  H35          -0.0507791278      1.0743158133     -3.1277634404 
  H36          -1.7178559222      0.7363439058     -2.6081958814 
  H37          -1.1877088299      2.3971318201     -2.8856799867 
  H38          -1.4039858257      2.3304511385      0.8084674249 
  H39          -1.9870492661      3.0822259217     -0.6918620458 
  H40          -2.5170009516      1.4516855447     -0.2498774899 
  H41          -2.4435544524     -0.8548229567      0.6716276905 
  H42          -2.7684577373     -0.4850603912     -1.0393589968 
  H43          -2.8981534616     -2.1480023459     -0.4544493140 
  H44          -0.5101844275     -2.4782814899      1.2441488492 
  H45          -0.9574525152     -3.5705248954     -0.0834895769 
  H46           0.6778965919     -2.9045405867     -0.0158652148 
  H47          -1.0032493426     -1.1537715157     -2.8640631820 
  H48           0.2790858541     -2.2899298620     -2.3869917188 
  H49          -1.4126790415     -2.7810851258     -2.3180547150 
  C62           3.7637115092     -0.8933885681      6.4730468733 
  C63           5.5407042028      0.7894629220      5.9105824906 
  H64           3.4467005517      1.2275861606      6.2231586413 
  H65           5.7946133820      0.8671077110      6.9683372429 
  H66           6.1448692626      0.0071717237      5.4500201694 
  H67           5.7471546213      1.7408864262      5.4194114227 
  H68           4.0200367881     -0.8067310639      7.5294517167 
  H69           2.7061745141     -1.1418296303      6.3783764144 
  H70           4.3635032585     -1.6834131929      6.0201435547 
  C71           2.2002268209     -3.3070412628      2.9757147441 
  H72           1.4001447470     -2.1426926690      1.3521124803 
  C79           3.3746659702     -2.8609268616      0.8147685874 
  H74           1.8405142223     -4.2551001722      2.5742151600 
  H75           3.1611879204     -3.4654736779      3.4661475688 
  H76           1.4807933756     -2.9270843897      3.7012897741 
  H77           3.0088055712     -3.8140798106      0.4309095782 
  H78           3.4970323801     -2.1642574501     -0.0135341749 
  H79           4.3377230918     -3.0138915471      1.3029315604 
  C80           3.4239317702      3.8488977410      1.9231366463 
  C81           5.2983038344      2.6575155127      0.7762336017 
  H84           3.1890158185      2.4830692836      0.2767830660 
  H85           3.5893129073      4.7142231674      1.2803681232 
  H86           2.3716318753      3.8042061519      2.2058804586 
  H87           4.0350575283      3.9460110640      2.8206708299 
  H88           5.4539880753      3.5288035625      0.1389736636 
  H89           5.9076868557      2.7537236054      1.6754997011 
  H90           5.5946673413      1.7604507128      0.2350425354 
   
 
  bond lengths (angstroms):
 
 P1      -Pd2     :   2.362341      P1      -C3      :   1.852121
 P1      -C4      :   1.912727      P1      -C5      :   1.911459
 Pd2     -Br3     :   2.684734      Pd2     -C76     :   1.991968
 C73     -C74     :   1.390626      C73     -C78     :   1.390370
 C73     -F79     :   1.348405      C74     -C75     :   1.394147
 C74     -H80     :   1.086995      C75     -C76     :   1.401801
 C75     -H81     :   1.084227      C76     -C77     :   1.405853
 C77     -C78     :   1.394683      C77     -H82     :   1.086158
 C78     -H83     :   1.086725      C3      -C12     :   1.418406
 C3      -C16     :   1.406946      C4      -C17     :   1.538980
 C4      -C18     :   1.532427      C4      -C19     :   1.540118
 C5      -C20     :   1.536489      C5      -C21     :   1.537940
 C5      -C22     :   1.534152      C6      -C7      :   1.408042
 C6      -C11     :   1.405838      C6      -C12     :   1.494081
 C7      -C8      :   1.392446      C7      -C35     :   1.541393
 C8      -C9      :   1.394301      C8      -H24     :   1.087697
 C9      -C10     :   1.393387      C9      -C37     :   1.540263
 C10     -C11     :   1.394934      C10     -H26     :   1.085080
 C11     -C39     :   1.538003      C12     -C13     :   1.407397
 C13     -C14     :   1.389067      C13     -H28     :   1.086766
 C14     -C15     :   1.392057      C14     -H29     :   1.087605
 C15     -C16     :   1.389552      C15     -H30     :   1.087674
 C16     -H31     :   1.082238      C17     -H32     :   1.094576
 C17     -H33     :   1.098215      C17     -H34     :   1.097901
 C18     -H35     :   1.093451      C18     -H36     :   1.094688
 C18     -H37     :   1.099112      C19     -H38     :   1.097507
 C19     -H39     :   1.098802      C19     -H40     :   1.093871
 C20     -H41     :   1.097163      C20     -H42     :   1.095522
 C20     -H43     :   1.098231      C21     -H44     :   1.095301
 C21     -H45     :   1.098602      C21     -H46     :   1.095154
 C22     -H47     :   1.093546      C22     -H48     :   1.093977
 C22     -H49     :   1.098842      C35     -C80     :   1.540245
 C35     -C81     :   1.540689      C35     -H84     :   1.090324
 C37     -C62     :   1.539946      C37     -C63     :   1.540180
 C37     -H64     :   1.090802      C39     -C71     :   1.539733
 C39     -H72     :   1.087861      C39     -C79     :   1.540610
 C62     -H68     :   1.090506      C62     -H69     :   1.090445
 C62     -H70     :   1.090418      C63     -H65     :   1.090570
 C63     -H66     :   1.090464      C63     -H67     :   1.090448
 C71     -H74     :   1.090601      C71     -H75     :   1.090446
 C71     -H76     :   1.090143      C79     -H77     :   1.090735
 C79     -H78     :   1.089223      C79     -H79     :   1.090495
 C80     -H85     :   1.090546      C80     -H86     :   1.090540
 C80     -H87     :   1.090171      C81     -H88     :   1.090633
 C81     -H89     :   1.090543      C81     -H90     :   1.088781
 
  bond angles:
 
 C3      -P1      -Pd2     : 119.541011  C4      -P1      -Pd2     : 107.659890
 C4      -P1      -C3      : 101.660548  C5      -P1      -Pd2     : 109.740706
 C5      -P1      -C3      : 108.276476  C5      -P1      -C4      : 109.411869
 Br3     -Pd2     -P1      : 133.429930  C76     -Pd2     -P1      : 166.695125
 C76     -Pd2     -Br3     :  57.611762  C78     -C73     -C74     : 122.595406
 F79     -C73     -C74     : 118.688421  F79     -C73     -C78     : 118.713022
 C75     -C74     -C73     : 119.020395  H80     -C74     -C73     : 119.600688
 H80     -C74     -C75     : 121.378768  C76     -C75     -C74     : 118.849232
 H81     -C75     -C74     : 120.906677  H81     -C75     -C76     : 120.218393
 C75     -C76     -Pd2     : 110.702844  C77     -C76     -Pd2     : 108.506695
 C77     -C76     -C75     : 121.616856  C78     -C77     -C76     : 118.895915
 H82     -C77     -C76     : 120.409473  H82     -C77     -C78     : 120.686602
 C77     -C78     -C73     : 118.867586  H83     -C78     -C73     : 119.690511
 H83     -C78     -C77     : 121.438423  C12     -C3      -P1      : 122.688793
[...]
    H26      Z    -0.00110   0.00208   0.53915  -0.00141  -0.00076   0.00058
    C39      X     0.00000  -0.00002  -0.00020   0.00001   0.00001   0.00002
    C39      Y     0.00000   0.00000   0.00039  -0.00000   0.00000   0.00001
    C39      Z    -0.00000  -0.00003  -0.00060   0.00002   0.00001   0.00003
    H28      X    -0.00158   0.00141   0.00288  -0.00032  -0.01539  -0.00044
    H28      Y    -0.00009   0.00008   0.00025  -0.00002  -0.00101  -0.00002
    H28      Z    -0.00119   0.00104   0.00225  -0.00024  -0.01189  -0.00023
    H29      X    -0.00272   0.00135   0.00442  -0.00045  -0.03010   0.00040
    H29      Y     0.00018  -0.00009  -0.00031   0.00003   0.00179  -0.00003
    H29      Z     0.00112  -0.00056  -0.00189   0.00018   0.01089  -0.00018
    H30      X    -0.00018   0.00009   0.00014  -0.00004  -0.01959   0.00003
    H30      Y     0.00022  -0.00010  -0.00019   0.00004   0.01904  -0.00005
    H30      Z     0.00197  -0.00094  -0.00182   0.00037   0.16598  -0.00043
    H31      X    -0.00068   0.00032   0.00150  -0.00024   0.74929  -0.00068
    H31      Y    -0.00002   0.00001   0.00004  -0.00000   0.02677  -0.00003
    H31      Z    -0.00053   0.00027   0.00107  -0.00020   0.56085  -0.00056
    H32      X     0.00003   0.00035  -0.00018   0.00020  -0.00241  -0.00017
    H32      Y    -0.00002  -0.00014   0.00005  -0.00008   0.00038   0.00005
    H32      Z    -0.00003  -0.00027   0.00016  -0.00014   0.00088   0.00015
    H33      X     0.00010  -0.00002  -0.00009   0.00008   0.00011  -0.00008
    H33      Y    -0.00024   0.00007   0.00019  -0.00026  -0.00026   0.00017
    H33      Z     0.00014  -0.00002  -0.00008   0.00017   0.00002  -0.00008
    H34      X     0.00004  -0.00021   0.00000  -0.00017   0.00076   0.00001
    H34      Y     0.00007  -0.00012  -0.00002  -0.00002   0.00076  -0.00004
    H34      Z     0.00010  -0.00040  -0.00006  -0.00044   0.00291  -0.00007
    H35      X     0.00003   0.00015  -0.00015   0.00010  -0.03057  -0.00006
    H35      Y    -0.00000  -0.00008   0.00009  -0.00008   0.01871   0.00003
    H35      Z    -0.00001  -0.00013   0.00015  -0.00016   0.02542   0.00009
    H36      X    -0.00001   0.00003  -0.00019   0.00002  -0.00919  -0.00013
    H36      Y     0.00001   0.00002  -0.00015   0.00002  -0.00755  -0.00011
    H36      Z    -0.00000   0.00001  -0.00000  -0.00001  -0.00024  -0.00001
    H37      X     0.00004  -0.00003  -0.00004   0.00008  -0.00047  -0.00004
    H37      Y    -0.00013   0.00004   0.00011  -0.00016   0.00275   0.00008
    H37      Z     0.00006  -0.00004  -0.00005   0.00016  -0.00139  -0.00007
    H38      X     0.00110   0.00018   0.00002  -0.00239   0.00077   0.00002
    H38      Y     0.00093   0.00010   0.00002  -0.00131   0.00051  -0.00004
    H38      Z     0.00253   0.00036   0.00004  -0.00551   0.00206  -0.00011
    H39      X     0.00031  -0.00003  -0.00002  -0.00002   0.00021  -0.00004
    H39      Y    -0.00084   0.00008   0.00005   0.00029  -0.00043   0.00006
    H39      Z     0.00061  -0.00004  -0.00001  -0.00013   0.00018  -0.00002
    H40      X     0.00074   0.00035  -0.00013  -0.00225   0.00008  -0.00028
    H40      Y     0.00065   0.00027  -0.00010  -0.00184   0.00020  -0.00022
    H40      Z    -0.00023  -0.00006   0.00002   0.00037  -0.00001   0.00002
    H41      X    -0.00010   0.00003   0.00000   0.00004  -0.00025  -0.00001
    H41      Y     0.00017  -0.00003   0.00004  -0.00015   0.00066   0.00010
    H41      Z     0.00032  -0.00011   0.00005  -0.00018   0.00172   0.00016
    H42      X     0.00023  -0.00000   0.00001  -0.00006   0.00014   0.00003
    H42      Y    -0.00041   0.00001  -0.00001   0.00013  -0.00025  -0.00004
    H42      Z     0.00041  -0.00001   0.00002  -0.00011   0.00021   0.00006
    H43      X     0.00000  -0.00008  -0.00011   0.00012   0.00044  -0.00009
    H43      Y     0.00002  -0.00013  -0.00015   0.00017   0.00040  -0.00010
    H43      Z    -0.00001  -0.00002  -0.00001   0.00006  -0.00000  -0.00001
    H44      X     0.00002  -0.00001   0.00001  -0.00003  -0.00018   0.00006
    H44      Y    -0.00008  -0.00001  -0.00005   0.00007   0.00035  -0.00005
    H44      Z    -0.00024  -0.00019  -0.00032   0.00050   0.00134  -0.00014
    H45      X     0.00004  -0.00006  -0.00021   0.00010   0.00038  -0.00011
    H45      Y     0.00005  -0.00008  -0.00021   0.00014   0.00040  -0.00016
    H45      Z     0.00003  -0.00002  -0.00003   0.00003   0.00005  -0.00001
    H46      X     0.00001   0.00034   0.00036  -0.00031  -0.00143  -0.00037
    H46      Y    -0.00000  -0.00010  -0.00003   0.00009   0.00037   0.00014
    H46      Z     0.00002  -0.00009  -0.00002   0.00005   0.00010   0.00015
    H47      X     0.00009  -0.00003   0.00003   0.00001  -0.00563   0.00004
    H47      Y    -0.00026   0.00008  -0.00005  -0.00001   0.00958  -0.00005
    H47      Z     0.00026  -0.00007   0.00006  -0.00001  -0.01005   0.00007
    H48      X     0.00011   0.00014  -0.00016  -0.00014  -0.02903  -0.00013
    H48      Y    -0.00003  -0.00005   0.00009   0.00005   0.00904   0.00008
    H48      Z    -0.00004  -0.00003   0.00004   0.00005   0.00717   0.00004
    H49      X     0.00001  -0.00002  -0.00018   0.00006  -0.00425  -0.00010
    H49      Y     0.00003  -0.00003  -0.00021   0.00008  -0.00383  -0.00014
    H49      Z     0.00001  -0.00002  -0.00004   0.00004   0.00012  -0.00003
    C62      X    -0.00003   0.00012  -0.00061   0.00001   0.00001  -0.00036
    C62      Y     0.00002  -0.00008   0.00177  -0.00000   0.00000   0.00003
    C62      Z     0.00001  -0.00002   0.00100   0.00000   0.00001  -0.00020
    C63      X    -0.00000   0.00003  -0.00009   0.00000   0.00001  -0.00003
    C63      Y     0.00002  -0.00006   0.00043  -0.00000  -0.00000   0.00004
    C63      Z     0.00001  -0.00001  -0.00008   0.00001   0.00001   0.00003
    H64      X     0.00029  -0.00136   0.00052   0.00003   0.00002  -0.00032
    H64      Y    -0.00081   0.00362   0.00039  -0.00005  -0.00004  -0.00001
    H64      Z    -0.00036   0.00159   0.00161  -0.00003  -0.00004  -0.00002
    H65      X    -0.00002   0.00001   0.00080  -0.00003  -0.00007   0.00023
    H65      Y    -0.00002   0.00002   0.00026  -0.00002  -0.00003   0.00005
    H65      Z    -0.00008   0.00003   0.00156  -0.00010  -0.00020   0.00023
    H66      X     0.00011  -0.00049   0.00189   0.00000  -0.00001   0.00019
    H66      Y    -0.00018   0.00077  -0.00270  -0.00001   0.00002  -0.00046
    H66      Z    -0.00007   0.00029  -0.00117   0.00000   0.00002  -0.00019
    H67      X    -0.00003   0.00006  -0.00123   0.00003   0.00002   0.00022
    H67      Y    -0.00006   0.00009  -0.00266   0.00005   0.00002   0.00023
    H67      Z     0.00004  -0.00007   0.00167  -0.00003  -0.00000  -0.00012
    H68      X    -0.00001   0.00004  -0.00290  -0.00001  -0.00003   0.00131
    H68      Y    -0.00001   0.00001  -0.00336  -0.00001  -0.00003   0.00046
    H68      Z    -0.00005   0.00012  -0.00959  -0.00007  -0.00016   0.00289
    H69      X     0.00022  -0.00072  -0.00310  -0.00002  -0.00005   0.00111
    H69      Y     0.00011  -0.00033   0.00039  -0.00002  -0.00001   0.00180
    H69      Z    -0.00002   0.00004   0.00025   0.00000   0.00001  -0.00208
    H70      X     0.00017  -0.00064   0.01150  -0.00003  -0.00001   0.00076
    H70      Y    -0.00028   0.00114  -0.02294   0.00006   0.00003  -0.00080
    H70      Z    -0.00005   0.00022  -0.00777   0.00002   0.00002   0.00002
    C71      X    -0.00002  -0.00001  -0.00177   0.00004  -0.00000  -0.00001
    C71      Y     0.00001  -0.00000   0.00072  -0.00003  -0.00003   0.00004
    C71      Z     0.00002  -0.00002  -0.00203  -0.00000  -0.00001   0.00004
    H72      X    -0.00001   0.00014   0.00126  -0.00008  -0.00012  -0.00021
    H72      Y    -0.00000  -0.00002  -0.00226   0.00003  -0.00006  -0.00003
    H72      Z    -0.00002   0.00028   0.00140  -0.00017  -0.00011  -0.00044
    C79      X     0.00001  -0.00001  -0.00013   0.00000   0.00002   0.00001
    C79      Y     0.00001  -0.00001   0.00026  -0.00001  -0.00000   0.00003
    C79      Z    -0.00001  -0.00001  -0.00079   0.00001  -0.00003   0.00002
    H74      X    -0.00003   0.00005   0.00075   0.00003   0.00009  -0.00018
    H74      Y    -0.00001   0.00016   0.00539  -0.00000   0.00031  -0.00043
    H74      Z    -0.00000   0.00008   0.00397  -0.00000   0.00017  -0.00024
    H75      X    -0.00007   0.00017   0.01810  -0.00012  -0.00003  -0.00016
    H75      Y     0.00003  -0.00010  -0.00743   0.00005   0.00003   0.00015
    H75      Z    -0.00009   0.00027   0.02913  -0.00019  -0.00010  -0.00020
    H76      X     0.00040  -0.00004   0.00466  -0.00046  -0.00007   0.00053
    H76      Y    -0.00023   0.00004  -0.00323   0.00025   0.00002  -0.00032
    H76      Z    -0.00015   0.00000  -0.00314   0.00020   0.00001  -0.00019
    H77      X     0.00000   0.00001   0.00046  -0.00000   0.00000  -0.00003
    H77      Y    -0.00003   0.00015  -0.00016   0.00004   0.00023  -0.00048
    H77      Z    -0.00002   0.00007   0.00000   0.00002   0.00011  -0.00023
    H78      X    -0.00010   0.00002  -0.00261   0.00007  -0.00019  -0.00008
    H78      Y    -0.00009   0.00001  -0.00265   0.00006  -0.00021  -0.00003
    H78      Z     0.00011  -0.00003   0.00326  -0.00007   0.00023   0.00008
    H79      X    -0.00002   0.00010   0.00457  -0.00005  -0.00002  -0.00010
    H79      Y     0.00001  -0.00003  -0.00130   0.00001  -0.00000   0.00006
    H79      Z    -0.00003   0.00014   0.00581  -0.00008  -0.00001  -0.00013
    C80      X    -0.00001  -0.00024   0.00005   0.00002  -0.00002   0.00002
    C80      Y     0.00001  -0.00008   0.00000   0.00003   0.00002  -0.00000
    C80      Z     0.00004  -0.00037   0.00010  -0.00000  -0.00002  -0.00006
    C81      X    -0.00001  -0.00000   0.00003   0.00001   0.00001  -0.00000
    C81      Y     0.00002  -0.00003  -0.00000   0.00000   0.00000  -0.00003
    C81      Z     0.00001  -0.00006   0.00008   0.00000  -0.00002  -0.00001
    H84      X    -0.00003   0.00024  -0.00021  -0.00005  -0.00014  -0.00001
    H84      Y    -0.00005   0.00029  -0.00012  -0.00004   0.00001   0.00001
    H84      Z    -0.00015   0.00089  -0.00064  -0.00017  -0.00030   0.00001
    H85      X    -0.00005   0.00017  -0.00005  -0.00005   0.00003  -0.00004
    H85      Y    -0.00017  -0.00106   0.00033  -0.00032  -0.00036   0.00007
    H85      Z     0.00011   0.00100  -0.00033   0.00026   0.00023   0.00004
    H86      X     0.00043   0.00082  -0.00018   0.00003   0.00007  -0.00044
    H86      Y     0.00028   0.00034  -0.00006   0.00009   0.00006  -0.00020
    H86      Z    -0.00013  -0.00027   0.00004  -0.00005  -0.00005   0.00009
    H87      X    -0.00028   0.00192  -0.00033  -0.00011   0.00006   0.00025
    H87      Y    -0.00021   0.00165  -0.00037  -0.00008   0.00001   0.00023
    H87      Z    -0.00047   0.00374  -0.00081  -0.00019   0.00005   0.00053
    H88      X    -0.00001   0.00001  -0.00006   0.00000  -0.00001   0.00004
    H88      Y    -0.00011  -0.00013   0.00028  -0.00005  -0.00023   0.00039
    H88      Z     0.00008   0.00007  -0.00021   0.00003   0.00014  -0.00024
    H89      X    -0.00007   0.00032  -0.00032  -0.00003  -0.00001   0.00009
    H89      Y    -0.00002   0.00014  -0.00018  -0.00002   0.00001   0.00003
    H89      Z    -0.00012   0.00056  -0.00059  -0.00006   0.00000   0.00016
    H90      X     0.00014  -0.00024   0.00009  -0.00003  -0.00014  -0.00018
    H90      Y    -0.00014   0.00026  -0.00011   0.00002   0.00016   0.00012
    H90      Z    -0.00011   0.00020  -0.00009   0.00002   0.00010   0.00013
  
  Number of imaginary frequencies:   1
   
  Writing vibrational animation data to ox_add_TS_L1_PL274_3.vib
  Writing IR vibrational spectrum data to ox_add_TS_L1_PL274_3_vib.spm
  rotational symmetry number:  1

  rotational temperatures (K):      0.004489      0.003660      0.003213
   
  The Quasi-Harmonic approximation will be applied to compute
  vibrational constributions to thermodynamic properties.
  Frequencies will be adjusted to a minimum value of  100.00 cm^-1.

    1 vibrational frequencies below    0.0 cm-1 not included in zero-point
  energy or thermochemical analysis.  Set freqcut to change the frequency
  cutoff value.

  vibrational temperatures:
       mode:      2        3        4        5        6        7
  temp. (K):   143.88   143.88   143.88   143.88   143.88   143.88
   
       mode:      8        9       10       11       12       13
  temp. (K):   143.88   143.88   143.88   143.88   143.88   143.88
   
       mode:     14       15       16       17       18       19
  temp. (K):   143.88   143.88   148.02   156.00   162.40   169.04
   
       mode:     20       21       22       23       24       25
  temp. (K):   182.84   198.99   205.76   212.51   224.14   239.29
   
       mode:     26       27       28       29       30       31
  temp. (K):   250.58   273.35   284.47   289.15   309.76   323.66
   
       mode:     32       33       34       35       36       37
  temp. (K):   340.58   355.07   362.58   365.60   370.81   374.79
   
       mode:     38       39       40       41       42       43
  temp. (K):   381.77   387.91   395.72   405.96   414.77   420.75
   
       mode:     44       45       46       47       48       49
  temp. (K):   428.47   429.82   440.40   441.22   459.45   476.20
   
       mode:     50       51       52       53       54       55
  temp. (K):   484.16   487.04   491.72   499.69   513.95   531.03
   
       mode:     56       57       58       59       60       61
  temp. (K):   550.12   565.42   577.27   579.73   589.46   599.84
   
       mode:     62       63       64       65       66       67
  temp. (K):   608.59   619.47   624.06   652.97   686.85   696.81
   
       mode:     68       69       70       71       72       73
  temp. (K):   706.94   719.97   739.99   748.66   770.52   813.58
   
       mode:     74       75       76       77       78       79
  temp. (K):   814.66   836.68   843.03   874.13   882.07   890.50
   
       mode:     80       81       82       83       84       85
  temp. (K):   919.41   935.21   957.89   980.39  1001.15  1081.07
   
       mode:     86       87       88       89       90       91
  temp. (K):  1114.87  1141.66  1146.86  1148.47  1163.57  1190.03
   
       mode:     92       93       94       95       96       97
  temp. (K):  1201.31  1202.14  1217.34  1243.52  1297.11  1310.69
   
       mode:     98       99      100      101      102      103
  temp. (K):  1313.79  1325.77  1333.11  1364.09  1367.04  1367.97
   
       mode:    104      105      106      107      108      109
  temp. (K):  1371.03  1376.44  1380.54  1385.55  1390.34  1391.86
   
       mode:    110      111      112      113      114      115
  temp. (K):  1402.51  1410.49  1413.98  1417.97  1419.38  1420.57
   
       mode:    116      117      118      119      120      121
  temp. (K):  1430.86  1439.79  1468.28  1473.49  1480.50  1504.28
   
       mode:    122      123      124      125      126      127
  temp. (K):  1514.55  1518.23  1523.80  1539.28  1575.51  1592.79
   
       mode:    128      129      130      131      132      133
  temp. (K):  1599.78  1609.00  1635.24  1644.30  1650.10  1655.48
   
       mode:    134      135      136      137      138      139
  temp. (K):  1671.56  1683.17  1697.27  1722.96  1739.81  1740.12
   
       mode:    140      141      142      143      144      145
  temp. (K):  1743.55  1751.65  1767.81  1774.49  1781.88  1795.49
   
       mode:    146      147      148      149      150      151
  temp. (K):  1802.55  1824.90  1842.38  1865.86  1872.58  1875.31
   
       mode:    152      153      154      155      156      157
  temp. (K):  1883.70  1908.49  1929.78  1940.79  1943.92  1964.29
   
       mode:    158      159      160      161      162      163
  temp. (K):  1966.04  1970.30  1998.89  2023.85  2043.53  2046.49
   
       mode:    164      165      166      167      168      169
  temp. (K):  2047.41  2048.63  2049.51  2052.20  2053.38  2054.48
   
       mode:    170      171      172      173      174      175
  temp. (K):  2077.40  2079.54  2083.53  2093.01  2103.24  2115.45
   
       mode:    176      177      178      179      180      181
  temp. (K):  2132.23  2159.31  2161.07  2163.29  2164.10  2171.60
   
       mode:    182      183      184      185      186      187
  temp. (K):  2173.18  2173.89  2178.22  2179.10  2182.43  2184.78
   
       mode:    188      189      190      191      192      193
  temp. (K):  2185.97  2186.92  2187.77  2195.04  2198.79  2200.49
   
       mode:    194      195      196      197      198      199
  temp. (K):  2206.22  2207.33  2208.67  2209.38  2214.50  2215.67
   
       mode:    200      201      202      203      204      205
  temp. (K):  2217.52  2220.03  2232.73  2237.95  2331.99  2334.47
   
       mode:    206      207      208      209      210      211
  temp. (K):  2340.70  2360.82  2378.32  2411.92  4342.58  4369.00
   
       mode:    212      213      214      215      216      217
  temp. (K):  4370.48  4372.99  4375.66  4377.69  4378.01  4382.02
   
       mode:    218      219      220      221      222      223
  temp. (K):  4383.61  4384.15  4384.71  4386.47  4389.44  4465.09
   
       mode:    224      225      226      227      228      229
  temp. (K):  4465.61  4472.81  4476.56  4477.99  4482.58  4485.75
   
       mode:    230      231      232      233      234      235
  temp. (K):  4485.84  4487.55  4489.36  4492.71  4495.71  4496.23
   
       mode:    236      237      238      239      240      241
  temp. (K):  4499.34  4500.98  4501.32  4505.14  4510.28  4518.87
   
       mode:    242      243      244      245      246      247
  temp. (K):  4526.62  4536.05  4541.25  4544.60  4549.86  4564.69
   
       mode:    248      249      250      251      252      253
  temp. (K):  4565.40  4575.11  4586.22  4602.74  4621.07  4624.05
   
       mode:    254      255      256      257      258
  temp. (K):  4628.44  4636.15  4645.87  4673.66  4711.52
   
   
  Thermodynamic properties calculated assuming an ideal gas

  In the table below, the units for temperature
  are kelvins, the units for U, H, and G are
  kcal/mol and the units for Cv and S are cal/(mol K)

  The zero point energy (ZPE):    479.049 kcal/mol
  is not included in U, H, or G in the table below
  
 
  =============================================================================
  Thermodynamic properties for P = 1.00E+00 atm, calculated at   1 temperatures


  T =   298.15 K, P = 1.00E+00 atm
   
                  U         Cv          S          H          G        ln(Q)
              =========  =========  =========  =========  =========  =========
  trans.          0.889      2.981     45.536      1.481    -12.095   20.41467
  rot.            0.889      2.981     37.751      0.889    -10.367   17.49727
  vib.           24.935    161.809    151.258     24.935    -20.163   34.03057
  elec.           0.000      0.000      0.000      0.000      0.000    0.00000
  ----------------------------------------------------------------------------
  total          26.712    167.771    234.545     27.305    -42.625   71.94250
   
   Total internal energy, Utot(SCFE + ZPE + U):   -1943.221135 hartrees
   Total enthalpy, Htot (Utot + nRT), with n=1:   -1943.220191 hartrees
    Total Gibbs free energy, Gtot (Htot - T*S):   -1943.331631 hartrees
   
  end of program freq
   
 Time(freq)  user:       1.151  user+sys:       1.151  wallclock:       5.220
  
  start of program post
  
  Writing input files for PBF
  end of program post
   
 Time(post)  user:       0.256  user+sys:       0.256  wallclock:       0.127

 Total cpu seconds     user:  137946.889   user+sys:  137946.889
  
 Total elapsed time:    16727 seconds

Job ox_add_TS_L1_PL274_3 completed on bp1-compute134 at Thu Dec  4 22:57:01 2025
