Job ox_add_L_trans_L1_PL274_2 started on bp1-compute103 at Thu Dec  4 18:19:33 2025
jobid: bp1-compute103-0-6931cfcc

  +--------------------------------------------------------------------+
  |  Jaguar version 12.5, release 138                                  |
  |                                                                    |
  |  Copyright Schrodinger, Inc.                                       |
  |  All Rights Reserved.                                              |
  |                                                                    |
  |  The following have contributed to Jaguar (listed alphabetically): |
  |  Ty Balduf, Mike Beachy, Chandler Bennett, Art Bochevarov,         |
  |  Dale Braden, Yixiang Cao, Alan Chien, Chris Cortis,               |
  |  Rich Friesner, Jim Furness, Bill Goddard, Hod Greeley,            |
  |  Tom Hughes, Leif Jacobson, Jean-Marc Langlois, Daniel Levine,     |
  |  Rob Murphy, Dean Philipp, Tom Pollard, Murco Ringnalda,           |
  |  Daniel Mainz, Pablo Videla, Mark Watson, Haoyu Yu.                |
  |                                                                    |
  |  Use of this program should be acknowledged in publications as:    |
  |                                                                    |
  |  Jaguar, version 12.5, Schrodinger, Inc., New York, NY, 2024.      |
  |                                                                    |
  |  A. D. Bochevarov, E. Harder, T. F. Hughes, J. R. Greenwood,       |
  |  D. A. Braden, D. M. Philipp, D. Rinaldo, M. D. Halls,             |
  |  J. Zhang, R. A. Friesner, "Jaguar: A High-Performance Quantum     |
  |  Chemistry Software Program with Strengths in Life and Materials   |
  |  Sciences", Int. J. Quantum Chem., 2013, 113(18), 2110-2142.       |
  +--------------------------------------------------------------------+
  
  start of program pre
  
  Job name: ox_add_L_trans_L1_PL274_2
  Executables used: /software/local/apps/schrodinger2024-3/jaguar-v12.5/bin/Linux-x86_64
  Temporary files : /tmp/ar21627/ox_add_L_trans_L1_PL274_2#bp1-compute103-0-6931cfcc
  Basis file : using default basis file from /software/local/apps/schrodinger2024-3
  Maestro file (input):  ox_add_L_trans_L1_PL274_2.mae
  Maestro file (output): ox_add_L_trans_L1_PL274_2.01.mae
  
 Contents of input file: &gen and (if present) &atomic sections only
 ----------------Contents start----------------
&gen
dftname=b3pw91-d3
basis=6-31G*
numd=5
ip11=2
iaccg=3
isolv=2
igeopt=1
solvent=benzene
ifreq=1
&
&atomic
atom basis
Pd2 lacv3p*
Br3 lacv3p*
&
 -----------------Contents end-----------------
 
  PS calculation requested. Using PS version of 6-31g*
  basis set:               non_standard                    
  net molecular charge:    0
  multiplicity:            1
  
  Using up to  18 threads per process
  
  This run will use ECP on            2  atoms
  number of basis functions....          660
  
 Input geometry:
                                   angstroms
  atom               x                 y                 z
  P1            0.0000000000      0.0000000000      0.0000000000 
  Pd2           0.0000000000      0.0000000000      2.2562152928 
  Br3           2.3722101054      0.9680810120      2.3261133603 
  C73          -4.3900044557     -1.7817306027      2.0643448706 
  C74          -3.3096352998     -2.6459053229      1.9871001104 
  C75          -2.0185801371     -2.1192965258      2.0655625530 
  C76          -1.8218915892     -0.7460104736      2.2319228250 
  C77          -2.9319597516      0.1006760372      2.3029692476 
  C78          -4.2248399085     -0.4147026173      2.2222149763 
  F79          -5.6422887744     -2.2866313860      1.9758937787 
  H80          -3.4823526498     -3.7109282021      1.8636164403 
  H81          -1.1656342922     -2.7831446645      1.9780796589 
  H82          -2.7936786954      1.1723062665      2.3988099038 
  H83          -5.0974906132      0.2289794887      2.2707200520 
  C3            1.7831463244      0.0000000000     -0.8473727461 
  C4           -0.9886469542     -1.5695736595     -0.6867421696 
  C5           -0.7901183997      1.5049379058     -0.8479766882 
  C6            1.8652236082      0.0548153147     -2.3939977476 
  C7            2.5239751135     -1.2700843094     -0.3645010905 
  C8           -0.4269730349     -2.7892648706      0.0877861881 
  C9           -2.4927173809     -1.3979037391     -0.3728264069 
  C10          -0.8892394008      1.4114160136     -2.2607084982 
  C11          -1.2546226733      2.4840588565     -3.0851574536 
  C12          -1.5207952457      3.7270633661     -2.4988050521 
  C13          -1.4998965492      3.8273578633     -1.1029466553 
  C14          -1.1937791729      2.7411469086     -0.2403429206 
  C15          -1.4955600723      3.0253394478      1.2179072042 
  C16          -2.8573804410      2.9258007927      1.6427194187 
  C17          -3.1835632123      3.2671285981      2.9669664830 
  C18          -2.2184617792      3.7066195558      3.8875966319 
  C19          -0.9059156283      3.8714990162      3.4252879495 
  C20          -0.5242988337      3.5606149275      2.1076927210 
  C21           0.8903072400      3.9069269557      1.6394151962 
  C22           0.9383018438      5.3645307443      1.1161004170 
  C23          -3.9942841535      2.5263893501      0.6865304301 
  C24          -5.3505637046      2.2833957675      1.3842640835 
  C25          -2.5643922096      3.9623566972      5.3522129059 
  C26           1.9790472741      3.6993159789      2.7112369243 
  C27          -4.1772465979      3.5971530752     -0.4187448853 
  C28          -2.9590991633      2.6441334860      6.0577614421 
  C29          -3.6562524435      5.0419270943      5.5212642682 
  H30           1.3657093114     -0.7799130754     -2.9078132675 
  H31           1.4803630968      1.0048275598     -2.7998800482 
  H32           2.5173147849     -1.3496627875      0.7346946624 
  H33           2.1017488047     -2.1910767731     -0.8041808148 
  H34           0.6516610911     -2.9352130240     -0.0994398881 
  H35          -0.5792397503     -2.6819712206      1.1734751983 
  H36          -2.6540298517     -1.1791743898      0.6945205024 
  H37          -2.9527147866     -0.5998492729     -0.9823480769 
  H38          -0.6668554910      0.4562132947     -2.7391918417 
  H39          -1.3132346546      2.3437192186     -4.1713334739 
  H40          -1.7763881926      4.5999501479     -3.1116595861 
  H41          -1.7717165211      4.7780348876     -0.6311032179 
  H42          -4.2228968831      3.1519016141      3.2973832778 
  H43          -0.1458421643      4.2343620195      4.1269936111 
  H44           1.1276614546      3.2434762284      0.7909457083 
  H45           0.6687945106      6.0742005961      1.9214661099 
  H46           0.2397811224      5.5249556070      0.2757633575 
  H47           1.9575479326      5.6181635074      0.7655036563 
  H48          -3.7070319140      1.5798115405      0.1947094516 
  H49          -5.7900813679      3.2230044215      1.7699787706 
  H50          -6.0738248006      1.8623278052      0.6594995618 
  H51          -5.2365400882      1.5821947584      2.2262525180 
  H52          -1.6429003120      4.3395922896      5.8404978839 
  H53           1.8882160219      4.4345826098      3.5337800204 
  H54           2.9783958680      3.8431453967      2.2586305933 
  H55           1.9404016142      2.6824878981      3.1362898761 
  H56          -4.4397907204      4.5735793220      0.0311146479 
  H57          -4.9952375752      3.3104519927     -1.1083073776 
  H58          -3.2613763576      3.7375186832     -1.0181828901 
  H59          -3.9048202190      2.2454047989      5.6452470654 
  H60          -3.1042172200      2.8097039111      7.1433702254 
  H61          -2.1833050044      1.8725387701      5.9080647365 
  H62          -4.6088031266      4.7234831349      5.0576118387 
  H63          -3.3573436749      5.9970890541      5.0511848065 
  H64          -3.8569602758      5.2325977594      6.5931467838 
  C65          -0.8649132895     -1.8927831534     -2.1950605687 
  H66          -1.4545742224     -2.8127915311     -2.3838143944 
  H67          -1.2845186049     -1.1123981377     -2.8537981569 
  H68           0.1696124414     -2.1031942311     -2.5113519423 
  C69           2.5160792963      1.2658499196     -0.3495850975 
  H70           3.5592243218      1.2394134262     -0.7263030562 
  H71           2.0423449106      2.1774381524     -0.7572142958 
  H72           2.5500876307      1.3151497824      0.7482272982 
  H73           2.9402802330      0.0025088778     -2.6612312077 
  H74           3.5817627609     -1.2058906194     -0.6913890209 
  H75          -0.9577269386     -3.7012820138     -0.2548784974 
  H76          -3.0112816544     -2.3483861276     -0.6137205949 
   
  principal moments of inertia:
        amu*angstrom^2:              5675.79330              6367.06081              7453.48997
                g*cm^2:          9.42487533E-37          1.05727519E-36          1.23768097E-36
   
  rotational constants:
               cm^(-1):      0.00297009      0.00264763      0.00226171
                   GHz:      0.08904112      0.07937399      0.06780435
   
  Molecular weight:     704.18 amu
   
  Stoichiometry: PdC35PH49BrF
  Molecular Point Group: C1      
  Point Group used: C1
  
 
Number of optimization coordinates:   290
Number of independent coordinates:    290
Number of non-redundant coordinates:  258
Number of frozen coordinates:           0
Number of harmonic constraints:         0
 
Number of geometric degrees of freedom:   258
Maximum geometric degrees of freedom:     258
 " " " " " excluding dummy atoms:         258
 
 
  bond lengths (angstroms):
 
 P1      -Pd2     :   2.256215      P1      -C3      :   1.974247
 P1      -C4      :   1.978029      P1      -C5      :   1.899524
 Pd2     -Br3     :   2.563093      Pd2     -C76     :   1.968860
 Br3     -H72     :   1.625368      C73     -C74     :   1.385627
 C73     -C78     :   1.385990      C73     -F79     :   1.353131
 C74     -C75     :   1.396530      C74     -H80     :   1.085980
 C75     -C76     :   1.397239      C75     -H81     :   1.084373
 C76     -C77     :   1.397919      C77     -C78     :   1.394158
 C77     -H82     :   1.084757      C78     -H83     :   1.085449
 C3      -C6      :   1.549771      C3      -C7      :   1.547613
 C3      -C69     :   1.545108      C4      -C8      :   1.550167
 C4      -C9      :   1.546041      C4      -C65     :   1.547514
 C5      -C10     :   1.419289      C5      -C14     :   1.435400
 C6      -H30     :   1.100133      C6      -H31     :   1.102443
 C6      -H73     :   1.109007      C7      -H32     :   1.102093
 C7      -H33     :   1.104455      C7      -H74     :   1.109005
 C8      -H34     :   1.104448      C8      -H35     :   1.101552
 C8      -H75     :   1.109457      C9      -H36     :   1.101405
 C9      -H37     :   1.104538      C9      -H76     :   1.109214
 C10     -C11     :   1.401351      C10     -H38     :   1.091244
 C11     -C12     :   1.399899      C11     -H39     :   1.096772
 C12     -C13     :   1.399613      C12     -H40     :   1.096745
 C13     -C14     :   1.420439      C13     -H41     :   1.095586
 C14     -C15     :   1.516025      C15     -C16     :   1.430010
 C15     -C20     :   1.421825      C16     -C17     :   1.405891
 C16     -C23     :   1.538303      C17     -C18     :   1.404327
 C17     -H42     :   1.096662      C18     -C19     :   1.401318
 C18     -C25     :   1.526489      C19     -C20     :   1.406534
 C19     -H43     :   1.096254      C20     -C21     :   1.529812
 C21     -C22     :   1.549442      C21     -C26     :   1.541836
 C21     -H44     :   1.102907      C22     -H45     :   1.106743
 C22     -H46     :   1.104461      C22     -H47     :   1.107299
 C23     -C24     :   1.544465      C23     -C27     :   1.549724
 C23     -H48     :   1.104722      C24     -H49     :   1.106714
 C24     -H50     :   1.107108      C24     -H51     :   1.101648
 C25     -C28     :   1.546384      C25     -C29     :   1.544736
 C25     -H52     :   1.108998      C26     -H53     :   1.106998
 C26     -H54     :   1.106452      C26     -H55     :   1.102771
 C27     -H56     :   1.106667      C27     -H57     :   1.107611
 C27     -H58     :   1.103561      C28     -H59     :   1.106138
 C28     -H60     :   1.107709      C28     -H61     :   1.104366
 C29     -H62     :   1.106225      C29     -H63     :   1.105738
 C29     -H64     :   1.107055      C65     -H66     :   1.108938
 C65     -H67     :   1.104085      C65     -H68     :   1.102069
 C69     -H70     :   1.109399      C69     -H71     :   1.105251
 C69     -H72     :   1.099445
 
  bond angles:
 
 C3      -P1      -Pd2     : 115.417634  C4      -P1      -Pd2     : 110.315238
 C4      -P1      -C3      : 107.602855  C5      -P1      -Pd2     : 116.513936
 C5      -P1      -C3      : 100.607821  C5      -P1      -C4      : 105.413350
 Br3     -Pd2     -P1      :  91.562706  C76     -Pd2     -P1      :  89.293047
 C76     -Pd2     -Br3     : 179.141579  H72     -Br3     -Pd2     :  98.943763
 C78     -C73     -C74     : 121.909126  F79     -C73     -C74     : 119.027529
 F79     -C73     -C78     : 119.062389  C75     -C74     -C73     : 118.848879
 H80     -C74     -C73     : 119.601754  H80     -C74     -C75     : 121.548898
 C76     -C75     -C74     : 120.493887  H81     -C75     -C74     : 119.458344
 H81     -C75     -C76     : 120.038367  C75     -C76     -Pd2     : 120.274260
 C77     -C76     -Pd2     : 120.310758  C77     -C76     -C75     : 119.311759
 C78     -C77     -C76     : 120.634266  H82     -C77     -C76     : 120.106568
 H82     -C77     -C78     : 119.244040  C77     -C78     -C73     : 118.797858
 H83     -C78     -C73     : 119.615841  H83     -C78     -C77     : 121.583776
 C6      -C3      -P1      : 118.435966  C7      -C3      -P1      : 107.363714
 C7      -C3      -C6      : 108.363978  C69     -C3      -P1      : 106.867607
 C69     -C3      -C6      : 105.510586  C69     -C3      -C7      : 110.166900
 C8      -C4      -P1      : 105.650726  C9      -C4      -P1      : 109.125727
 C9      -C4      -C8      : 109.780136  C65     -C4      -P1      : 117.655696
 C65     -C4      -C8      : 107.078681  C65     -C4      -C9      : 107.390303
 C10     -C5      -P1      : 114.910189  C14     -C5      -P1      : 127.613023
 C14     -C5      -C10     : 117.288667  H30     -C6      -C3      : 114.532958
 H31     -C6      -C3      : 112.297122  H31     -C6      -H30     : 108.867652
 H73     -C6      -C3      : 106.866856  H73     -C6      -H30     : 106.966915
 H73     -C6      -H31     : 106.878241  H32     -C7      -C3      : 111.564943
 H33     -C7      -C3      : 112.156573  H33     -C7      -H32     : 109.543807
 H74     -C7      -C3      : 108.488385  H74     -C7      -H32     : 107.693622
 H74     -C7      -H33     : 107.191431  H34     -C8      -C4      : 111.909222
 H35     -C8      -C4      : 111.452173  H35     -C8      -H34     : 108.357701
 H75     -C8      -C4      : 108.610725  H75     -C8      -H34     : 107.831746
 H75     -C8      -H35     : 108.563238  H36     -C9      -C4      : 111.180188
 H37     -C9      -C4      : 111.921524  H37     -C9      -H36     : 109.286245
 H76     -C9      -C4      : 108.395216  H76     -C9      -H36     : 108.189506
 H76     -C9      -H37     : 107.733199  C11     -C10     -C5      : 123.599104
 H38     -C10     -C5      : 118.678591  H38     -C10     -C11     : 117.721925
 C12     -C11     -C10     : 118.868590  H39     -C11     -C10     : 119.909520
 H39     -C11     -C12     : 121.215735  C13     -C12     -C11     : 118.588670
 H40     -C12     -C11     : 121.127678  H40     -C12     -C13     : 120.247906
 C14     -C13     -C12     : 123.646751  H41     -C13     -C12     : 119.209043
 H41     -C13     -C14     : 117.096095  C13     -C14     -C5      : 117.523625
 C15     -C14     -C5      : 128.653754  C15     -C14     -C13     : 113.446166
 C16     -C15     -C14     : 117.533585  C20     -C15     -C14     : 122.449022
 C20     -C15     -C16     : 119.395310  C17     -C16     -C15     : 118.938223
 C23     -C16     -C15     : 122.495958  C23     -C16     -C17     : 118.493284
 C18     -C17     -C16     : 122.278192  H42     -C17     -C16     : 118.565936
 H42     -C17     -C18     : 119.122180  C19     -C18     -C17     : 117.661255
 C25     -C18     -C17     : 121.714388  C25     -C18     -C19     : 120.603101
 C20     -C19     -C18     : 122.491344  H43     -C19     -C18     : 118.501880
 H43     -C19     -C20     : 118.990609  C19     -C20     -C15     : 118.953890
 C21     -C20     -C15     : 121.690431  C21     -C20     -C19     : 119.182645
 C22     -C21     -C20     : 110.180843  C26     -C21     -C20     : 114.184988
 C26     -C21     -C22     : 109.851523  H44     -C21     -C20     : 107.356126
 H44     -C21     -C22     : 107.421500  H44     -C21     -C26     : 107.567152
 H45     -C22     -C21     : 110.481288  H46     -C22     -C21     : 111.964181
 H46     -C22     -H45     : 107.849514  H47     -C22     -C21     : 110.544137
 H47     -C22     -H45     : 107.919333  H47     -C22     -H46     : 107.937853
 C24     -C23     -C16     : 114.145295  C27     -C23     -C16     : 110.559343
 C27     -C23     -C24     : 109.100865  H48     -C23     -C16     : 107.880461
 H48     -C23     -C24     : 107.136859  H48     -C23     -C27     : 107.770660
 H49     -C24     -C23     : 111.877424  H50     -C24     -C23     : 109.741743
 H50     -C24     -H49     : 106.954839  H51     -C24     -C23     : 110.764840
 H51     -C24     -H49     : 108.368321  H51     -C24     -H50     : 109.018969
 C28     -C25     -C18     : 110.658205  C29     -C25     -C18     : 112.474040
 C29     -C25     -C28     : 111.432837  H52     -C25     -C18     : 106.925793
 H52     -C25     -C28     : 107.528017  H52     -C25     -C29     : 107.542121
 H53     -C26     -C21     : 111.663558  H54     -C26     -C21     : 109.628065
 H54     -C26     -H53     : 106.960803  H55     -C26     -C21     : 111.552585
 H55     -C26     -H53     : 108.854276  H55     -C26     -H54     : 108.009914
 H56     -C27     -C23     : 110.347547  H57     -C27     -C23     : 110.631940
 H57     -C27     -H56     : 107.833481  H58     -C27     -C23     : 112.166850
 H58     -C27     -H56     : 107.786441  H58     -C27     -H57     : 107.918693
 H59     -C28     -C25     : 110.815466  H60     -C28     -C25     : 110.681673
 H60     -C28     -H59     : 107.900400  H61     -C28     -C25     : 110.759160
 H61     -C28     -H59     : 107.349544  H61     -C28     -H60     : 109.226744
 H62     -C29     -C25     : 111.197675  H63     -C29     -C25     : 111.475475
 H63     -C29     -H62     : 107.653118  H64     -C29     -C25     : 110.761272
 H64     -C29     -H62     : 107.414399  H64     -C29     -H63     : 108.170877
 H66     -C65     -C4      : 107.257040  H67     -C65     -C4      : 113.798039
 H67     -C65     -H66     : 106.424803  H68     -C65     -C4      : 113.244804
 H68     -C65     -H66     : 106.971719  H68     -C65     -H67     : 108.691356
 H70     -C69     -C3      : 108.488016  H71     -C69     -C3      : 110.705930
 H71     -C69     -H70     : 107.303973  H72     -C69     -C3      : 111.906990
 H72     -C69     -H70     : 108.122439  H72     -C69     -H71     : 110.153626
 C69     -H72     -Br3     : 163.015790
 
  torsional angles:
 
 P1      -Pd2     -Br3     -H72     :   9.106933
 P1      -Pd2     -C76     -C75     :  82.491527
 P1      -Pd2     -C76     -C77     : -93.789362
 P1      -C3      -C6      -H30     : -59.388644
 P1      -C3      -C6      -H31     :  65.456959
 P1      -C3      -C6      -H73     :-177.655655
 P1      -C3      -C7      -H32     : -52.264827
 P1      -C3      -C7      -H33     :  71.055768
 P1      -C3      -C7      -H74     :-170.737358
 P1      -C3      -C69     -H70     : 174.235630
 P1      -C3      -C69     -H71     : -68.269516
 P1      -C3      -C69     -H72     :  55.028918
 P1      -C4      -C8      -H34     : -61.587682
 P1      -C4      -C8      -H35     :  59.930593
 P1      -C4      -C8      -H75     : 179.484556
 P1      -C4      -C9      -H36     : -52.261846
 P1      -C4      -C9      -H37     :  70.269199
 P1      -C4      -C9      -H76     :-171.055930
 P1      -C4      -C65     -H66     : 178.243253
 P1      -C4      -C65     -H67     : -64.331096
 P1      -C4      -C65     -H68     :  60.462339
 P1      -C5      -C10     -C11     :-170.210970
 P1      -C5      -C10     -H38     :   9.559426
 P1      -C5      -C14     -C13     : 167.022163
 P1      -C5      -C14     -C15     : -20.537445
 Pd2     -P1      -C3      -C6      :-177.694779
 Pd2     -P1      -C3      -C7      :  59.300540
 Pd2     -P1      -C3      -C69     : -58.880810
 Pd2     -P1      -C4      -C8      : -48.927343
 Pd2     -P1      -C4      -C9      :  69.050420
 Pd2     -P1      -C4      -C65     :-168.343031
 Pd2     -P1      -C5      -C10     :-174.148580
 Pd2     -P1      -C5      -C14     :  11.014824
 Pd2     -Br3     -H72     -C69     : -39.866140
 Pd2     -C76     -C75     -C74     :-177.095593
 Pd2     -C76     -C75     -H81     :   1.782994
 Pd2     -C76     -C77     -C78     : 176.927632
 Pd2     -C76     -C77     -H82     :  -1.646969
 Br3     -Pd2     -P1      -C3      :  22.200000
 Br3     -Pd2     -P1      -C4      : 144.406107
 Br3     -Pd2     -P1      -C5      : -95.500249
 Br3     -Pd2     -C76     -C75     : -92.990519
 Br3     -Pd2     -C76     -C77     :  90.728591
 Br3     -H72     -C69     -C3      :   1.504447
 Br3     -H72     -C69     -H70     :-117.917651
 Br3     -H72     -C69     -H71     : 125.114243
 C73     -C74     -C75     -C76     :   0.605200
 C73     -C74     -C75     -H81     :-178.279856
 C73     -C78     -C77     -C76     :  -0.275010
 C73     -C78     -C77     -H82     : 178.311769
 C74     -C73     -C78     -C77     :   0.102037
 C74     -C73     -C78     -H83     : 179.533252
 C74     -C75     -C76     -C77     :  -0.777681
 C75     -C74     -C73     -C78     :  -0.266097
 C75     -C74     -C73     -F79     : 179.374734
 C75     -C76     -C77     -C78     :   0.611093
 C75     -C76     -C77     -H82     :-177.963508
 C76     -Pd2     -P1      -C3      :-157.732358
 C76     -Pd2     -P1      -C4      : -35.526251
 C76     -Pd2     -P1      -C5      :  84.567393
 C76     -Pd2     -Br3     -H72     :-175.412360
 C76     -C75     -C74     -H80     :-179.644890
 C76     -C77     -C78     -H83     :-179.694551
 C77     -C76     -C75     -H81     : 178.100905
 C77     -C78     -C73     -F79     :-179.538673
 C78     -C73     -C74     -H80     : 179.979021
 F79     -C73     -C74     -H80     :  -0.380148
 F79     -C73     -C78     -H83     :  -0.107458
 H80     -C74     -C75     -H81     :   1.470054
 H82     -C77     -C78     -H83     :  -1.107772
 C3      -P1      -C4      -C8      :  77.772645
 C3      -P1      -C4      -C9      :-164.249592
 C3      -P1      -C4      -C65     : -41.643043
 C3      -P1      -C5      -C10     :  60.299866
 C3      -P1      -C5      -C14     :-114.536731
 C4      -P1      -C3      -C6      :  58.660020
 C4      -P1      -C3      -C7      : -64.344660
 C4      -P1      -C3      -C69     : 177.473990
 C4      -P1      -C5      -C10     : -51.464389
 C4      -P1      -C5      -C14     : 133.699014
 C5      -P1      -C3      -C6      : -51.406213
 C5      -P1      -C3      -C7      :-174.410894
 C5      -P1      -C3      -C69     :  67.407756
 C5      -P1      -C4      -C8      :-175.500754
 C5      -P1      -C4      -C9      : -57.522990
 C5      -P1      -C4      -C65     :  65.083559
 C5      -C10     -C11     -C12     :   0.953559
 C5      -C10     -C11     -H39     :-179.937772
 C5      -C14     -C13     -C12     :   4.722829
 C5      -C14     -C13     -H41     :-177.825264
 C5      -C14     -C15     -C16     : -93.715753
 C5      -C14     -C15     -C20     :  95.390192
 C6      -C3      -C7      -H32     : 178.723324
 C6      -C3      -C7      -H33     : -57.956081
 C6      -C3      -C7      -H74     :  60.250793
 C6      -C3      -C69     -H70     : -58.856036
 C6      -C3      -C69     -H71     :  58.638818
 C6      -C3      -C69     -H72     :-178.062748
 C7      -C3      -C6      -H30     :  63.114911
 C7      -C3      -C6      -H31     :-172.039486
 C7      -C3      -C6      -H73     : -55.152100
 C7      -C3      -C69     -H70     :  57.903115
 C7      -C3      -C69     -H71     : 175.397970
 C7      -C3      -C69     -H72     : -61.303596
 C8      -C4      -C9      -H36     :  63.088416
 C8      -C4      -C9      -H37     :-174.380539
 C8      -C4      -C9      -H76     : -55.705669
 C8      -C4      -C65     -H66     :  59.582873
 C8      -C4      -C65     -H67     : 177.008524
 C8      -C4      -C65     -H68     : -58.198041
 C9      -C4      -C8      -H34     :-179.126282
 C9      -C4      -C8      -H35     : -57.608007
 C9      -C4      -C8      -H75     :  61.945956
 C9      -C4      -C65     -H66     : -58.270103
 C9      -C4      -C65     -H67     :  59.155548
 C9      -C4      -C65     -H68     :-176.051017
 C10     -C5      -C14     -C13     :  -7.708039
 C10     -C5      -C14     -C15     : 164.732353
 C10     -C11     -C12     -C13     :  -4.274707
 C10     -C11     -C12     -H40     : 177.894943
 C11     -C10     -C5      -C14     :   5.187907
 C11     -C12     -C13     -C14     :   1.431251
 C11     -C12     -C13     -H41     :-175.969829
 C12     -C11     -C10     -H38     :-178.818884
 C12     -C13     -C14     -C15     :-168.847479
 C13     -C12     -C11     -H39     : 176.628706
 C13     -C14     -C15     -C16     :  78.978297
 C13     -C14     -C15     -C20     : -91.915759
 C14     -C5      -C10     -H38     :-175.041697
 C14     -C13     -C12     -H40     : 179.281292
 C14     -C15     -C16     -C17     :-175.914414
 C14     -C15     -C16     -C23     :   0.939794
 C14     -C15     -C20     -C19     : 176.192814
 C14     -C15     -C20     -C21     :   1.014125
 C15     -C14     -C13     -H41     :   8.604428
 C15     -C16     -C17     -C18     :   0.183632
 C15     -C16     -C17     -H42     :-177.685208
 C15     -C16     -C23     -C24     : 171.752085
 C15     -C16     -C23     -C27     : -64.803289
 C15     -C16     -C23     -H48     :  52.810825
 C15     -C20     -C19     -C18     :  -1.707070
 C15     -C20     -C19     -H43     : 176.807429
 C15     -C20     -C21     -C22     :  88.760506
 C15     -C20     -C21     -C26     :-147.067892
 C15     -C20     -C21     -H44     : -27.923640
 C16     -C15     -C20     -C19     :   5.462025
 C16     -C15     -C20     -C21     :-169.716664
 C16     -C17     -C18     -C19     :   3.524270
 C16     -C17     -C18     -C25     :-174.807659
 C16     -C23     -C24     -H49     :  69.540809
 C16     -C23     -C24     -H50     :-171.905979
 C16     -C23     -C24     -H51     : -51.484648
 C16     -C23     -C27     -H56     : -60.781100
 C16     -C23     -C27     -H57     : 179.967050
 C16     -C23     -C27     -H58     :  59.410583
 C17     -C16     -C15     -C20     :  -4.731826
 C17     -C16     -C23     -C24     : -11.380339
 C17     -C16     -C23     -C27     : 112.064287
 C17     -C16     -C23     -H48     :-130.321598
 C17     -C18     -C19     -C20     :  -2.756369
 C17     -C18     -C19     -H43     : 178.722196
 C17     -C18     -C25     -C28     :  65.622100
 C17     -C18     -C25     -C29     : -59.729306
 C17     -C18     -C25     -H52     :-177.558553
 C18     -C17     -C16     -C23     :-176.797561
 C18     -C19     -C20     -C21     : 173.594331
 C18     -C25     -C28     -H59     : -66.423954
 C18     -C25     -C28     -H60     : 173.906791
 C18     -C25     -C28     -H61     :  52.606652
 C18     -C25     -C29     -H62     :  62.826165
 C18     -C25     -C29     -H63     : -57.313194
 C18     -C25     -C29     -H64     :-177.812649
 C19     -C18     -C17     -H42     :-178.618321
 C19     -C18     -C25     -C28     :-112.661377
 C19     -C18     -C25     -C29     : 121.987217
 C19     -C18     -C25     -H52     :   4.157970
 C19     -C20     -C21     -C22     : -86.407446
 C19     -C20     -C21     -C26     :  37.764157
 C19     -C20     -C21     -H44     : 156.908408
 C20     -C15     -C16     -C23     : 172.122382
 C20     -C19     -C18     -C25     : 175.595014
 C20     -C21     -C22     -H45     :  61.208828
 C20     -C21     -C22     -H46     : -59.019453
 C20     -C21     -C22     -H47     :-179.402937
 C20     -C21     -C26     -H53     : -68.972886
 C20     -C21     -C26     -H54     : 172.673467
 C20     -C21     -C26     -H55     :  53.083269
 C21     -C20     -C19     -H43     :  -7.891170
 C22     -C21     -C26     -H53     :  55.374850
 C22     -C21     -C26     -H54     : -62.978797
 C22     -C21     -C26     -H55     : 177.431004
 C23     -C16     -C17     -H42     :   5.333599
 C24     -C23     -C27     -H56     :  65.533300
 C24     -C23     -C27     -H57     : -53.718550
 C24     -C23     -C27     -H58     :-174.275017
 C25     -C18     -C17     -H42     :   3.049750
 C25     -C18     -C19     -H43     :  -2.926422
 C26     -C21     -C22     -H45     : -65.429060
 C26     -C21     -C22     -H46     : 174.342659
 C26     -C21     -C22     -H47     :  53.959175
 C27     -C23     -C24     -H49     : -54.688409
 C27     -C23     -C24     -H50     :  63.864803
 C27     -C23     -C24     -H51     :-175.713866
 C28     -C25     -C29     -H62     : -62.101764
 C28     -C25     -C29     -H63     : 177.758876
 C28     -C25     -C29     -H64     :  57.259421
 C29     -C25     -C28     -H59     :  59.512729
 C29     -C25     -C28     -H60     : -60.156526
 C29     -C25     -C28     -H61     : 178.543335
 H30     -C6      -C3      -C69     :-178.908522
 H31     -C6      -C3      -C69     : -54.062920
 H32     -C7      -C3      -C69     :  63.756901
 H33     -C7      -C3      -C69     :-172.922504
 H34     -C8      -C4      -C65     :  64.593465
 H35     -C8      -C4      -C65     :-173.888260
 H36     -C9      -C4      -C65     : 179.172054
 H37     -C9      -C4      -C65     : -58.296901
 H38     -C10     -C11     -H39     :   0.289786
 H39     -C11     -C12     -H40     :  -1.201644
 H40     -C12     -C13     -H41     :   1.880213
 H44     -C21     -C22     -H45     : 177.852204
 H44     -C21     -C22     -H46     :  57.623923
 H44     -C21     -C22     -H47     : -62.759561
 H44     -C21     -C26     -H53     : 172.002201
 H44     -C21     -C26     -H54     :  53.648554
 H44     -C21     -C26     -H55     : -65.941644
 H48     -C23     -C24     -H49     :-171.097361
 H48     -C23     -C24     -H50     : -52.544149
 H48     -C23     -C24     -H51     :  67.877182
 H48     -C23     -C27     -H56     :-178.462614
 H48     -C23     -C27     -H57     :  62.285537
 H48     -C23     -C27     -H58     : -58.270930
 H52     -C25     -C28     -H59     : 177.129053
 H52     -C25     -C28     -H60     :  57.459798
 H52     -C25     -C28     -H61     : -63.840341
 H52     -C25     -C29     -H62     :-179.709569
 H52     -C25     -C29     -H63     :  60.151072
 H52     -C25     -C29     -H64     : -60.348383
 C65     -C4      -C8      -H75     : -54.334297
 C65     -C4      -C9      -H76     :  60.377970
 C69     -C3      -C6      -H73     :  62.824467
 C69     -C3      -C7      -H74     : -54.715630
 
  nuclear repulsion energy.......          5635.889618530 hartrees
  
  Detected an organometallic with only one TM atom. 
  
  Formal charge on ligand        1 is    -1
  Formal multiplet on ligand     1 is     1
  Oxidation state on metal       2 is     2
  Formal multiplet on metal      2 is     1
  Formal charge on ligand        3 is    -1
  Formal multiplet on ligand     3 is     1
  
 
  Will use High-Quality Initial guess for organometallics
       including d-d repulsion (iguess=30)
 
 Non-default options chosen:
   SCF calculation type: DFT(b3pw91-d3)              
   DFT=Becke_3_Parameter/HF+Slater+Becke88+PW91+PW-GGAIIC (B3PW91-D3)
   Geometry will be optimized in redundant internal coordinates
   Solvation energy will be computed using PBF
     -solute cavity energy will not be included
     -surface area terms will not be included
   Vibrational frequencies and related properties will be computed
      from analytic second derivatives
   IR intensities will be computed
   Thermochemical properties will be computed
   Maximum number of geometry steps: 100
   Scaling standard convergence criteria by a factor of   5.00
   Solvent: benzene                                                         
   Internal dielectric constant:    1.000
   Continuum dielectric constant:   2.283
   Solvent probe molecule radius:   2.600
  
 Non-default print settings:
     11=  2
  
 Temporary integer options set:
     21= -1  73=  2
  
  atom       vdw   vdw2    cov     mass  grid  daf  charge   basis
  P1        2.147  2.074  1.060   30.974    Y    Y      Y    ps_6-31g*
  Pd2       1.450  1.450  1.280  105.903    Y    Y      Y    lacv3p*
  Br3       2.095  2.095  1.140   78.918    Y    Y      Y    lav3p*
  C73       1.949  1.900  0.770   12.000    Y    Y      Y    ps_6-31g*
  C74       1.949  1.900  0.770   12.000    Y    Y      Y    ps_6-31g*
  C75       1.949  1.900  0.770   12.000    Y    Y      Y    ps_6-31g*
  C76       1.949  1.900  0.770   12.000    Y    Y      Y    ps_6-31g*
  C77       1.949  1.900  0.770   12.000    Y    Y      Y    ps_6-31g*
  C78       1.949  1.900  0.770   12.000    Y    Y      Y    ps_6-31g*
  F79       1.736  1.682  0.720   18.998    Y    Y      Y    ps_6-31g*
  H80       1.597  1.150  0.320    1.008    Y    Y      Y    ps_6-31g*
  H81       1.597  1.150  0.320    1.008    Y    Y      Y    ps_6-31g*
  H82       1.597  1.150  0.320    1.008    Y    Y      Y    ps_6-31g*
  H83       1.597  1.150  0.320    1.008    Y    Y      Y    ps_6-31g*
  C3        1.949  1.900  0.770   12.000    Y    Y      Y    ps_6-31g*
  C4        1.949  1.900  0.770   12.000    Y    Y      Y    ps_6-31g*
  C5        1.949  1.900  0.770   12.000    Y    Y      Y    ps_6-31g*
  C6        1.949  1.900  0.770   12.000    Y    Y      Y    ps_6-31g*
  C7        1.949  1.900  0.770   12.000    Y    Y      Y    ps_6-31g*
  C8        1.949  1.900  0.770   12.000    Y    Y      Y    ps_6-31g*
  C9        1.949  1.900  0.770   12.000    Y    Y      Y    ps_6-31g*
  C10       1.949  1.900  0.770   12.000    Y    Y      Y    ps_6-31g*
  C11       1.949  1.900  0.770   12.000    Y    Y      Y    ps_6-31g*
  C12       1.949  1.900  0.770   12.000    Y    Y      Y    ps_6-31g*
  C13       1.949  1.900  0.770   12.000    Y    Y      Y    ps_6-31g*
  C14       1.949  1.900  0.770   12.000    Y    Y      Y    ps_6-31g*
  C15       1.949  1.900  0.770   12.000    Y    Y      Y    ps_6-31g*
  C16       1.949  1.900  0.770   12.000    Y    Y      Y    ps_6-31g*
  C17       1.949  1.900  0.770   12.000    Y    Y      Y    ps_6-31g*
  C18       1.949  1.900  0.770   12.000    Y    Y      Y    ps_6-31g*
  C19       1.949  1.900  0.770   12.000    Y    Y      Y    ps_6-31g*
  C20       1.949  1.900  0.770   12.000    Y    Y      Y    ps_6-31g*
  C21       1.949  1.900  0.770   12.000    Y    Y      Y    ps_6-31g*
  C22       1.949  1.900  0.770   12.000    Y    Y      Y    ps_6-31g*
  C23       1.949  1.900  0.770   12.000    Y    Y      Y    ps_6-31g*
  C24       1.949  1.900  0.770   12.000    Y    Y      Y    ps_6-31g*
  C25       1.949  1.900  0.770   12.000    Y    Y      Y    ps_6-31g*
  C26       1.949  1.900  0.770   12.000    Y    Y      Y    ps_6-31g*
  C27       1.949  1.900  0.770   12.000    Y    Y      Y    ps_6-31g*
  C28       1.949  1.900  0.770   12.000    Y    Y      Y    ps_6-31g*
  C29       1.949  1.900  0.770   12.000    Y    Y      Y    ps_6-31g*
  H30       1.597  1.150  0.320    1.008    Y    Y      Y    ps_6-31g*
  H31       1.597  1.150  0.320    1.008    Y    Y      Y    ps_6-31g*
  H32       1.597  1.150  0.320    1.008    Y    Y      Y    ps_6-31g*
  H33       1.597  1.150  0.320    1.008    Y    Y      Y    ps_6-31g*
  H34       1.597  1.150  0.320    1.008    Y    Y      Y    ps_6-31g*
  H35       1.597  1.150  0.320    1.008    Y    Y      Y    ps_6-31g*
  H36       1.597  1.150  0.320    1.008    Y    Y      Y    ps_6-31g*
  H37       1.597  1.150  0.320    1.008    Y    Y      Y    ps_6-31g*
  H38       1.597  1.150  0.320    1.008    Y    Y      Y    ps_6-31g*
  H39       1.597  1.150  0.320    1.008    Y    Y      Y    ps_6-31g*
  H40       1.597  1.150  0.320    1.008    Y    Y      Y    ps_6-31g*
  H41       1.597  1.150  0.320    1.008    Y    Y      Y    ps_6-31g*
  H42       1.597  1.150  0.320    1.008    Y    Y      Y    ps_6-31g*
  H43       1.597  1.150  0.320    1.008    Y    Y      Y    ps_6-31g*
  H44       1.597  1.150  0.320    1.008    Y    Y      Y    ps_6-31g*
  H45       1.597  1.150  0.320    1.008    Y    Y      Y    ps_6-31g*
  H46       1.597  1.150  0.320    1.008    Y    Y      Y    ps_6-31g*
  H47       1.597  1.150  0.320    1.008    Y    Y      Y    ps_6-31g*
  H48       1.597  1.150  0.320    1.008    Y    Y      Y    ps_6-31g*
  H49       1.597  1.150  0.320    1.008    Y    Y      Y    ps_6-31g*
  H50       1.597  1.150  0.320    1.008    Y    Y      Y    ps_6-31g*
  H51       1.597  1.150  0.320    1.008    Y    Y      Y    ps_6-31g*
  H52       1.597  1.150  0.320    1.008    Y    Y      Y    ps_6-31g*
  H53       1.597  1.150  0.320    1.008    Y    Y      Y    ps_6-31g*
  H54       1.597  1.150  0.320    1.008    Y    Y      Y    ps_6-31g*
  H55       1.597  1.150  0.320    1.008    Y    Y      Y    ps_6-31g*
  H56       1.597  1.150  0.320    1.008    Y    Y      Y    ps_6-31g*
  H57       1.597  1.150  0.320    1.008    Y    Y      Y    ps_6-31g*
  H58       1.597  1.150  0.320    1.008    Y    Y      Y    ps_6-31g*
  H59       1.597  1.150  0.320    1.008    Y    Y      Y    ps_6-31g*
  H60       1.597  1.150  0.320    1.008    Y    Y      Y    ps_6-31g*
  H61       1.597  1.150  0.320    1.008    Y    Y      Y    ps_6-31g*
  H62       1.597  1.150  0.320    1.008    Y    Y      Y    ps_6-31g*
  H63       1.597  1.150  0.320    1.008    Y    Y      Y    ps_6-31g*
  H64       1.597  1.150  0.320    1.008    Y    Y      Y    ps_6-31g*
  C65       1.949  1.900  0.770   12.000    Y    Y      Y    ps_6-31g*
  H66       1.597  1.150  0.320    1.008    Y    Y      Y    ps_6-31g*
  H67       1.597  1.150  0.320    1.008    Y    Y      Y    ps_6-31g*
  H68       1.597  1.150  0.320    1.008    Y    Y      Y    ps_6-31g*
  C69       1.949  1.900  0.770   12.000    Y    Y      Y    ps_6-31g*
  H70       1.597  1.150  0.320    1.008    Y    Y      Y    ps_6-31g*
  H71       1.597  1.150  0.320    1.008    Y    Y      Y    ps_6-31g*
  H72       1.597  1.150  0.320    1.008    Y    Y      Y    ps_6-31g*
  H73       1.597  1.150  0.320    1.008    Y    Y      Y    ps_6-31g*
  H74       1.597  1.150  0.320    1.008    Y    Y      Y    ps_6-31g*
  H75       1.597  1.150  0.320    1.008    Y    Y      Y    ps_6-31g*
  H76       1.597  1.150  0.320    1.008    Y    Y      Y    ps_6-31g*
 
  atom      formal  2spin      esp    mulk    frag
  P1          -1       0        Y    0.000       0
  Pd2          2       0        Y    0.000       0
  C73         -1       0        Y    0.000       0
  
  end of program pre
   
 Time(pre)  user:       4.817  user+sys:       4.817  wallclock:       5.580
  
  start of program onee
  
  smallest eigenvalue of S:    3.165E-04
  number of canonical orbitals.....          657
  end of program onee
   
 Time(onee)  user:      12.541  user+sys:      12.541  wallclock:       2.479
  
  start of program hfig
  
  initial wavefunction generated automatically from atomic wavefunctions
  Only one state below 0.010000
  Skip d-d repulsion considerations 
 
  Irreducible     Total no   No of occupied orbitals 
  representation  orbitals   Shell_1  Shell_2    ...
  No Symm          657        154
  ------------------------
  Orbital occupation/shell    1.000
 
  end of program hfig
   
 Time(hfig)  user:       2.580  user+sys:       2.580  wallclock:       1.888
  
  start of program probe
  
  end of program probe
   
 Time(probe)  user:       1.517  user+sys:       1.517  wallclock:       0.453
  
  start of program grid
  
   grid     grid set  grid #  grid sym
  ------    --------  ------  --------
  coarse        0        0        1
  medium        2        1        1
  fine          0        0        1
  ultrafine     4        2        1
  charge       -1        3        1
  gradient      4        2        1
  density       0        0        1
  DFT-fine    -11        4        1
  DFT-med.    -10        5        1
  DFT-grad    -12        6        1
  DFT-der2     -8        7        1
  DFT-cphf     -9        8        1
  LMP2-enrg     4        2        1
  LMP2-grad     2        1        1
  DFT-cphf2   -15        9        1
  PBF-dens      0        0        1
  plotting      0        0        1
  Rel-grad    -17        0        1
  
  number of gridpoints: 
     atom           P1         Pd2         Br3         C73         C74         C75         C76
  grid # 1         613         356         474          79          93          93          98
  grid # 2         436         333         402         331         317         305         381
  grid # 3           9         294         167          36          29          30          30
  grid # 4        8714        8714        8714        8714        8714        8714        8714
  grid # 5        1192        1192        1192        1192        1192        1192        1192
  grid # 6        9132        9132        9132        5922        5922        5922        5922
  grid # 7       23034       32968       11582       13950       13950       13950       13950
  grid # 8         722        1150         694         748         748         748         748
  grid # 9         366        2198         358         394         394         394         394
   
  number of gridpoints: 
     atom          C77         C78         F79         H80         H81         H82         H83
  grid # 1          94          93         584         113          87         102          98
  grid # 2         318         318         565         461         386         417         414
  grid # 3          23          26         349         360         184          55         147
  grid # 4        8714        8714        8714        8714        8714        8714        8714
  grid # 5        1192        1192        1192        1192        1192        1192        1192
  grid # 6        5922        5922        5922        5922        5922        5922        5922
  grid # 7       13950       13950       23190       15206       15206       15206       15206
  grid # 8         748         748         770         786         786         786         786
  grid # 9         394         394         420         420         420         420         420
   
  number of gridpoints: 
     atom           C3          C4          C5          C6          C7          C8          C9
  grid # 1          87          90          92          81          81          80          81
  grid # 2         372         371         387         237         241         238         240
  grid # 3           6           6          10           6           6           6           6
  grid # 4        8714        8714        8714        8714        8714        8714        8714
  grid # 5        1192        1192        1192        1192        1192        1192        1192
  grid # 6        5922        5922        5922        5922        5922        5922        5922
  grid # 7       13950       13950       13950       13950       13950       13950       13950
  grid # 8         748         748         748         748         748         748         748
  grid # 9         394         394         394         394         394         394         394
   
  number of gridpoints: 
     atom          C10         C11         C12         C13         C14         C15         C16
  grid # 1          93          95          96          92         100          98          95
  grid # 2         324         324         319         306         356         357         341
  grid # 3          15          26          24          13           8           7          10
  grid # 4        8714        8714        8714        8714        8714        8714        8714
  grid # 5        1192        1192        1192        1192        1192        1192        1192
  grid # 6        5922        5922        5922        5922        5922        5922        5922
  grid # 7       13950       13950       13950       13950       13950       13950       13950
  grid # 8         748         748         748         748         748         748         748
  grid # 9         394         394         394         394         394         394         394
   
  number of gridpoints: 
     atom          C17         C18         C19         C20         C21         C22         C23
  grid # 1          94         100          95          98          92          81          91
  grid # 2         323         361         329         361         309         241         306
  grid # 3          20          16          18          12           6           6           6
  grid # 4        8714        8714        8714        8714        8714        8714        8714
  grid # 5        1192        1192        1192        1192        1192        1192        1192
  grid # 6        5922        5922        5922        5922        5922        5922        5922
  grid # 7       13950       13950       13950       13950       13950       13950       13950
  grid # 8         748         748         748         748         748         748         748
  grid # 9         394         394         394         394         394         394         394
   
  number of gridpoints: 
     atom          C24         C25         C26         C27         C28         C29         H30
  grid # 1          81          90          81          82          82          79         101
  grid # 2         238         305         245         239         239         247         421
  grid # 3           6           6           6           6           6           6         148
  grid # 4        8714        8714        8714        8714        8714        8714        8714
  grid # 5        1192        1192        1192        1192        1192        1192        1192
  grid # 6        5922        5922        5922        5922        5922        5922        5922
  grid # 7       13950       13950       13950       13950       13950       13950       15206
  grid # 8         748         748         748         748         748         748         786
  grid # 9         394         394         394         394         394         394         420
   
  number of gridpoints: 
     atom          H31         H32         H33         H34         H35         H36         H37
  grid # 1         104         102         101         101          84          92         105
  grid # 2         428         437         423         425         362         393         437
  grid # 3         179         171         155         138          52          18         175
  grid # 4        8714        8714        8714        8714        8714        8714        8714
  grid # 5        1192        1192        1192        1192        1192        1192        1192
  grid # 6        5922        5922        5922        5922        5922        5922        5922
  grid # 7       15206       15206       15206       15206       15206       15206       15206
  grid # 8         786         786         786         786         786         786         786
  grid # 9         420         420         420         420         420         420         420
   
  number of gridpoints: 
     atom          H38         H39         H40         H41         H42         H43         H44
  grid # 1          99         117         116         106         102         104         100
  grid # 2         408         468         468         430         420         435         414
  grid # 3          56         401         398         158          74         154          35
  grid # 4        8714        8714        8714        8714        8714        8714        8714
  grid # 5        1192        1192        1192        1192        1192        1192        1192
  grid # 6        5922        5922        5922        5922        5922        5922        5922
  grid # 7       15206       15206       15206       15206       15206       15206       15206
  grid # 8         786         786         786         786         786         786         786
  grid # 9         420         420         420         420         420         420         420
   
  number of gridpoints: 
     atom          H45         H46         H47         H48         H49         H50         H51
  grid # 1         110         106         110         106         107         108          96
  grid # 2         453         441         451         424         445         447         394
  grid # 3         288         191         309          74         248         289          82
  grid # 4        8714        8714        8714        8714        8714        8714        8714
  grid # 5        1192        1192        1192        1192        1192        1192        1192
  grid # 6        5922        5922        5922        5922        5922        5922        5922
  grid # 7       15206       15206       15206       15206       15206       15206       15206
  grid # 8         786         786         786         786         786         786         786
  grid # 9         420         420         420         420         420         420         420
   
  number of gridpoints: 
     atom          H52         H53         H54         H55         H56         H57         H58
  grid # 1         110         105         109          93         110         110          98
  grid # 2         444         440         446         433         450         451         405
  grid # 3         219         237         257         131         284         310          65
  grid # 4        8714        8714        8714        8714        8714        8714        8714
  grid # 5        1192        1192        1192        1192        1192        1192        1192
  grid # 6        5922        5922        5922        5922        5922        5922        5922
  grid # 7       15206       15206       15206       15206       15206       15206       15206
  grid # 8         786         786         786         786         786         786         786
  grid # 9         420         420         420         420         420         420         420
   
  number of gridpoints: 
     atom          H59         H60         H61         H62         H63         H64         C65
  grid # 1         106         109         108         107         111         109          82
  grid # 2         447         455         450         446         460         457         239
  grid # 3         239         328         286         244         349         325           6
  grid # 4        8714        8714        8714        8714        8714        8714        8714
  grid # 5        1192        1192        1192        1192        1192        1192        1192
  grid # 6        5922        5922        5922        5922        5922        5922        5922
  grid # 7       15206       15206       15206       15206       15206       15206       13950
  grid # 8         786         786         786         786         786         786         748
  grid # 9         420         420         420         420         420         420         394
   
  number of gridpoints: 
     atom          H66         H67         H68         C69         H70         H71         H72
  grid # 1         108         104         101          79         108         103          84
  grid # 2         445         424         421         241         446         424         409
  grid # 3         257         167         149           6         260         143          45
  grid # 4        8714        8714        8714        8714        8714        8714        8714
  grid # 5        1192        1192        1192        1192        1192        1192        1192
  grid # 6        5922        5922        5922        5922        5922        5922        5922
  grid # 7       15206       15206       15206       13950       15206       15206       15206
  grid # 8         786         786         786         748         786         786         786
  grid # 9         420         420         420         394         420         420         420
   
  number of gridpoints: 
     atom          H73         H74         H75         H76       total
  grid # 1         109         109         109         106       10248
  grid # 2         445         447         443         437       33569
  grid # 3         257         269         240         191       11065
  grid # 4        8714        8714        8714        8714      766832
  grid # 5        1192        1192        1192        1192      104896
  grid # 6        5922        5922        5922        5922      530766
  grid # 7       15206       15206       15206       15206     1324118
  grid # 8         786         786         786         786       68030
  grid # 9         420         420         420         420       37712
   
  end of program grid
   
 Time(grid)  user:     541.437  user+sys:     541.437  wallclock:      36.954
  
  start of program rwr
  
  end of program rwr
   
 Time(rwr)  user:      55.317  user+sys:      55.317  wallclock:      17.342
  
  start of program scf
  
 number of electrons..........        308
 number of alpha electrons....        154
 number of beta electrons.....        154
 number of orbitals, total....        657
 number of doubly-occ'd orbs..        154
 number of open shell orbs....          0
 number of occupied orbitals..        154
 number of virtual orbitals...        503
 number of hamiltonians.......          1
 number of shells.............          1
 SCF type: DFT=Becke_3_Parameter/HF+Slater+Becke88+PW91+PW-GGAIIC (B3PW91-D3)
 Energy computed using pseudospectral method.
 Convergence Criterion:
    Energy (econv):       1.00E-05
    RMS density (dconv):  5.00E-06
  
       i  u  d  i  g                   
       t  p  i  c  r                                 RMS    maximum
       e  d  i  u  i                       energy  density   DIIS  
       r  t  s  t  d       total energy    change  change    error 
  
etot    1  N  N  5  M   -1938.97412097060           1.9E-03  1.3E-01
etot    2  Y  Y  6  M   -1942.11507835458  3.1E+00  3.1E-03  8.5E-02
etot    3  Y  Y  6  M   -1943.10081691366  9.9E-01  1.4E-03  7.7E-02
etot    4  N  Y  2  U   -1943.42383051482  3.2E-01  8.0E-04  3.6E-02
etot    5  Y  Y  6  M   -1943.55642230517  1.3E-01  5.0E-04  2.1E-02
etot    6  N  Y  2  U   -1943.57049207221  1.4E-02  5.6E-04  1.1E-02
etot    7  Y  Y  6  M   -1943.56948477288 -1.0E-03  1.3E-04  5.9E-03
etot    8  Y  Y  6  M   -1943.57448571890  5.0E-03  4.9E-05  1.5E-03
etot    9  N  Y  2  U   -1943.57567522097  1.2E-03  1.1E-05  1.8E-04
etot   10  N  Y  2  U   -1943.57568528341  1.0E-05  3.9E-06  5.7E-05
etot   11  N  N  2  U   -1943.57568704511  1.8E-06  0.0E+00  0.0E+00
 
  Computing the dispersion energy correction and its gradients...
  
  
 Energy components, in hartrees:
   (A)  Nuclear repulsion............    5635.88961852955
   (E)  Total one-electron terms.....  -13928.09581323713
   (F)    Electron-nuclear...........  -15772.17439045403
   (H)    Kinetic....................    1844.07857721690
   (I)  Total two-electron terms.....    6348.63050766247
   (J)    Coulomb....................    6605.68288469006
   (K)    Exchange+Correlation.......    -257.05237702759
   (L)  Electronic energy............   -7579.46530557467  (E+I)
   (N0) D3 correction................      -0.17991687075
   (N)  Total energy.................   -1943.75560391587  (A+L+N0)
   (O)  Gas phase energy.............   -1943.75560391587
  
 SCFE: SCF energy: DFT(b3pw91-d3)     -1943.75560391587 hartrees   iterations:  11
  
 
 HOMO energy:    -0.18973
 LUMO energy:    -0.09462
 
  Orbital energies (hartrees): 
   -77.11713   -24.68838   -10.25608   -10.21812   -10.21657   -10.21407
   -10.21148   -10.19574   -10.19481   -10.19419   -10.19353   -10.18942
   -10.18822   -10.18427   -10.18283   -10.18213   -10.17984   -10.17896
   -10.17871   -10.17730   -10.17613   -10.17593   -10.17059   -10.16880
   -10.16749   -10.16589   -10.16429   -10.16262   -10.16107   -10.15875
   -10.15871   -10.15702   -10.14978   -10.14937   -10.14348   -10.12108
   -10.12014    -6.61348    -4.77123    -4.77052    -4.76991    -3.35892
    -2.09301    -2.08993    -2.05817    -1.21979    -0.88528    -0.87925
    -0.86253    -0.83236    -0.81619    -0.81414    -0.81013    -0.77781
    -0.77423    -0.77039    -0.76587    -0.75194    -0.73516    -0.72432
    -0.71650    -0.71014    -0.69432    -0.69031    -0.68884    -0.68231
    -0.67388    -0.66631    -0.65617    -0.63556    -0.63261    -0.62614
    -0.61504    -0.60859    -0.59353    -0.59026    -0.56426    -0.55438
    -0.55163    -0.54088    -0.53044    -0.51919    -0.50560    -0.49608
    -0.49141    -0.48432    -0.47801    -0.47633    -0.47532    -0.47193
    -0.46172    -0.45956    -0.45656    -0.45372    -0.44877    -0.44705
    -0.44247    -0.43897    -0.43326    -0.43175    -0.42722    -0.42288
    -0.41866    -0.41567    -0.41209    -0.40798    -0.40434    -0.39940
    -0.39554    -0.39427    -0.39377    -0.38972    -0.38563    -0.38464
    -0.38333    -0.37786    -0.37659    -0.37433    -0.37319    -0.36900
    -0.36446    -0.36008    -0.35837    -0.35522    -0.35238    -0.35070
    -0.34789    -0.34513    -0.33951    -0.33764    -0.33618    -0.33187
    -0.33045    -0.32903    -0.32552    -0.31866    -0.31792    -0.31131
    -0.31022    -0.30185    -0.29781    -0.29537    -0.28578    -0.28340
    -0.26922    -0.26301    -0.25507    -0.25103    -0.25026    -0.23618
    -0.23393    -0.22733    -0.21105    -0.18973    -0.09462    -0.04618
    -0.02921    -0.02077    -0.01432    -0.00796     0.00231     0.00871
     0.02815     0.04453
 
  end of program scf
   
 Time(scf)  user:     633.646  user+sys:     633.646  wallclock:      59.421
  
  start of program der1a
  
  end of program der1a
   
 Time(der1a)  user:      35.374  user+sys:      35.374  wallclock:       4.250
  
  start of program rwr
  
  end of program rwr
   
 Time(rwr)  user:      48.190  user+sys:      48.190  wallclock:      19.446
  
  start of program der1b
  
   
  forces (hartrees/bohr) : total     
   
 atom  label           x              y              z
 ---- --------   -------------  -------------  -------------
    1 P1         -1.409398E-02  -2.343896E-03  -3.684820E-02
    2 Pd2         1.503186E-02   1.129067E-02  -1.109222E-02
    3 Br3        -2.315135E-03  -8.254596E-02   1.112517E-01
    4 C73        -4.957349E-03  -4.158445E-03   1.369750E-03
    5 C74         2.266900E-03  -1.030447E-02   1.851850E-02
    6 C75        -2.703051E-02  -7.279819E-03   6.535763E-02
    7 C76         4.901912E-03   2.206502E-03   2.026307E-02
    8 C77         1.654116E-03  -6.051255E-03   9.924054E-03
    9 C78         4.642388E-06  -1.141466E-02   5.703734E-03
   10 F79         5.300434E-03   2.186512E-03  -3.240345E-04
   11 H80         6.525303E-05  -3.382765E-04   1.619405E-04
   12 H81        -4.152953E-02   1.594963E-04   5.290989E-02
   13 H82         4.576176E-04  -1.074800E-02   2.712434E-03
   14 H83         5.669631E-03  -1.793098E-02   1.183203E-03
   15 C3          8.561446E-03   3.253497E-03   6.732113E-03
   16 C4         -6.816740E-04   1.860703E-04   7.207714E-04
   17 C5         -5.382680E-03   6.834091E-03   3.222518E-03
   18 C6         -4.016459E-03  -7.381453E-04  -2.590261E-03
   19 C7          2.572887E-03   5.437450E-04  -1.214661E-03
   20 C8          2.495443E-02  -3.080502E-03  -2.153825E-02
   21 C9         -4.610586E-03   1.163491E-02  -2.047864E-02
   22 C10         3.397120E-04  -7.871388E-04   1.221805E-03
   23 C11         3.320448E-05   1.488659E-03   7.423408E-03
   24 C12         8.560937E-03  -4.084886E-03  -6.569120E-04
   25 C13         1.801157E-02  -1.793885E-03  -1.785040E-03
   26 C14         5.160597E-03  -2.178321E-03  -4.494477E-03
   27 C15         2.662715E-04   2.032167E-03   1.543633E-03
   28 C16        -2.324575E-04   1.602990E-02   1.568106E-04
   29 C17         2.116776E-03   5.613455E-03   8.579207E-04
   30 C18         1.673785E-03  -1.672516E-03  -4.086988E-03
   31 C19        -1.712863E-03  -3.305308E-03   1.520642E-03
   32 C20        -1.285236E-03  -8.336659E-04  -1.135200E-03
   33 C21         2.477916E-03  -6.208700E-04  -1.221871E-03
   34 C22        -1.474317E-03   8.564421E-04  -4.058885E-04
   35 C23         1.188600E-03   3.450555E-03  -6.156282E-03
   36 C24        -8.705733E-04   9.750519E-03  -1.852332E-03
   37 C25         1.572193E-03   1.809212E-03   3.562514E-04
   38 C26        -6.739108E-03   2.477553E-02   1.161578E-02
   39 C27        -1.265486E-02   1.149039E-03  -6.522219E-05
   40 C28        -1.564778E-03   6.252361E-04  -9.076687E-04
   41 C29        -1.320722E-03   1.256367E-04  -1.469034E-05
   42 H30         3.286578E-03   4.942619E-03   2.252441E-03
   43 H31         2.539907E-03  -5.530070E-03   2.930012E-03
   44 H32         2.954189E-04  -1.334723E-03  -5.810347E-03
   45 H33         4.701177E-03   7.238865E-03   1.276850E-03
   46 H34        -1.068477E-02  -1.467908E-03  -1.712741E-03
   47 H35         4.364018E-02  -3.652257E-03  -6.531716E-02
   48 H36        -4.023314E-03   4.891436E-03  -5.676251E-02
   49 H37         4.793379E-03  -2.925156E-03  -1.125346E-03
   50 H38        -6.109690E-05   1.083857E-02   3.577299E-03
   51 H39         5.048283E-04   6.642359E-04   6.874240E-03
   52 H40         1.342160E-03  -5.317647E-03   4.088075E-03
   53 H41         6.237574E-03  -4.572585E-03  -2.595433E-03
   54 H42         8.453375E-03   1.827313E-03  -9.682943E-04
   55 H43        -4.265986E-03  -1.464422E-03  -4.856624E-03
   56 H44        -1.811745E-03   3.192444E-03   4.222470E-03
   57 H45         1.532879E-03  -4.334381E-03  -4.324739E-03
   58 H46         3.683865E-03  -1.025878E-03   4.291821E-03
   59 H47        -6.100145E-03  -2.356160E-03   2.307036E-03
   60 H48         6.684536E-04   3.617663E-03   9.212597E-04
   61 H49         3.544307E-03  -4.581645E-03  -2.919358E-03
   62 H50         5.470554E-03   8.499046E-04   5.355424E-03
   63 H51        -8.128864E-03   2.243922E-02  -8.034972E-03
   64 H52        -5.308154E-03  -2.189905E-03  -2.574527E-03
   65 H53         2.186166E-04   1.319194E-03  -6.029900E-03
   66 H54        -5.792337E-03  -1.882570E-03   2.767441E-03
   67 H55        -4.725954E-03   3.762200E-02   5.405036E-03
   68 H56         8.045341E-04  -5.261582E-03  -1.387328E-03
   69 H57         3.755270E-03   9.170964E-04   4.820155E-03
   70 H58        -2.763394E-02  -5.384099E-03   8.956752E-03
   71 H59         4.715719E-03   2.236504E-03   2.069943E-03
   72 H60         1.364932E-03  -1.649453E-03  -6.995211E-03
   73 H61        -3.615635E-03   4.122783E-03   2.146462E-03
   74 H62         5.213702E-03   1.456655E-03   2.462972E-03
   75 H63        -1.096162E-03  -6.038719E-03   2.556731E-03
   76 H64         1.616187E-03  -1.403641E-03  -6.309162E-03
   77 C65         1.309413E-03  -2.612698E-03  -1.793132E-03
   78 H66         3.561782E-03   5.825943E-03   1.663967E-03
   79 H67         1.325067E-03  -8.327063E-03   5.558432E-03
   80 H68        -6.610978E-03  -1.938236E-04   3.118105E-03
   81 C69         2.407577E-03   5.664040E-03  -4.817964E-02
   82 H70        -5.943217E-03  -4.020162E-04   1.126119E-03
   83 H71         1.656537E-03  -4.454458E-03  -6.175714E-04
   84 H72         6.652238E-03   1.361340E-02  -6.955342E-02
   85 H73        -7.188002E-03   2.786481E-04   3.360971E-03
   86 H74        -6.769066E-03   3.344604E-04   2.986920E-03
   87 H75         1.894129E-03   5.281091E-03   4.677543E-03
   88 H76         4.073005E-03   6.754506E-03  -9.007699E-05
 -------------   -------------  -------------  -------------
     total        1.873856E-03   1.356580E-03   1.675694E-03
   
  end of program der1b
   
 Time(der1b)  user:     236.784  user+sys:     236.784  wallclock:      20.490
  
  start of program geopt
  
 ----------------------------------------------------------------------------
  Geometry optimization step  1
  Total energy:     -1943.75560391587 hartrees
 ----------------------------------------------------------------------------
  
  
  Level shifts adjusted to satisfy step-size constraints
   Step size:    0.3001454
   Cos(theta):   0.7890075
   Final level shift:  -9.2548822E-01
  
  gradient maximum:        7.1965E-01 .  (  2.2500E-03 )
  gradient rms:            9.9825E-02 .  (  1.5000E-03 )
  displacement maximum:    8.2102E-02 .  (  9.0000E-03 )
  displacement rms:        1.1445E-02 .  (  6.0000E-03 )
  
  predicted energy change:  -1.9397E-01
  step size:     0.19490
  trust radius:  0.30000
  
  molecular structure not yet converged...
  
  center of mass moved by:
     x:    -3.4804E-03     y:    -2.3421E-01     z:     7.2712E-02
  
  new geometry: 
                                   angstroms
  atom               x                 y                 z
  P1           -0.0154825376     -0.0223713132     -0.0335241135 
  Pd2          -0.0166627846     -0.2286970730      2.2306353261 
  Br3           2.3568551204      0.7086743362      2.4230023461 
  C73          -4.3940515716     -2.0695009265      2.2309569334 
  C74          -3.3082433936     -2.9072566902      2.0549809126 
  C75          -2.0302795523     -2.3526725185      2.0800262848 
  C76          -1.8369675849     -0.9869955764      2.2986939807 
  C77          -2.9540753871     -0.1632043934      2.4605024865 
  C78          -4.2403251830     -0.7072160831      2.4318958593 
  F79          -5.6396260197     -2.5932788255      2.1951060440 
  H80          -3.4691527149     -3.9700921464      1.8999489237 
  H81          -1.1695262386     -2.9878268598      1.9123250822 
  H82          -2.8312535807      0.9112306434      2.5756205407 
  H83          -5.1193543651     -0.0868576250      2.5571243288 
  C3            1.7743093395      0.0449204688     -0.8673292196 
  C4           -0.9658689555     -1.4904470625     -0.9572712812 
  C5           -0.7568899240      1.5611302364     -0.7884976669 
  C6            1.8577413356      0.2406387284     -2.4005629406 
  C7            2.5128689748     -1.2642184829     -0.5063908376 
  C8           -0.4319900713     -2.8100488303     -0.3465282593 
  C9           -2.4760975235     -1.3413788909     -0.6926939124 
  C10          -0.8199474873      1.5057482297     -2.2037588193 
  C11          -1.1228274471      2.5956972671     -3.0225427988 
  C12          -1.3594867503      3.8335694179     -2.4297346739 
  C13          -1.3768104223      3.9087810148     -1.0369953186 
  C14          -1.1393126004      2.8074013538     -0.1745876121 
  C15          -1.4820966327      3.1425539178      1.2631075563 
  C16          -2.8536552718      3.0985733288      1.6758699447 
  C17          -3.1858977128      3.5342719247      2.9678471812 
  C18          -2.2291342981      4.0261619386      3.8644637098 
  C19          -0.9152531154      4.1534005995      3.4046807302 
  C20          -0.5230232414      3.7458965212      2.1197330888 
  C21           0.8716055645      4.1281899579      1.6250360793 
  C22           0.8462888975      5.5554412886      1.0280477650 
  C23          -4.0198561110      2.7100775632      0.7478096477 
  C24          -5.3756837243      2.5569073449      1.4666942124 
  C25          -2.5923866373      4.3849658137      5.3006648635 
  C26           1.9743273485      4.0483034439      2.6953303802 
  C27          -4.2096691851      3.7385098366     -0.3913974089 
  C28          -3.0093927409      3.1228576513      6.0872116954 
  C29          -3.6758373375      5.4803022657      5.3774028241 
  H30           1.3553770294     -0.5390317418     -2.9889647963 
  H31           1.4793063879      1.2245760150     -2.7166635109 
  H32           2.4994064971     -1.4529911508      0.5777447315 
  H33           2.0982055127     -2.1355879852     -1.0388748878 
  H34           0.6498962569     -2.9333283952     -0.5140578537 
  H35          -0.6292345319     -2.8623637156      0.7338295063 
  H36          -2.6715598872     -1.2585581706      0.3853229250 
  H37          -2.8975108598     -0.4672252388     -1.2182120050 
  H38          -0.6076924519      0.5604806258     -2.6991952412 
  H39          -1.1527000610      2.4701332708     -4.1097926737 
  H40          -1.5662709238      4.7218402853     -3.0355186307 
  H41          -1.6222577950      4.8608693458     -0.5578060401 
  H42          -4.2281277894      3.4632992257      3.2938816764 
  H43          -0.1601591705      4.5591350090      4.0851527127 
  H44           1.1281768957      3.4420855538      0.8025428163 
  H45           0.5480556855      6.2905681980      1.7972565643 
  H46           0.1370523830      5.6383417853      0.1875490103 
  H47           1.8487075423      5.8375979202      0.6573140933 
  H48          -3.7746200768      1.7382414859      0.2854252326 
  H49          -5.7707986629      3.5308216429      1.8077762767 
  H50          -6.1206270939      2.1291315005      0.7715184207 
  H51          -5.2869195621      1.9006361030      2.3420107272 
  H52          -1.6758274116      4.7863494268      5.7747955620 
  H53           1.8444061685      4.8265855089      3.4703321566 
  H54           2.9596468893      4.2196594271      2.2263322326 
  H55           2.0007400839      3.0547163331      3.1697338795 
  H56          -4.4372618612      4.7359955135      0.0264983086 
  H57          -5.0525505878      3.4439160329     -1.0440168504 
  H58          -3.3109319184      3.8300796721     -1.0182836498 
  H59          -3.9512269591      2.7054667310      5.6885867842 
  H60          -3.1686598594      3.3623249870      7.1548477104 
  H61          -2.2394588549      2.3377168960      6.0041490980 
  H62          -4.6228511073      5.1374575787      4.9237829067 
  H63          -3.3618946137      6.3959053753      4.8466143072 
  H64          -3.8893538185      5.7464781829      6.4286241657 
  C65          -0.7896125715     -1.6252623783     -2.4866603952 
  H66          -1.3664502084     -2.5145993497     -2.8057231316 
  H67          -1.1926864704     -0.7742505790     -3.0579739316 
  H68           0.2543295975     -1.7950193043     -2.7893912193 
  C69           2.5188117162      1.2510111619     -0.2614835129 
  H70           3.5609485357      1.2440720359     -0.6369969603 
  H71           2.0572325504      2.1982487373     -0.5912147268 
  H72           2.5466423217      1.1982151645      0.8467198906 
  H73           2.9311097840      0.2071399431     -2.6686843400 
  H74           3.5712065716     -1.1663148907     -0.8158023562 
  H75          -0.9506199224     -3.6601214666     -0.8315184450 
  H76          -2.9883284945     -2.2450403896     -1.0756693323 
   
 
  bond lengths (angstroms):
 
 P1      -Pd2     :   2.273541      P1      -C3      :   1.975630
 P1      -C4      :   1.977824      P1      -C5      :   1.904507
 Pd2     -Br3     :   2.559152      Pd2     -C76     :   1.973109
 Br3     -H72     :   1.661426      C73     -C74     :   1.382672
 C73     -C78     :   1.385579      C73     -F79     :   1.351697
 C74     -C75     :   1.393335      C74     -H80     :   1.086069
 C75     -C76     :   1.396517      C75     -H81     :   1.082793
 C76     -C77     :   1.397406      C77     -C78     :   1.396856
 C77     -H82     :   1.087542      C78     -H83     :   1.083152
 C3      -C6      :   1.547925      C3      -C7      :   1.545830
 C3      -C69     :   1.541424      C4      -C8      :   1.548994
 C4      -C9      :   1.540459      C4      -C65     :   1.545404
 C5      -C10     :   1.417747      C5      -C14     :   1.440946
 C6      -H30     :   1.098396      C6      -H31     :   1.100575
 C6      -H73     :   1.106856      C7      -H32     :   1.100530
 C7      -H33     :   1.102166      C7      -H74     :   1.106977
 C8      -H34     :   1.101700      C8      -H35     :   1.099461
 C8      -H75     :   1.107617      C9      -H36     :   1.098720
 C9      -H37     :   1.103586      C9      -H76     :   1.107093
 C10     -C11     :   1.396471      C10     -H38     :   1.088136
 C11     -C12     :   1.392751      C11     -H39     :   1.094884
 C12     -C13     :   1.394876      C12     -H40     :   1.094879
 C13     -C14     :   1.418869      C13     -H41     :   1.093773
 C14     -C15     :   1.515518      C15     -C16     :   1.432997
 C15     -C20     :   1.420441      C16     -C17     :   1.403361
 C16     -C23     :   1.540211      C17     -C18     :   1.400455
 C17     -H42     :   1.094340      C18     -C19     :   1.397810
 C18     -C25     :   1.524259      C19     -C20     :   1.403921
 C19     -H43     :   1.094454      C20     -C21     :   1.528353
 C21     -C22     :   1.547282      C21     -C26     :   1.538801
 C21     -H44     :   1.101392      C22     -H45     :   1.105005
 C22     -H46     :   1.102872      C22     -H47     :   1.105395
 C23     -C24     :   1.542247      C23     -C27     :   1.546446
 C23     -H48     :   1.103814      C24     -H49     :   1.104971
 C24     -H50     :   1.105080      C24     -H51     :   1.097611
 C25     -C28     :   1.544496      C25     -C29     :   1.542568
 C25     -H52     :   1.107244      C26     -H53     :   1.105997
 C26     -H54     :   1.104616      C26     -H55     :   1.101350
 C27     -H56     :   1.105176      C27     -H57     :   1.105960
 C27     -H58     :   1.099591      C28     -H59     :   1.104612
 C28     -H60     :   1.105693      C28     -H61     :   1.102789
 C29     -H62     :   1.104603      C29     -H63     :   1.103914
 C29     -H64     :   1.105217      C65     -H66     :   1.107006
 C65     -H67     :   1.101403      C65     -H68     :   1.100127
 C69     -H70     :   1.107749      C69     -H71     :   1.104100
 C69     -H72     :   1.109809
 
  bond angles:
 
 C3      -P1      -Pd2     : 115.078839  C4      -P1      -Pd2     : 113.422857
 C4      -P1      -C3      : 105.277010  C5      -P1      -Pd2     : 118.036309
 C5      -P1      -C3      :  99.035569  C5      -P1      -C4      : 104.178865
 Br3     -Pd2     -P1      :  92.357597  C76     -Pd2     -P1      :  93.997144
 C76     -Pd2     -Br3     : 173.622973  H72     -Br3     -Pd2     :  98.195706
 C78     -C73     -C74     : 121.805727  F79     -C73     -C74     : 119.044229
 F79     -C73     -C78     : 119.147882  C75     -C74     -C73     : 118.478064
 H80     -C74     -C73     : 119.653574  H80     -C74     -C75     : 121.868221
 C76     -C75     -C74     : 121.266124  H81     -C75     -C74     : 119.528307
 H81     -C75     -C76     : 119.199181  C75     -C76     -Pd2     : 119.876561
 C77     -C76     -Pd2     : 120.993430  C77     -C76     -C75     : 118.944904
 C78     -C77     -C76     : 120.275314  H82     -C77     -C76     : 120.290488
 H82     -C77     -C78     : 119.401154  C77     -C78     -C73     : 119.211802
 H83     -C78     -C73     : 119.329621  H83     -C78     -C77     : 121.457473
 C6      -C3      -P1      : 118.110618  C7      -C3      -P1      : 107.784856
 C7      -C3      -C6      : 108.216171  C69     -C3      -P1      : 107.357478
 C69     -C3      -C6      : 105.328143  C69     -C3      -C7      : 109.883593
 C8      -C4      -P1      : 106.414035  C9      -C4      -P1      : 108.605225
 C9      -C4      -C8      : 110.647465  C65     -C4      -P1      : 118.174634
 C65     -C4      -C8      : 106.055661  C65     -C4      -C9      : 106.871612
 C10     -C5      -P1      : 112.368026  C14     -C5      -P1      : 130.809406
 C14     -C5      -C10     : 116.569383  H30     -C6      -C3      : 114.595323
 H31     -C6      -C3      : 112.271380  H31     -C6      -H30     : 108.873328
 H73     -C6      -C3      : 106.760972  H73     -C6      -H30     : 106.994345
 H73     -C6      -H31     : 106.913783  H32     -C7      -C3      : 111.680705
 H33     -C7      -C3      : 112.147179  H33     -C7      -H32     : 109.616054
 H74     -C7      -C3      : 108.458554  H74     -C7      -H32     : 107.590511
 H74     -C7      -H33     : 107.132274  H34     -C8      -C4      : 111.952308
 H35     -C8      -C4      : 111.477508  H35     -C8      -H34     : 108.679416
 H75     -C8      -C4      : 108.650443  H75     -C8      -H34     : 107.899818
 H75     -C8      -H35     : 108.043499  H36     -C9      -C4      : 110.500734
 H37     -C9      -C4      : 111.668026  H37     -C9      -H36     : 109.851145
 H76     -C9      -C4      : 108.372896  H76     -C9      -H36     : 108.579956
 H76     -C9      -H37     : 107.766871  C11     -C10     -C5      : 124.364308
 H38     -C10     -C5      : 118.670222  H38     -C10     -C11     : 116.960405
 C12     -C11     -C10     : 118.750739  H39     -C11     -C10     : 119.910260
 H39     -C11     -C12     : 121.329808  C13     -C12     -C11     : 118.360667
 H40     -C12     -C11     : 121.175993  H40     -C12     -C13     : 120.421041
 C14     -C13     -C12     : 124.259973  H41     -C13     -C12     : 119.153946
 H41     -C13     -C14     : 116.548851  C13     -C14     -C5      : 117.182946
 C15     -C14     -C5      : 130.955054  C15     -C14     -C13     : 111.535604
 C16     -C15     -C14     : 118.878136  C20     -C15     -C14     : 120.885146
 C20     -C15     -C16     : 119.050035  C17     -C16     -C15     : 118.832341
 C23     -C16     -C15     : 123.978910  C23     -C16     -C17     : 116.986626
 C18     -C17     -C16     : 122.460876  H42     -C17     -C16     : 118.660635
 H42     -C17     -C18     : 118.860931  C19     -C18     -C17     : 117.615769
 C25     -C18     -C17     : 121.541327  C25     -C18     -C19     : 120.830874
 C20     -C19     -C18     : 122.496026  H43     -C19     -C18     : 118.537650
 H43     -C19     -C20     : 118.941005  C19     -C20     -C15     : 119.118511
 C21     -C20     -C15     : 121.813933  C21     -C20     -C19     : 118.592878
 C22     -C21     -C20     : 109.918617  C26     -C21     -C20     : 114.569305
 C26     -C21     -C22     : 109.145750  H44     -C21     -C20     : 107.365534
 H44     -C21     -C22     : 106.875967  H44     -C21     -C26     : 108.671117
 H45     -C22     -C21     : 110.456487  H46     -C22     -C21     : 111.956340
 H46     -C22     -H45     : 107.874780  H47     -C22     -C21     : 110.488340
 H47     -C22     -H45     : 107.963057  H47     -C22     -H46     : 107.962157
 C24     -C23     -C16     : 114.194184  C27     -C23     -C16     : 111.658302
 C27     -C23     -C24     : 107.549029  H48     -C23     -C16     : 107.834190
 H48     -C23     -C24     : 107.645980  H48     -C23     -C27     : 107.710008
 H49     -C24     -C23     : 111.759069  H50     -C24     -C23     : 109.745450
 H50     -C24     -H49     : 107.116859  H51     -C24     -C23     : 111.100941
 H51     -C24     -H49     : 108.043941  H51     -C24     -H50     : 108.949491
 C28     -C25     -C18     : 110.598929  C29     -C25     -C18     : 112.420755
 C29     -C25     -C28     : 111.424652  H52     -C25     -C18     : 106.949566
 H52     -C25     -C28     : 107.557171  H52     -C25     -C29     : 107.619893
 H53     -C26     -C21     : 111.510383  H54     -C26     -C21     : 109.624443
 H54     -C26     -H53     : 107.045797  H55     -C26     -C21     : 111.322811
 H55     -C26     -H53     : 109.622410  H55     -C26     -H54     : 107.544309
 H56     -C27     -C23     : 110.301112  H57     -C27     -C23     : 110.554616
[...]
    C26      X    -0.00001   0.00004   0.00002  -0.00042   0.00001   0.00002
    C26      Y    -0.00001   0.00006   0.00003   0.00197   0.00002  -0.00002
    C26      Z     0.00000  -0.00006  -0.00002   0.00194  -0.00001  -0.00001
    C27      X     0.00002   0.00225  -0.00005   0.00004  -0.00000   0.00002
    C27      Y     0.00001   0.00163  -0.00002   0.00000   0.00000   0.00003
    C27      Z     0.00001  -0.00113   0.00000  -0.00007  -0.00001  -0.00003
    C28      X    -0.00011  -0.00002   0.00020   0.00017  -0.00001  -0.00001
    C28      Y     0.00006   0.00000  -0.00022   0.00004   0.00002  -0.00000
    C28      Z     0.00001   0.00000  -0.00018   0.00014   0.00003   0.00001
    C29      X    -0.00002  -0.00001   0.00000   0.00027   0.00000  -0.00000
    C29      Y    -0.00001   0.00001  -0.00002   0.00015   0.00000   0.00000
    C29      Z    -0.00002  -0.00001   0.00003   0.00009   0.00001   0.00001
    H30      X     0.00013   0.00135   0.00004   0.00012   0.00041  -0.00614
    H30      Y     0.00021   0.00195   0.00010   0.00018   0.00064  -0.00840
    H30      Z     0.00006   0.00043   0.00000   0.00004   0.00021  -0.00229
    H31      X    -0.00001  -0.00103   0.00002  -0.00005  -0.00003   0.01142
    H31      Y     0.00010   0.00421  -0.00016   0.00026   0.00028  -0.03395
    H31      Z    -0.00014  -0.00536   0.00021  -0.00035  -0.00032   0.04130
    H32      X    -0.00021   0.00004   0.00013   0.00001  -0.00033  -0.00019
    H32      Y     0.00037  -0.00009  -0.00021   0.00002   0.00319   0.00080
    H32      Z     0.00018  -0.00016  -0.00044   0.00010   0.00216   0.00121
    H33      X     0.00414   0.00009  -0.00072   0.00003   0.00980   0.00011
    H33      Y     0.00622   0.00009  -0.00108   0.00003   0.01459   0.00001
    H33      Z     0.00023   0.00000  -0.00010  -0.00001  -0.00044   0.00009
    H34      X    -0.00385  -0.00026   0.00122  -0.00014  -0.00087  -0.00005
    H34      Y     0.00158   0.00007  -0.00054   0.00005   0.00035   0.00003
    H34      Z     0.00130   0.00010  -0.00036   0.00005   0.00064  -0.00006
    H35      X     0.00005  -0.00001   0.00008  -0.00000   0.00107  -0.00000
    H35      Y    -0.00056  -0.00003   0.00002  -0.00001   0.00010  -0.00020
    H35      Z     0.01298   0.00026  -0.00266   0.00014  -0.00341   0.00085
    H36      X     0.00165   0.00004  -0.00205  -0.00003  -0.00000  -0.00016
    H36      Y     0.00057   0.00004  -0.00006  -0.00002   0.00004  -0.00011
    H36      Z    -0.01562  -0.00054   0.01682   0.00029  -0.00062   0.00129
    H37      X    -0.00123  -0.00019   0.00087  -0.00003  -0.00013   0.00014
    H37      Y     0.00609   0.00042  -0.00431   0.00009   0.00042  -0.00087
    H37      Z    -0.00166  -0.00012   0.00113  -0.00004  -0.00009   0.00016
    H38      X    -0.00029   0.02081   0.00020   0.00050   0.00064  -0.40240
    H38      Y     0.00054  -0.03876  -0.00040  -0.00099  -0.00124   0.76793
    H38      Z     0.00029  -0.02059  -0.00019  -0.00046  -0.00060   0.37661
    H39      X     0.00135  -0.07102  -0.00002  -0.00128   0.00002  -0.03560
    H39      Y    -0.00006   0.00580  -0.00001   0.00012   0.00000  -0.00137
    H39      Z    -0.00400   0.20706   0.00006   0.00373  -0.00007   0.10920
    H40      X    -0.00039   0.06635  -0.00009   0.00129   0.00002   0.00232
    H40      Y     0.00248  -0.44138   0.00059  -0.00876  -0.00016  -0.01286
    H40      Z    -0.00164   0.30042  -0.00040   0.00600   0.00011   0.00739
    H41      X     0.00153   0.30780  -0.00102   0.00602  -0.00001   0.00643
    H41      Y    -0.00308  -0.61391   0.00203  -0.01191   0.00004  -0.01262
    H41      Z    -0.00147  -0.30210   0.00097  -0.00590  -0.00000  -0.00632
    H42      X     0.01016   0.00227  -0.01203   0.00288  -0.00008   0.00045
    H42      Y     0.00093   0.00019  -0.00100   0.00045   0.00000   0.00005
    H42      Z    -0.00293  -0.00080   0.00346   0.00010   0.00003  -0.00018
    H43      X     0.00001   0.01303   0.00606  -0.66401  -0.00158  -0.00021
    H43      Y    -0.00000   0.00416   0.00197  -0.21336  -0.00051  -0.00005
    H43      Z     0.00002   0.01256   0.00595  -0.64963  -0.00156  -0.00026
    H44      X    -0.00001   0.00019   0.00007  -0.00150  -0.00006   0.00012
    H44      Y     0.00001  -0.00010  -0.00007  -0.00178   0.00007  -0.00008
    H44      Z     0.00004  -0.00010  -0.00020  -0.00083   0.00011  -0.00010
    H45      X    -0.00002  -0.00100   0.00002   0.00114   0.00000   0.00000
    H45      Y     0.00003   0.00216  -0.00005  -0.00332   0.00003   0.00002
    H45      Z     0.00005   0.00378  -0.00007  -0.00363   0.00004   0.00007
    H46      X     0.00003   0.01079   0.00007  -0.00229  -0.00003   0.00038
    H46      Y    -0.00002  -0.00450  -0.00002   0.00083   0.00002  -0.00015
    H46      Z     0.00004   0.01173   0.00007  -0.00290  -0.00005   0.00040
    H47      X     0.00007   0.00295  -0.00002  -0.00028  -0.00018  -0.00013
    H47      Y     0.00003   0.00068  -0.00002  -0.00046  -0.00006  -0.00007
    H47      Z    -0.00002  -0.00086   0.00000   0.00014   0.00006   0.00005
    H48      X     0.00024  -0.00078  -0.00044  -0.00028  -0.00004  -0.00002
    H48      Y    -0.00018   0.00079   0.00030   0.00020   0.00004   0.00000
    H48      Z    -0.00043   0.00134   0.00087   0.00067   0.00011  -0.00005
    H49      X     0.00082   0.00026  -0.00174  -0.00054  -0.00004   0.00001
    H49      Y    -0.00060  -0.00023   0.00123   0.00033   0.00003   0.00000
    H49      Z    -0.00118  -0.00042   0.00252   0.00060   0.00003  -0.00002
    H50      X    -0.00005   0.00038  -0.00008   0.00026   0.00014   0.00018
    H50      Y     0.00008   0.00016  -0.00039   0.00010   0.00003   0.00006
    H50      Z    -0.00003   0.00051  -0.00022   0.00041   0.00016   0.00020
    H51      X     0.00126   0.00084  -0.00428  -0.00007   0.00003   0.00003
    H51      Y    -0.00237  -0.00189   0.00733   0.00014  -0.00012  -0.00010
    H51      Z     0.00119   0.00072  -0.00380  -0.00009  -0.00000   0.00001
    H52      X     0.00005   0.00015   0.00027  -0.00811  -0.00011  -0.00003
    H52      Y     0.00000   0.00003   0.00010  -0.00133  -0.00004   0.00000
    H52      Z     0.00001   0.00016   0.00017  -0.00877  -0.00008  -0.00002
    H53      X    -0.00001  -0.00007  -0.00004   0.00495   0.00003  -0.00002
    H53      Y     0.00003   0.00017   0.00004  -0.01875  -0.00005   0.00008
    H53      Z     0.00004   0.00018   0.00009  -0.02851  -0.00007   0.00006
    H54      X     0.00016  -0.00053  -0.00028   0.00576  -0.00015  -0.00033
    H54      Y     0.00004  -0.00006  -0.00008   0.00168  -0.00001  -0.00008
    H54      Z    -0.00008   0.00025   0.00013  -0.00318   0.00005   0.00013
    H55      X    -0.00002   0.00003   0.00004  -0.00112  -0.00001   0.00005
    H55      Y     0.00010  -0.00120  -0.00033  -0.00673  -0.00022   0.00016
    H55      Z    -0.00004   0.00041   0.00014   0.00320   0.00008  -0.00009
    H56      X     0.00004  -0.00277  -0.00001  -0.00025  -0.00002  -0.00004
    H56      Y    -0.00005   0.00283  -0.00000   0.00027   0.00002   0.00002
    H56      Z    -0.00004   0.00610  -0.00005   0.00046   0.00003   0.00006
    H57      X    -0.00013  -0.00352   0.00026   0.00005   0.00007   0.00012
    H57      Y    -0.00002  -0.00052   0.00001   0.00007   0.00001  -0.00000
    H57      Z    -0.00012  -0.00389   0.00024   0.00007   0.00006   0.00010
    H58      X    -0.00012  -0.02353   0.00038  -0.00046  -0.00003  -0.00038
    H58      Y    -0.00012  -0.02280   0.00040  -0.00044  -0.00003  -0.00037
    H58      Z     0.00006   0.01220  -0.00023   0.00025   0.00001   0.00018
    H59      X     0.00057   0.00017   0.00054  -0.00314  -0.00012   0.00002
    H59      Y     0.00013   0.00003  -0.00021  -0.00081   0.00001   0.00000
    H59      Z     0.00032   0.00009   0.00021  -0.00119  -0.00003   0.00002
    H60      X     0.00005   0.00002  -0.00026   0.00040   0.00006   0.00003
    H60      Y    -0.00008  -0.00000   0.00023   0.00030  -0.00002   0.00000
    H60      Z    -0.00022  -0.00011   0.00132  -0.00188  -0.00029  -0.00015
    H61      X     0.00072   0.00006  -0.00261   0.00011   0.00019   0.00000
    H61      Y    -0.00080  -0.00011   0.00268   0.00015  -0.00020  -0.00002
    H61      Z    -0.00010  -0.00001   0.00039   0.00012  -0.00001   0.00001
    H62      X     0.00024   0.00014  -0.00020  -0.00329  -0.00005   0.00001
    H62      Y     0.00002   0.00002  -0.00004  -0.00017   0.00000   0.00000
    H62      Z     0.00013   0.00007  -0.00008  -0.00151  -0.00002   0.00001
    H63      X     0.00000  -0.00006   0.00018  -0.00054  -0.00001  -0.00002
    H63      Y    -0.00002  -0.00011   0.00049  -0.00172  -0.00001  -0.00002
    H63      Z    -0.00000   0.00003  -0.00013   0.00062   0.00001   0.00002
    H64      X    -0.00004   0.00002   0.00007   0.00051   0.00003   0.00004
    H64      Y     0.00001  -0.00001  -0.00005  -0.00042  -0.00001  -0.00002
    H64      Z     0.00017  -0.00004  -0.00031  -0.00154  -0.00013  -0.00014
    C65      X     0.00002  -0.00017  -0.00007  -0.00000   0.00003   0.00016
    C65      Y    -0.00001  -0.00007   0.00004  -0.00003  -0.00002   0.00107
    C65      Z    -0.00000   0.00005   0.00002   0.00000  -0.00001  -0.00052
    H66      X    -0.00004   0.00087   0.00012   0.00009   0.00011  -0.00380
    H66      Y    -0.00010   0.00102   0.00023   0.00010   0.00009  -0.00501
    H66      Z    -0.00006   0.00035   0.00017   0.00003   0.00010  -0.00095
    H67      X    -0.00000  -0.00041   0.00006  -0.00009  -0.00013   0.00555
    H67      Y     0.00014   0.00050  -0.00043   0.00020   0.00038  -0.01319
    H67      Z    -0.00008  -0.00030   0.00023  -0.00010  -0.00022   0.00545
    H68      X    -0.00027   0.00181   0.00109   0.00002  -0.00032  -0.00848
    H68      Y     0.00007  -0.00046  -0.00028  -0.00002   0.00006   0.00052
    H68      Z     0.00015  -0.00072  -0.00057  -0.00001   0.00014   0.00261
    C69      X     0.00000   0.00004   0.00001   0.00004   0.00004  -0.00003
    C69      Y     0.00000  -0.00001  -0.00001  -0.00005  -0.00004   0.00012
    C69      Z     0.00001   0.00003  -0.00003   0.00000  -0.00005  -0.00027
    H70      X     0.00005  -0.00052  -0.00003  -0.00040  -0.00033   0.00020
    H70      Y    -0.00001   0.00017   0.00004   0.00015   0.00010  -0.00010
    H70      Z    -0.00002  -0.00002   0.00002   0.00002  -0.00004  -0.00001
    H71      X    -0.00001   0.00013   0.00001  -0.00003  -0.00002  -0.00010
    H71      Y     0.00007   0.00016  -0.00008   0.00033   0.00015  -0.00214
    H71      Z    -0.00006  -0.00005   0.00008  -0.00041  -0.00009   0.00089
    H72      X    -0.00002   0.00006  -0.00001  -0.00001  -0.00013  -0.00024
    H72      Y    -0.00001  -0.00006   0.00016   0.00009   0.00033   0.00040
    H72      Z    -0.00003  -0.00023   0.00030   0.00036   0.00064   0.00182
    H73      X     0.00017  -0.00108   0.00011  -0.00011   0.00021   0.00331
    H73      Y    -0.00004   0.00023  -0.00002   0.00002  -0.00005  -0.00012
    H73      Z     0.00001   0.00001  -0.00000  -0.00001   0.00007  -0.00068
    H74      X     0.00210  -0.00037  -0.00018  -0.00010   0.00340  -0.00007
    H74      Y    -0.00060   0.00015   0.00005   0.00004  -0.00088   0.00005
    H74      Z    -0.00031  -0.00003   0.00005  -0.00000  -0.00050   0.00005
    H75      X     0.00081   0.00022   0.00008   0.00002  -0.00097   0.00029
    H75      Y     0.00062   0.00026   0.00013   0.00003  -0.00064   0.00039
    H75      Z     0.00007   0.00010   0.00013   0.00000  -0.00065   0.00006
    H76      X    -0.00105   0.00025   0.00133   0.00007   0.00013   0.00038
    H76      Y    -0.00104   0.00022   0.00124   0.00007   0.00011   0.00040
    H76      Z    -0.00027   0.00014   0.00027   0.00003   0.00012   0.00021
  
  Number of imaginary frequencies:   0
   
  Writing vibrational animation data to ox_add_L_trans_L1_PL274_2.vib
  Writing IR vibrational spectrum data to ox_add_L_trans_L1_PL274_2_vib.spm
  rotational symmetry number:  1

  rotational temperatures (K):      0.004357      0.003918      0.003217
   
  The Quasi-Harmonic approximation will be applied to compute
  vibrational constributions to thermodynamic properties.
  Frequencies will be adjusted to a minimum value of  100.00 cm^-1.

  vibrational temperatures:
       mode:      1        2        3        4        5        6
  temp. (K):   143.88   143.88   143.88   143.88   143.88   143.88
   
       mode:      7        8        9       10       11       12
  temp. (K):   143.88   143.88   143.88   143.88   143.88   143.88
   
       mode:     13       14       15       16       17       18
  temp. (K):   144.60   154.04   156.89   165.20   171.24   181.51
   
       mode:     19       20       21       22       23       24
  temp. (K):   190.54   200.54   213.21   217.47   219.99   235.63
   
       mode:     25       26       27       28       29       30
  temp. (K):   248.92   253.43   271.39   292.02   298.70   312.56
   
       mode:     31       32       33       34       35       36
  temp. (K):   347.06   351.16   352.23   354.98   362.51   372.43
   
       mode:     37       38       39       40       41       42
  temp. (K):   374.22   379.38   381.51   387.87   400.75   410.34
   
       mode:     43       44       45       46       47       48
  temp. (K):   417.68   419.99   423.95   432.58   437.72   452.33
   
       mode:     49       50       51       52       53       54
  temp. (K):   460.48   478.05   478.98   486.98   500.55   512.51
   
       mode:     55       56       57       58       59       60
  temp. (K):   524.51   548.73   560.18   574.86   590.17   594.60
   
       mode:     61       62       63       64       65       66
  temp. (K):   601.51   607.34   614.56   628.97   655.87   696.91
   
       mode:     67       68       69       70       71       72
  temp. (K):   700.63   718.24   738.52   746.88   753.57   767.00
   
       mode:     73       74       75       76       77       78
  temp. (K):   812.36   838.91   847.94   852.57   876.36   883.63
   
       mode:     79       80       81       82       83       84
  temp. (K):   906.57   910.90   926.91   956.64   979.25  1003.54
   
       mode:     85       86       87       88       89       90
  temp. (K):  1076.20  1117.90  1134.49  1147.12  1187.59  1194.89
   
       mode:     91       92       93       94       95       96
  temp. (K):  1200.53  1205.29  1209.58  1211.78  1246.46  1306.50
   
       mode:     97       98       99      100      101      102
  temp. (K):  1315.63  1318.87  1336.60  1361.47  1365.63  1368.90
   
       mode:    103      104      105      106      107      108
  temp. (K):  1373.52  1376.11  1382.49  1384.96  1388.45  1391.19
   
       mode:    109      110      111      112      113      114
  temp. (K):  1395.00  1397.71  1411.17  1415.37  1416.09  1424.29
   
       mode:    115      116      117      118      119      120
  temp. (K):  1428.91  1433.91  1473.26  1474.40  1475.70  1508.34
   
       mode:    121      122      123      124      125      126
  temp. (K):  1515.85  1520.82  1527.28  1533.55  1551.68  1569.29
   
       mode:    127      128      129      130      131      132
  temp. (K):  1591.14  1597.90  1622.91  1634.27  1640.24  1642.35
   
       mode:    133      134      135      136      137      138
  temp. (K):  1649.78  1670.51  1684.22  1718.46  1720.95  1738.82
   
       mode:    139      140      141      142      143      144
  temp. (K):  1740.00  1742.04  1751.28  1765.20  1779.79  1783.68
   
       mode:    145      146      147      148      149      150
  temp. (K):  1797.05  1806.44  1836.03  1839.79  1860.29  1866.79
   
       mode:    151      152      153      154      155      156
  temp. (K):  1886.36  1894.76  1897.57  1927.71  1928.56  1944.24
   
       mode:    157      158      159      160      161      162
  temp. (K):  1946.62  1947.50  1967.70  1991.38  2023.29  2047.88
   
       mode:    163      164      165      166      167      168
  temp. (K):  2049.98  2050.60  2051.09  2051.39  2053.12  2056.72
   
       mode:    169      170      171      172      173      174
  temp. (K):  2061.19  2077.93  2080.75  2089.30  2097.93  2109.26
   
       mode:    175      176      177      178      179      180
  temp. (K):  2118.78  2130.88  2153.05  2160.49  2164.75  2172.84
   
       mode:    181      182      183      184      185      186
  temp. (K):  2173.18  2176.21  2178.41  2179.08  2180.82  2182.65
   
       mode:    187      188      189      190      191      192
  temp. (K):  2184.65  2187.71  2189.97  2194.83  2195.51  2200.87
   
       mode:    193      194      195      196      197      198
  temp. (K):  2202.85  2203.25  2206.43  2207.36  2212.21  2214.17
   
       mode:    199      200      201      202      203      204
  temp. (K):  2215.21  2216.18  2220.00  2234.16  2240.93  2328.84
   
       mode:    205      206      207      208      209      210
  temp. (K):  2335.17  2362.17  2371.15  2379.56  2399.87  4369.81
   
       mode:    211      212      213      214      215      216
  temp. (K):  4377.19  4378.09  4378.92  4381.59  4386.05  4387.03
   
       mode:    217      218      219      220      221      222
  temp. (K):  4389.37  4389.39  4392.42  4395.50  4397.31  4399.53
   
       mode:    223      224      225      226      227      228
  temp. (K):  4427.32  4453.40  4473.77  4481.92  4483.20  4483.72
   
       mode:    229      230      231      232      233      234
  temp. (K):  4484.39  4491.51  4494.45  4495.35  4498.05  4498.77
   
       mode:    235      236      237      238      239      240
  temp. (K):  4499.14  4503.17  4517.11  4517.34  4524.01  4524.04
   
       mode:    241      242      243      244      245      246
  temp. (K):  4527.02  4542.34  4545.02  4550.89  4555.43  4564.28
   
       mode:    247      248      249      250      251      252
  temp. (K):  4574.97  4587.48  4589.13  4598.21  4605.56  4607.45
   
       mode:    253      254      255      256      257      258
  temp. (K):  4609.23  4626.25  4627.98  4630.48  4663.31  4696.08
   
   
  Thermodynamic properties calculated assuming an ideal gas

  In the table below, the units for temperature
  are kelvins, the units for U, H, and G are
  kcal/mol and the units for Cv and S are cal/(mol K)

  The zero point energy (ZPE):    479.995 kcal/mol
  is not included in U, H, or G in the table below
  
 
  =============================================================================
  Thermodynamic properties for P = 1.00E+00 atm, calculated at   1 temperatures


  T =   298.15 K, P = 1.00E+00 atm
   
                  U         Cv          S          H          G        ln(Q)
              =========  =========  =========  =========  =========  =========
  trans.          0.889      2.981     45.536      1.481    -12.095   20.41467
  rot.            0.889      2.981     37.712      0.889    -10.355   17.47760
  vib.           25.233    163.308    152.776     25.233    -20.317   34.29139
  elec.           0.000      0.000      0.000      0.000      0.000    0.00000
  ----------------------------------------------------------------------------
  total          27.011    169.269    236.025     27.603    -42.768   72.18366
   
   Total internal energy, Utot(SCFE + ZPE + U):   -1943.258918 hartrees
   Total enthalpy, Htot (Utot + nRT), with n=1:   -1943.257974 hartrees
    Total Gibbs free energy, Gtot (Htot - T*S):   -1943.370117 hartrees
   
  end of program freq
   
 Time(freq)  user:       1.073  user+sys:       1.073  wallclock:       1.309
  
  start of program post
  
  Writing input files for PBF
  end of program post
   
 Time(post)  user:       0.282  user+sys:       0.282  wallclock:       0.095

 Total cpu seconds     user:  164958.575   user+sys:  164958.575
  
 Total elapsed time:    19109 seconds

Job ox_add_L_trans_L1_PL274_2 completed on bp1-compute103 at Thu Dec  4 23:38:02 2025
