Job PL274 started on bp1-compute174.data.bp.acrc.priv at Tue Mar 19 13:11:04 2024
jobid: bp1-compute174-0-65f98ee5

  +--------------------------------------------------------------------+
  |  Jaguar version 11.4, release 135                                  |
  |                                                                    |
  |  Copyright Schrodinger, Inc.                                       |
  |  All Rights Reserved.                                              |
  |                                                                    |
  |  The following have contributed to Jaguar (listed alphabetically): |
  |  Mike Beachy, Art Bochevarov, Dale Braden, Yixiang Cao,            |
  |  Alan Chien, Chris Cortis, Rich Friesner, Bill Goddard,            |
  |  Hod Greeley, Tom Hughes, Leif Jacobson, Jean-Marc Langlois,       |
  |  Daniel Levine, Daniel Mainz, Rob Murphy, Dean Philipp,            |
  |  Tom Pollard, Murco Ringnalda, Mark Watson, Haoyu Yu.              |
  |                                                                    |
  |  Use of this program should be acknowledged in publications as:    |
  |                                                                    |
  |  Jaguar, version 11.4, Schrodinger, Inc., New York, NY, 2021.      |
  |                                                                    |
  |  A. D. Bochevarov, E. Harder, T. F. Hughes, J. R. Greenwood,       |
  |  D. A. Braden, D. M. Philipp, D. Rinaldo, M. D. Halls,             |
  |  J. Zhang, R. A. Friesner, "Jaguar: A High-Performance Quantum     |
  |  Chemistry Software Program with Strengths in Life and Materials   |
  |  Sciences", Int. J. Quantum Chem., 2013, 113(18), 2110-2142.       |
  +--------------------------------------------------------------------+
  
  start of program pre
  
  Job name: PL274
  Executables used: /sw/apps/schrodinger2021-4/jaguar-v11.4/bin/Linux-x86_64
  Temporary files : /tmp/ar21627/PL274
  Maestro file (input):  PL274.mae
  Maestro file (output): PL274.01.mae
  
 Contents of input file: &gen section only
 ----------------Contents start----------------
&gen
dftname=b3pw91-d3
basis=6-31G*
numd=5
ip11=2
iaccg=3
isolv=2
igeopt=1
solvent=benzene
ifreq=1
&
 -----------------Contents end-----------------
 
  basis set:             6-31g*                          
  net molecular charge:    0
  multiplicity:            1
  
  number of basis functions....          514
  
 Input geometry:
                                   angstroms
  atom               x                 y                 z
  P1           -0.1487290230      0.1858056668      0.0434368030 
  C3            1.5321514987     -0.3329436158     -0.7983700600 
  C4           -1.4216108188     -1.2737759494     -0.1938648640 
  C5           -0.8115924889      1.5702867468     -1.0477307895 
  C6            1.5977276692     -0.5829442384     -2.3209100703 
  C7            2.0217951664     -1.5990382757     -0.0546287187 
  C8           -1.2372751416     -2.1866602989      1.0456705986 
  C9           -2.8310120018     -0.6548540967     -0.1128857856 
  C10          -0.9680897198      1.4014447413     -2.4461802113 
  C11          -1.3951677993      2.4349826681     -3.2919952370 
  C12          -1.6772560083      3.6941068147     -2.7457410021 
  C13          -1.5656431934      3.8775449687     -1.3613665592 
  C14          -1.1624352494      2.8407331794     -0.4834069156 
  C15          -1.2038405046      3.2010162178      0.9905476663 
  C16          -2.4520617269      3.1668755453      1.6839052067 
  C17          -2.5118752830      3.6190893076      3.0153301124 
  C18          -1.3884990005      4.1221497444      3.6917338477 
  C19          -0.1797907675      4.1788407462      2.9832176168 
  C20          -0.0645727386      3.7427726487      1.6497316973 
  C21           1.2641614620      3.9469479720      0.9212796935 
  C22           1.3614645194      5.3853478102      0.3578672371 
  C23          -3.7545277762      2.7113913671      1.0119400024 
  C24          -4.6193036056      1.8005222460      1.9130671912 
  C25          -1.4722008188      4.6096345553      5.1374003366 
  C26           2.4960543390      3.6311170075      1.7947802849 
  C27          -4.5963577473      3.9245121928      0.5474464099 
  C28          -1.8506130825      3.4667700417      6.1062769052 
  C29          -2.4428696125      5.8029646757      5.2863590664 
  H30           0.8914721234     -1.3534699195     -2.6684615217 
  H31           1.4153549500      0.3422527815     -2.8932618240 
  H32           1.9652123334     -1.4779275392      1.0424432697 
  H33           1.4485440819     -2.5000978906     -0.3334934067 
  H34          -0.2507905123     -2.6795544554      1.0661672525 
  H35          -1.3455570291     -1.6132874040      1.9832510067 
  H36          -2.9418102636     -0.0249620398      0.7855535523 
  H37          -3.0628719803     -0.0379695790     -0.9982986114 
  H38          -0.7519875585      0.4255787332     -2.8883936789 
  H39          -1.5012635266      2.2542156266     -4.3681323011 
  H40          -1.9950442464      4.5251166487     -3.3860109826 
  H41          -1.8089730966      4.8542314596     -0.9265020670 
  H42          -3.4750676934      3.5834971894      3.5389875687 
  H43           0.7029711326      4.5919123152      3.4872906095 
  H44           1.2764643658      3.2573457631      0.0603387070 
  H45           1.3088106546      6.1291391557      1.1742789274 
  H46           0.5392775452      5.5967275156     -0.3474676532 
  H47           2.3179025591      5.5322952686     -0.1783217237 
  H48          -3.4841171237      2.1339377703      0.1107751520 
  H49          -5.0873107242      2.3672875615      2.7389129580 
  H50          -5.4391140197      1.3495615505      1.3245036363 
  H51          -4.0296292166      0.9835060019      2.3636072241 
  H52          -0.4604548933      4.9652142918      5.4187384813 
  H53           2.6452171909      4.3899064328      2.5850796645 
  H54           3.4119732377      3.6253686427      1.1761817565 
  H55           2.4032642307      2.6466320966      2.2859079597 
  H56          -4.8669669210      4.5653177558      1.4071398902 
  H57          -5.5332557667      3.5858235181      0.0663576978 
  H58          -4.0468449265      4.5464499468     -0.1793819494 
  H59          -2.8602657361      3.0743112749      5.8843463662 
  H60          -1.8521254203      3.8242528261      7.1528586124 
  H61          -1.1393787095      2.6256601591      6.0294344159 
  H62          -3.4785340539      5.5098767936      5.0330569270 
  H63          -2.1575936430      6.6365866203      4.6205494763 
  H64          -2.4467026826      6.1776883087      6.3268093941 
  C65          -1.3394882608     -2.1326979007     -1.4709136288 
  H66          -2.1475356953     -2.8925380141     -1.4497870052 
  H67          -1.4815834598     -1.5358339242     -2.3889847787 
  H68          -0.3855981662     -2.6802823118     -1.5532945876 
  C69           2.5221624364      0.8086525314     -0.4777213304 
  H70           3.5392948251      0.5192189449     -0.8100048279 
  H71           2.2535917205      1.7382950420     -1.0095875589 
  H72           2.5661850825      1.0248257377      0.6030091316 
  H73           2.6177908747     -0.9301123171     -2.5838100100 
  H74           3.0807744807     -1.7915469033     -0.3173820445 
  H75          -2.0074476946     -2.9836658752      1.0394984658 
  H76          -3.5876597632     -1.4622106385     -0.0505108452 
   
  principal moments of inertia:
        amu*angstrom^2:     2623.44590     4708.51346     4965.09248
                g*cm^2: 4.35633387E-37 7.81866957E-37 8.24472901E-37
   
  rotational constants:
               cm^(-1):      0.00642576      0.00358024      0.00339523
                   GHz:      0.19263939      0.10733303      0.10178642
   
  Molecular weight:     424.33 amu
   
  Stoichiometry: C29PH45
  Molecular Point Group: C1      
  Point Group used: C1
  
 
Number of optimization coordinates:   232
Number of independent coordinates:    232
Number of non-redundant coordinates:  219
Number of frozen coordinates:           0
Number of harmonic constraints:         0
 
Number of geometric degrees of freedom:   219
Maximum geometric degrees of freedom:     219
 " " " " " excluding dummy atoms:         219
 
 
  bond lengths (angstroms):
 
 P1      -C3      :   1.950154      P1      -C4      :   1.951133
 P1      -C5      :   1.883301      C3      -C6      :   1.544321
 C3      -C7      :   1.547869      C3      -C69     :   1.544726
 C4      -C8      :   1.550415      C4      -C9      :   1.541439
 C4      -C65     :   1.541215      C5      -C10     :   1.417272
 C5      -C14     :   1.433732      C6      -H30     :   1.101498
 C6      -H31     :   1.103103      C6      -H73     :   1.109131
 C7      -H32     :   1.105186      C7      -H33     :   1.103762
 C7      -H74     :   1.107942      C8      -H34     :   1.102958
 C8      -H35     :   1.104327      C8      -H75     :   1.108342
 C9      -H36     :   1.102830      C9      -H37     :   1.103749
 C9      -H76     :   1.108256      C10     -C11     :   1.402141
 C10     -H38     :   1.092963      C11     -C12     :   1.401200
 C11     -H39     :   1.096359      C12     -C13     :   1.400928
 C12     -H40     :   1.096135      C13     -C14     :   1.417169
 C13     -H41     :   1.096464      C14     -C15     :   1.517913
 C15     -C16     :   1.428274      C15     -C20     :   1.423360
 C16     -C17     :   1.407397      C16     -C23     :   1.534738
 C17     -C18     :   1.404481      C17     -H42     :   1.096915
 C18     -C19     :   1.402207      C18     -C25     :   1.527939
 C19     -C20     :   1.407699      C19     -H43     :   1.097263
 C20     -C21     :   1.529008      C21     -C22     :   1.547868
 C21     -C26     :   1.542826      C21     -H44     :   1.103142
 C22     -H45     :   1.105679      C22     -H46     :   1.103707
 C22     -H47     :   1.106285      C23     -C24     :   1.545817
 C23     -C27     :   1.547932      C23     -H48     :   1.103935
 C24     -H49     :   1.105565      C24     -H50     :   1.105379
 C24     -H51     :   1.103729      C25     -C28     :   1.545334
 C25     -C29     :   1.545452      C25     -H52     :   1.108701
 C26     -H53     :   1.105705      C26     -H54     :   1.105262
 C26     -H55     :   1.104096      C27     -H56     :   1.105863
 C27     -H57     :   1.106316      C27     -H58     :   1.103200
 C28     -H59     :   1.105747      C28     -H60     :   1.105952
 C28     -H61     :   1.104185      C29     -H62     :   1.105741
 C29     -H63     :   1.104360      C29     -H64     :   1.105879
 C65     -H66     :   1.109389      C65     -H67     :   1.104216
 C65     -H68     :   1.102969      C69     -H70     :   1.108487
 C69     -H71     :   1.104195      C69     -H72     :   1.103017
 
  bond angles:
 
 C4      -P1      -C3      : 108.108186  C5      -P1      -C3      : 104.407581
 C5      -P1      -C4      : 104.468460  C6      -C3      -P1      : 120.346953
 C7      -C3      -P1      : 106.428906  C7      -C3      -C6      : 109.139540
 C69     -C3      -P1      : 105.439227  C69     -C3      -C6      : 107.281773
 C69     -C3      -C7      : 107.578883  C8      -C4      -P1      : 105.406354
 C9      -C4      -P1      : 106.842584  C9      -C4      -C8      : 107.645431
 C65     -C4      -P1      : 118.875937  C65     -C4      -C8      : 109.146140
 C65     -C4      -C9      : 108.422355  C10     -C5      -P1      : 121.532572
 C14     -C5      -P1      : 120.629854  C14     -C5      -C10     : 117.834602
 H30     -C6      -C3      : 113.396475  H31     -C6      -C3      : 111.638076
 H31     -C6      -H30     : 108.481033  H73     -C6      -C3      : 108.869468
 H73     -C6      -H30     : 107.213938  H73     -C6      -H31     : 106.953331
 H32     -C7      -C3      : 111.785645  H33     -C7      -C3      : 112.461101
 H33     -C7      -H32     : 108.280155  H74     -C7      -C3      : 109.300734
 H74     -C7      -H32     : 107.661255  H74     -C7      -H33     : 107.136443
 H34     -C8      -C4      : 112.601621  H35     -C8      -C4      : 111.186357
 H35     -C8      -H34     : 107.694714  H75     -C8      -C4      : 109.653687
 H75     -C8      -H34     : 107.473036  H75     -C8      -H35     : 108.056335
 H36     -C9      -C4      : 111.345624  H37     -C9      -C4      : 111.983511
 H37     -C9      -H36     : 108.251569  H76     -C9      -C4      : 109.554646
 H76     -C9      -H36     : 107.556251  H76     -C9      -H37     : 107.991936
 C11     -C10     -C5      : 122.754416  H38     -C10     -C5      : 118.931452
 H38     -C10     -C11     : 118.313668  C12     -C11     -C10     : 119.243714
 H39     -C11     -C10     : 120.002979  H39     -C11     -C12     : 120.752874
 C13     -C12     -C11     : 119.134760  H40     -C12     -C11     : 120.790869
 H40     -C12     -C13     : 120.068976  C14     -C13     -C12     : 122.620128
 H41     -C13     -C12     : 119.398160  H41     -C13     -C14     : 117.977414
 C13     -C14     -C5      : 118.298442  C15     -C14     -C5      : 126.812880
 C15     -C14     -C13     : 114.844957  C16     -C15     -C14     : 119.311547
 C20     -C15     -C14     : 121.212544  C20     -C15     -C16     : 118.932704
 C17     -C16     -C15     : 119.255675  C23     -C16     -C15     : 122.426556
 C23     -C16     -C17     : 118.261393  C18     -C17     -C16     : 122.459405
 H42     -C17     -C16     : 118.588366  H42     -C17     -C18     : 118.950370
 C19     -C18     -C17     : 117.426389  C25     -C18     -C17     : 121.744507
 C25     -C18     -C19     : 120.823907  C20     -C19     -C18     : 122.457769
 H43     -C19     -C18     : 118.462861  H43     -C19     -C20     : 119.074117
 C19     -C20     -C15     : 119.412663  C21     -C20     -C15     : 121.719010
 C21     -C20     -C19     : 118.755124  C22     -C21     -C20     : 110.617851
 C26     -C21     -C20     : 113.378855  C26     -C21     -C22     : 110.250159
 H44     -C21     -C20     : 107.339704  H44     -C21     -C22     : 107.225815
 H44     -C21     -C26     : 107.757537  H45     -C22     -C21     : 110.693437
 H46     -C22     -C21     : 111.331164  H46     -C22     -H45     : 107.912260
 H47     -C22     -C21     : 110.744533  H47     -C22     -H45     : 108.040616
 H47     -C22     -H46     : 107.990237  C24     -C23     -C16     : 113.229018
 C27     -C23     -C16     : 111.120355  C27     -C23     -C24     : 109.419451
 H48     -C23     -C16     : 107.744852  H48     -C23     -C24     : 107.738677
 H48     -C23     -C27     : 107.349746  H49     -C24     -C23     : 111.727659
 H50     -C24     -C23     : 110.176146  H50     -C24     -H49     : 107.033160
 H51     -C24     -C23     : 112.040305  H51     -C24     -H49     : 107.500841
 H51     -C24     -H50     : 108.155012  C28     -C25     -C18     : 111.756937
 C29     -C25     -C18     : 111.836312  C29     -C25     -C28     : 110.905214
 H52     -C25     -C18     : 107.003184  H52     -C25     -C28     : 107.550898
 H52     -C25     -C29     : 107.520886  H53     -C26     -C21     : 111.832921
 H54     -C26     -C21     : 110.234779  H54     -C26     -H53     : 106.966322
 H55     -C26     -C21     : 111.547561  H55     -C26     -H53     : 107.776616
 H55     -C26     -H54     : 108.298524  H56     -C27     -C23     : 110.727931
 H57     -C27     -C23     : 110.556107  H57     -C27     -H56     : 107.952109
 H58     -C27     -C23     : 111.630960  H58     -C27     -H56     : 107.901977
 H58     -C27     -H57     : 107.933891  H59     -C28     -C25     : 111.115280
 H60     -C28     -C25     : 110.768643  H60     -C28     -H59     : 107.662429
 H61     -C28     -C25     : 111.222740  H61     -C28     -H59     : 107.687004
 H61     -C28     -H60     : 108.237741  H62     -C29     -C25     : 111.194085
 H63     -C29     -C25     : 111.254095  H63     -C29     -H62     : 107.693006
 H64     -C29     -C25     : 110.762928  H64     -C29     -H62     : 107.583417
 H64     -C29     -H63     : 108.200313  H66     -C65     -C4      : 109.093799
 H67     -C65     -C4      : 112.384498  H67     -C65     -H66     : 106.997092
 H68     -C65     -C4      : 112.622049  H68     -C65     -H66     : 106.936346
 H68     -C65     -H67     : 108.514613  H70     -C69     -C3      : 109.444258
 H71     -C69     -C3      : 111.489623  H71     -C69     -H70     : 107.374971
 H72     -C69     -C3      : 111.950074  H72     -C69     -H70     : 107.954231
 H72     -C69     -H71     : 108.460485
 
  torsional angles:
 
 P1      -C3      -C6      -H30     : -57.032482
 P1      -C3      -C6      -H31     :  65.869956
 P1      -C3      -C6      -H73     :-176.283933
 P1      -C3      -C7      -H32     : -47.061164
 P1      -C3      -C7      -H33     :  74.995164
 P1      -C3      -C7      -H74     :-166.149155
 P1      -C3      -C69     -H70     : 172.479881
 P1      -C3      -C69     -H71     : -68.878379
 P1      -C3      -C69     -H72     :  52.828314
 P1      -C4      -C8      -H34     : -66.594560
 P1      -C4      -C8      -H35     :  54.366237
 P1      -C4      -C8      -H75     : 173.799660
 P1      -C4      -C9      -H36     : -50.563335
 P1      -C4      -C9      -H37     :  70.794764
 P1      -C4      -C9      -H76     :-169.411508
 P1      -C4      -C65     -H66     :-178.632439
 P1      -C4      -C65     -H67     : -60.135113
 P1      -C4      -C65     -H68     :  62.798882
 P1      -C5      -C10     -C11     :-176.710392
 P1      -C5      -C10     -H38     :   3.541983
 P1      -C5      -C14     -C13     : 175.574978
 P1      -C5      -C14     -C15     :  -6.964568
 C3      -P1      -C4      -C8      :  90.214806
 C3      -P1      -C4      -C9      :-155.458586
 C3      -P1      -C4      -C65     : -32.501313
 C3      -P1      -C5      -C10     :  53.368369
 C3      -P1      -C5      -C14     :-125.990832
 C4      -P1      -C3      -C6      :  63.159994
 C4      -P1      -C3      -C7      : -61.501583
 C4      -P1      -C3      -C69     :-175.587055
 C4      -P1      -C5      -C10     : -60.066270
 C4      -P1      -C5      -C14     : 120.574529
 C5      -P1      -C3      -C6      : -47.658557
 C5      -P1      -C3      -C7      :-172.320134
 C5      -P1      -C3      -C69     :  73.594394
 C5      -P1      -C4      -C8      :-159.007911
 C5      -P1      -C4      -C9      : -44.681302
 C5      -P1      -C4      -C65     :  78.275970
 C5      -C10     -C11     -C12     :   0.269074
 C5      -C10     -C11     -H39     :-179.968503
 C5      -C14     -C13     -C12     :   2.238885
 C5      -C14     -C13     -H41     :-178.520697
 C5      -C14     -C15     -C16     : -97.441031
 C5      -C14     -C15     -C20     :  91.102563
 C6      -C3      -C7      -H32     :-178.353055
 C6      -C3      -C7      -H33     : -56.296727
 C6      -C3      -C7      -H74     :  62.558954
 C6      -C3      -C69     -H70     : -58.110813
 C6      -C3      -C69     -H71     :  60.530928
 C6      -C3      -C69     -H72     :-177.762379
 C7      -C3      -C6      -H30     :  66.340716
 C7      -C3      -C6      -H31     :-170.756846
 C7      -C3      -C6      -H73     : -52.910735
 C7      -C3      -C69     -H70     :  59.196131
 C7      -C3      -C69     -H71     : 177.837871
 C7      -C3      -C69     -H72     : -60.455436
 C8      -C4      -C9      -H36     :  62.240006
 C8      -C4      -C9      -H37     :-176.401896
 C8      -C4      -C9      -H76     : -56.608167
 C8      -C4      -C65     -H66     :  60.529527
 C8      -C4      -C65     -H67     : 179.026853
 C8      -C4      -C65     -H68     : -58.039151
 C9      -C4      -C8      -H34     : 179.637302
 C9      -C4      -C8      -H35     : -59.401901
 C9      -C4      -C8      -H75     :  60.031522
 C9      -C4      -C65     -H66     : -56.461428
 C9      -C4      -C65     -H67     :  62.035898
 C9      -C4      -C65     -H68     :-175.030107
 C10     -C5      -C14     -C13     :  -3.807381
 C10     -C5      -C14     -C15     : 173.653073
 C10     -C11     -C12     -C13     :  -1.977453
 C10     -C11     -C12     -H40     : 178.866950
 C11     -C10     -C5      -C14     :   2.666073
 C11     -C12     -C13     -C14     :   0.714170
 C11     -C12     -C13     -H41     :-178.515870
 C12     -C11     -C10     -H38     :-179.981820
 C12     -C13     -C14     -C15     :-175.520762
 C13     -C12     -C11     -H39     : 178.261954
 C13     -C14     -C15     -C16     :  80.094914
 C13     -C14     -C15     -C20     : -91.361492
 C14     -C5      -C10     -H38     :-177.081553
 C14     -C13     -C12     -H40     : 179.875994
 C14     -C15     -C16     -C17     :-174.156662
 C14     -C15     -C16     -C23     :   3.063713
 C14     -C15     -C20     -C19     : 174.134752
 C14     -C15     -C20     -C21     :  -1.947948
 C15     -C14     -C13     -H41     :   3.719656
 C15     -C16     -C17     -C18     :   0.791235
 C15     -C16     -C17     -H42     :-179.710265
 C15     -C16     -C23     -C24     : 137.787464
 C15     -C16     -C23     -C27     : -98.594360
 C15     -C16     -C23     -H48     :  18.744787
 C15     -C20     -C19     -C18     :  -1.085237
 C15     -C20     -C19     -H43     : 179.761873
 C15     -C20     -C21     -C22     :  93.622907
 C15     -C20     -C21     -C26     :-141.938215
 C15     -C20     -C21     -H44     : -23.052586
 C16     -C15     -C20     -C19     :   2.646699
 C16     -C15     -C20     -C21     :-173.436001
 C16     -C17     -C18     -C19     :   0.786032
 C16     -C17     -C18     -C25     : 179.962939
 C16     -C23     -C24     -H49     :  71.846957
 C16     -C23     -C24     -H50     :-169.312321
 C16     -C23     -C24     -H51     : -48.855178
 C16     -C23     -C27     -H56     : -60.303929
 C16     -C23     -C27     -H57     :-179.899421
 C16     -C23     -C27     -H58     :  59.936388
 C17     -C16     -C15     -C20     :  -2.504218
 C17     -C16     -C23     -C24     : -44.965793
 C17     -C16     -C23     -C27     :  78.652382
 C17     -C16     -C23     -H48     :-164.008471
 C17     -C18     -C19     -C20     :  -0.639559
 C17     -C18     -C19     -H43     : 178.518279
 C17     -C18     -C25     -C28     :  63.385437
 C17     -C18     -C25     -C29     : -61.630854
 C17     -C18     -C25     -H52     :-179.126482
 C18     -C17     -C16     -C23     :-176.545097
 C18     -C19     -C20     -C21     : 175.114023
 C18     -C25     -C28     -H59     : -63.495448
 C18     -C25     -C28     -H60     : 176.880851
 C18     -C25     -C28     -H61     :  56.461064
 C18     -C25     -C29     -H62     :  63.625238
 C18     -C25     -C29     -H63     : -56.412883
 C18     -C25     -C29     -H64     :-176.802462
 C19     -C18     -C17     -H42     :-178.710725
 C19     -C18     -C25     -C28     :-117.465317
 C19     -C18     -C25     -C29     : 117.518393
 C19     -C18     -C25     -H52     :   0.022764
 C19     -C20     -C21     -C22     : -82.484758
 C19     -C20     -C21     -C26     :  41.954120
 C19     -C20     -C21     -H44     : 160.839749
 C20     -C15     -C16     -C23     : 174.716156
 C20     -C19     -C18     -C25     :-179.824464
 C20     -C21     -C22     -H45     :  60.753957
 C20     -C21     -C22     -H46     : -59.276542
 C20     -C21     -C22     -H47     :-179.439718
 C20     -C21     -C26     -H53     : -70.870564
 C20     -C21     -C26     -H54     : 170.266414
 C20     -C21     -C26     -H55     :  49.913930
 C21     -C20     -C19     -H43     :  -4.038867
 C22     -C21     -C26     -H53     :  53.767353
 C22     -C21     -C26     -H54     : -65.095669
 C22     -C21     -C26     -H55     : 174.551847
 C23     -C16     -C17     -H42     :   2.953403
 C24     -C23     -C27     -H56     :  65.463089
 C24     -C23     -C27     -H57     : -54.132403
 C24     -C23     -C27     -H58     :-174.296594
 C25     -C18     -C17     -H42     :   0.466182
 C25     -C18     -C19     -H43     :  -0.666626
 C26     -C21     -C22     -H45     : -65.452437
 C26     -C21     -C22     -H46     : 174.517063
 C26     -C21     -C22     -H47     :  54.353888
 C27     -C23     -C24     -H49     : -52.699681
 C27     -C23     -C24     -H50     :  66.141041
 C27     -C23     -C24     -H51     :-173.401815
 C28     -C25     -C29     -H62     : -61.861655
 C28     -C25     -C29     -H63     : 178.100223
 C28     -C25     -C29     -H64     :  57.710644
 C29     -C25     -C28     -H59     :  62.035932
 C29     -C25     -C28     -H60     : -57.587769
 C29     -C25     -C28     -H61     :-178.007556
 H30     -C6      -C3      -C69     :-177.377959
 H31     -C6      -C3      -C69     : -54.475522
 H32     -C7      -C3      -C69     :  65.555306
 H33     -C7      -C3      -C69     :-172.388365
 H34     -C8      -C4      -C65     :  62.154936
 H35     -C8      -C4      -C65     :-176.884267
 H36     -C9      -C4      -C65     :-179.809062
 H37     -C9      -C4      -C65     : -58.450964
 H38     -C10     -C11     -H39     :  -0.219397
 H39     -C11     -C12     -H40     :  -0.893643
 H40     -C12     -C13     -H41     :   0.645954
 H44     -C21     -C22     -H45     : 177.499872
 H44     -C21     -C22     -H46     :  57.469373
 H44     -C21     -C22     -H47     : -62.693803
 H44     -C21     -C26     -H53     : 170.484500
 H44     -C21     -C26     -H54     :  51.621478
 H44     -C21     -C26     -H55     : -68.731006
 H48     -C23     -C24     -H49     :-169.106808
 H48     -C23     -C24     -H50     : -50.266086
 H48     -C23     -C24     -H51     :  70.191057
 H48     -C23     -C27     -H56     :-177.883491
 H48     -C23     -C27     -H57     :  62.521017
 H48     -C23     -C27     -H58     : -57.643174
 H52     -C25     -C28     -H59     : 179.346198
 H52     -C25     -C28     -H60     :  59.722497
 H52     -C25     -C28     -H61     : -60.697290
 H52     -C25     -C29     -H62     :-179.190280
 H52     -C25     -C29     -H63     :  60.771598
 H52     -C25     -C29     -H64     : -59.617980
 C65     -C4      -C8      -H75     : -57.450844
 C65     -C4      -C9      -H76     :  61.342765
 C69     -C3      -C6      -H73     :  63.370590
 C69     -C3      -C7      -H74     : -53.532685
 
  nuclear repulsion energy.......    3398.359954750 hartrees
 
 Non-default options chosen:
   SCF calculation type: DFT(b3pw91-d3)              
   DFT=Becke_3_Parameter/HF+Slater+Becke88+PW91+PW-GGAIIC (B3PW91-D3)
   Geometry will be optimized in redundant internal coordinates
   Solvation energy will be computed using PBF
     -solute cavity energy will not be included
     -surface area terms will not be included
   Vibrational frequencies and related properties will be computed
      from analytic second derivatives
   IR intensities will be computed
   Thermochemical properties will be computed
   Scaling standard convergence criteria by a factor of   5.00
   Solvent: benzene                                                         
   Internal dielectric constant:    1.000
   Continuum dielectric constant:   2.283
   Solvent probe molecule radius:   2.600
  
 Non-default print settings:
     11=  2
  
 Temporary integer options set:
     73=  2
  
  atom       vdw   vdw2    cov     mass  grid  daf  charge   basis
  P1        2.147  2.074  1.060   30.974    Y    Y      Y    6-31g*
  C3        1.949  1.900  0.770   12.000    Y    Y      Y    6-31g*
  C4        1.949  1.900  0.770   12.000    Y    Y      Y    6-31g*
  C5        1.949  1.900  0.770   12.000    Y    Y      Y    6-31g*
  C6        1.949  1.900  0.770   12.000    Y    Y      Y    6-31g*
  C7        1.949  1.900  0.770   12.000    Y    Y      Y    6-31g*
  C8        1.949  1.900  0.770   12.000    Y    Y      Y    6-31g*
  C9        1.949  1.900  0.770   12.000    Y    Y      Y    6-31g*
  C10       1.949  1.900  0.770   12.000    Y    Y      Y    6-31g*
  C11       1.949  1.900  0.770   12.000    Y    Y      Y    6-31g*
  C12       1.949  1.900  0.770   12.000    Y    Y      Y    6-31g*
  C13       1.949  1.900  0.770   12.000    Y    Y      Y    6-31g*
  C14       1.949  1.900  0.770   12.000    Y    Y      Y    6-31g*
  C15       1.949  1.900  0.770   12.000    Y    Y      Y    6-31g*
  C16       1.949  1.900  0.770   12.000    Y    Y      Y    6-31g*
  C17       1.949  1.900  0.770   12.000    Y    Y      Y    6-31g*
  C18       1.949  1.900  0.770   12.000    Y    Y      Y    6-31g*
  C19       1.949  1.900  0.770   12.000    Y    Y      Y    6-31g*
  C20       1.949  1.900  0.770   12.000    Y    Y      Y    6-31g*
  C21       1.949  1.900  0.770   12.000    Y    Y      Y    6-31g*
  C22       1.949  1.900  0.770   12.000    Y    Y      Y    6-31g*
  C23       1.949  1.900  0.770   12.000    Y    Y      Y    6-31g*
  C24       1.949  1.900  0.770   12.000    Y    Y      Y    6-31g*
  C25       1.949  1.900  0.770   12.000    Y    Y      Y    6-31g*
  C26       1.949  1.900  0.770   12.000    Y    Y      Y    6-31g*
  C27       1.949  1.900  0.770   12.000    Y    Y      Y    6-31g*
  C28       1.949  1.900  0.770   12.000    Y    Y      Y    6-31g*
  C29       1.949  1.900  0.770   12.000    Y    Y      Y    6-31g*
  H30       1.597  1.150  0.320    1.008    Y    Y      Y    6-31g*
  H31       1.597  1.150  0.320    1.008    Y    Y      Y    6-31g*
  H32       1.597  1.150  0.320    1.008    Y    Y      Y    6-31g*
  H33       1.597  1.150  0.320    1.008    Y    Y      Y    6-31g*
  H34       1.597  1.150  0.320    1.008    Y    Y      Y    6-31g*
  H35       1.597  1.150  0.320    1.008    Y    Y      Y    6-31g*
  H36       1.597  1.150  0.320    1.008    Y    Y      Y    6-31g*
  H37       1.597  1.150  0.320    1.008    Y    Y      Y    6-31g*
  H38       1.597  1.150  0.320    1.008    Y    Y      Y    6-31g*
  H39       1.597  1.150  0.320    1.008    Y    Y      Y    6-31g*
  H40       1.597  1.150  0.320    1.008    Y    Y      Y    6-31g*
  H41       1.597  1.150  0.320    1.008    Y    Y      Y    6-31g*
  H42       1.597  1.150  0.320    1.008    Y    Y      Y    6-31g*
  H43       1.597  1.150  0.320    1.008    Y    Y      Y    6-31g*
  H44       1.597  1.150  0.320    1.008    Y    Y      Y    6-31g*
  H45       1.597  1.150  0.320    1.008    Y    Y      Y    6-31g*
  H46       1.597  1.150  0.320    1.008    Y    Y      Y    6-31g*
  H47       1.597  1.150  0.320    1.008    Y    Y      Y    6-31g*
  H48       1.597  1.150  0.320    1.008    Y    Y      Y    6-31g*
  H49       1.597  1.150  0.320    1.008    Y    Y      Y    6-31g*
  H50       1.597  1.150  0.320    1.008    Y    Y      Y    6-31g*
  H51       1.597  1.150  0.320    1.008    Y    Y      Y    6-31g*
  H52       1.597  1.150  0.320    1.008    Y    Y      Y    6-31g*
  H53       1.597  1.150  0.320    1.008    Y    Y      Y    6-31g*
  H54       1.597  1.150  0.320    1.008    Y    Y      Y    6-31g*
  H55       1.597  1.150  0.320    1.008    Y    Y      Y    6-31g*
  H56       1.597  1.150  0.320    1.008    Y    Y      Y    6-31g*
  H57       1.597  1.150  0.320    1.008    Y    Y      Y    6-31g*
  H58       1.597  1.150  0.320    1.008    Y    Y      Y    6-31g*
  H59       1.597  1.150  0.320    1.008    Y    Y      Y    6-31g*
  H60       1.597  1.150  0.320    1.008    Y    Y      Y    6-31g*
  H61       1.597  1.150  0.320    1.008    Y    Y      Y    6-31g*
  H62       1.597  1.150  0.320    1.008    Y    Y      Y    6-31g*
  H63       1.597  1.150  0.320    1.008    Y    Y      Y    6-31g*
  H64       1.597  1.150  0.320    1.008    Y    Y      Y    6-31g*
  C65       1.949  1.900  0.770   12.000    Y    Y      Y    6-31g*
  H66       1.597  1.150  0.320    1.008    Y    Y      Y    6-31g*
  H67       1.597  1.150  0.320    1.008    Y    Y      Y    6-31g*
  H68       1.597  1.150  0.320    1.008    Y    Y      Y    6-31g*
  C69       1.949  1.900  0.770   12.000    Y    Y      Y    6-31g*
  H70       1.597  1.150  0.320    1.008    Y    Y      Y    6-31g*
  H71       1.597  1.150  0.320    1.008    Y    Y      Y    6-31g*
  H72       1.597  1.150  0.320    1.008    Y    Y      Y    6-31g*
  H73       1.597  1.150  0.320    1.008    Y    Y      Y    6-31g*
  H74       1.597  1.150  0.320    1.008    Y    Y      Y    6-31g*
  H75       1.597  1.150  0.320    1.008    Y    Y      Y    6-31g*
  H76       1.597  1.150  0.320    1.008    Y    Y      Y    6-31g*
  
  end of program pre
   
 Time(pre)  user:        2.3  user+sys:        2.3  wallclock:        2.4
  
  start of program onee
  
  smallest eigenvalue of S:    3.226E-04
  number of canonical orbitals.....          512
  end of program onee
   
 Time(onee)  user:        0.3  user+sys:        0.3  wallclock:        0.3
  
  start of program hfig
  
  initial wavefunction generated automatically from atomic wavefunctions
 
  Irreducible     Total no   No of occupied orbitals 
  representation  orbitals   Shell_1  Shell_2    ...
  No Symm          512        117
  ------------------------
  Orbital occupation/shell    1.000
 
  end of program hfig
   
 Time(hfig)  user:        0.4  user+sys:        0.4  wallclock:        0.4
  
  start of program probe
  
  end of program probe
   
 Time(probe)  user:        0.2  user+sys:        0.2  wallclock:        0.2
  
  start of program grid
  
   grid     grid set  grid #  grid sym
  ------    --------  ------  --------
  coarse        0        0        1
  medium        2        1        1
  fine          0        0        1
  ultrafine     4        2        1
  charge       -1        3        1
  gradient      4        2        1
  density       0        0        1
  DFT-fine    -11        4        1
  DFT-med.    -10        5        1
  DFT-grad    -12        6        1
  DFT-der2     -8        7        1
  DFT-cphf     -9        8        1
  LMP2-enrg     4        2        1
  LMP2-grad     2        1        1
  DFT-cphf2   -15        9        1
  PBF-dens      0        0        1
  plotting      0        0        1
  Rel-grad    -17        0        1
  
  number of gridpoints: 
     atom        P1       C3       C4       C5       C6       C7       C8
  grid # 1      563       96       95      100       79       79       79
  grid # 2      563      348      346      362      270      270      269
  grid # 3       38        6        6        8        6        6        6
  grid # 4     4304     4304     4304     4304     4304     4304     4304
  grid # 5     1192     1192     1192     1192     1192     1192     1192
  grid # 6     8076     5226     5226     5226     5226     5226     5226
  grid # 7    22092    12650    12650    12650    12650    12650    12650
  grid # 8      634      688      688      688      688      688      688
  grid # 9      340      358      358      358      358      358      358
   
  number of gridpoints: 
     atom        C9      C10      C11      C12      C13      C14      C15
  grid # 1       79       95       96       96       95      100      100
  grid # 2      269      335      340      339      333      356      362
  grid # 3        6       15       34       34       15        7       15
  grid # 4     4304     4304     4304     4304     4304     4304     4304
  grid # 5     1192     1192     1192     1192     1192     1192     1192
  grid # 6     5226     5226     5226     5226     5226     5226     5226
  grid # 7    12650    12650    12650    12650    12650    12650    12650
  grid # 8      688      688      688      688      688      688      688
  grid # 9      358      358      358      358      358      358      358
   
  number of gridpoints: 
     atom       C16      C17      C18      C19      C20      C21      C22
  grid # 1       98       95      100       95       98       92       78
  grid # 2      362      345      364      345      362      315      270
  grid # 3       19       33       21       31       19        6        6
  grid # 4     4304     4304     4304     4304     4304     4304     4304
  grid # 5     1192     1192     1192     1192     1192     1192     1192
  grid # 6     5226     5226     5226     5226     5226     5226     5226
  grid # 7    12650    12650    12650    12650    12650    12650    12650
  grid # 8      688      688      688      688      688      688      688
  grid # 9      358      358      358      358      358      358      358
   
  number of gridpoints: 
     atom       C23      C24      C25      C26      C27      C28      C29
  grid # 1       90       79       91       79       77       78       78
  grid # 2      315      271      317      270      273      272      271
  grid # 3        6        6        6        6        6        6        6
  grid # 4     4304     4304     4304     4304     4304     4304     4304
  grid # 5     1192     1192     1192     1192     1192     1192     1192
  grid # 6     5226     5226     5226     5226     5226     5226     5226
  grid # 7    12650    12650    12650    12650    12650    12650    12650
  grid # 8      688      688      688      688      688      688      688
  grid # 9      358      358      358      358      358      358      358
   
  number of gridpoints: 
     atom       H30      H31      H32      H33      H34      H35      H36
  grid # 1      104      103      107      101      106      107       99
  grid # 2      408      417      429      414      418      433      403
  grid # 3      151      196      233      159      175      267       61
  grid # 4     4304     4304     4304     4304     4304     4304     4304
  grid # 5     1192     1192     1192     1192     1192     1192     1192
  grid # 6     5226     5226     5226     5226     5226     5226     5226
  grid # 7    13718    13718    13718    13718    13718    13718    13718
  grid # 8      744      744      744      744      744      744      744
  grid # 9      382      382      382      382      382      382      382
   
  number of gridpoints: 
     atom       H37      H38      H39      H40      H41      H42      H43
  grid # 1      105      106      118      118      109      104      107
  grid # 2      419      408      452      451      422      409      420
  grid # 3      167       95      420      407      169       85      149
  grid # 4     4304     4304     4304     4304     4304     4304     4304
  grid # 5     1192     1192     1192     1192     1192     1192     1192
  grid # 6     5226     5226     5226     5226     5226     5226     5226
  grid # 7    13718    13718    13718    13718    13718    13718    13718
  grid # 8      744      744      744      744      744      744      744
  grid # 9      382      382      382      382      382      382      382
   
  number of gridpoints: 
     atom       H44      H45      H46      H47      H48      H49      H50
  grid # 1      101      108      107      110      102      107      108
  grid # 2      401      438      427      437      406      425      430
  grid # 3       55      276      210      315       76      227      282
  grid # 4     4304     4304     4304     4304     4304     4304     4304
  grid # 5     1192     1192     1192     1192     1192     1192     1192
  grid # 6     5226     5226     5226     5226     5226     5226     5226
  grid # 7    13718    13718    13718    13718    13718    13718    13718
  grid # 8      744      744      744      744      744      744      744
  grid # 9      382      382      382      382      382      382      382
   
  number of gridpoints: 
     atom       H51      H52      H53      H54      H55      H56      H57
  grid # 1      106      107      106      107      107      107      110
  grid # 2      426      428      427      430      427      436      437
  grid # 3      210      220      237      268      233      260      319
  grid # 4     4304     4304     4304     4304     4304     4304     4304
  grid # 5     1192     1192     1192     1192     1192     1192     1192
  grid # 6     5226     5226     5226     5226     5226     5226     5226
  grid # 7    13718    13718    13718    13718    13718    13718    13718
  grid # 8      744      744      744      744      744      744      744
  grid # 9      382      382      382      382      382      382      382
   
  number of gridpoints: 
     atom       H58      H59      H60      H61      H62      H63      H64
  grid # 1      107      107      110      110      108      110      109
  grid # 2      426      431      439      444      430      444      439
  grid # 3      206      248      320      340      245      343      321
  grid # 4     4304     4304     4304     4304     4304     4304     4304
  grid # 5     1192     1192     1192     1192     1192     1192     1192
  grid # 6     5226     5226     5226     5226     5226     5226     5226
  grid # 7    13718    13718    13718    13718    13718    13718    13718
  grid # 8      744      744      744      744      744      744      744
  grid # 9      382      382      382      382      382      382      382
   
  number of gridpoints: 
     atom       C65      H66      H67      H68      C69      H70      H71
  grid # 1       77      109      102      101       79      108      104
  grid # 2      269      430      413      411      266      431      414
  grid # 3        6      272      172      161        6      262      150
  grid # 4     4304     4304     4304     4304     4304     4304     4304
  grid # 5     1192     1192     1192     1192     1192     1192     1192
  grid # 6     5226     5226     5226     5226     5226     5226     5226
  grid # 7    12650    13718    13718    13718    12650    13718    13718
  grid # 8      688      744      744      744      688      744      744
  grid # 9      358      382      382      382      358      382      382
   
  number of gridpoints: 
     atom       H72      H73      H74      H75      H76    total
  grid # 1      102      109      108      108      108     7943
  grid # 2      413      431      431      433      431    28818
  grid # 3      110      269      270      279      250    10531
  grid # 4     4304     4304     4304     4304     4304   322800
  grid # 5     1192     1192     1192     1192     1192    89400
  grid # 6     5226     5226     5226     5226     5226   394800
  grid # 7    13718    13718    13718    13718    13718  1006252
  grid # 8      744      744      744      744      744    54066
  grid # 9      382      382      382      382      382    27912
   
  end of program grid
   
 Time(grid)  user:       68.8  user+sys:       68.8  wallclock:       69.1
  
  start of program rwr
  
  end of program rwr
   
 Time(rwr)  user:        6.4  user+sys:        6.4  wallclock:        7.9
  
  start of program scf
  
 number of electrons..........        234
 number of alpha electrons....        117
 number of beta electrons.....        117
 number of orbitals, total....        512
 number of doubly-occ'd orbs..        117
 number of open shell orbs....          0
 number of occupied orbitals..        117
 number of virtual orbitals...        395
 number of hamiltonians.......          1
 number of shells.............          1
 SCF type: DFT=Becke_3_Parameter/HF+Slater+Becke88+PW91+PW-GGAIIC (B3PW91-D3)
 Energy computed with NOPS off.
 Convergence Criterion:
    Energy (econv):       1.00E-05
    RMS density (dconv):  5.00E-06
  
       i  u  d  i  g                   
       t  p  i  c  r                                 RMS    maximum
       e  d  i  u  i                       energy  density   DIIS  
       r  t  s  t  d       total energy    change  change    error 
  
etot    1  N  N  5  M   -1469.64308157850           3.3E-03  1.1E-01
etot    2  Y  Y  6  M   -1472.60348541063  3.0E+00  2.4E-03  3.6E-02
etot    3  Y  Y  6  M   -1472.83777997395  2.3E-01  1.1E-03  2.8E-02
etot    4  N  Y  2  U   -1473.03679418033  2.0E-01  5.6E-04  2.3E-02
etot    5  Y  Y  6  M   -1473.06799385139  3.1E-02  2.4E-04  1.4E-02
etot    6  N  Y  2  U   -1473.07017141072  2.2E-03  4.2E-04  9.2E-03
etot    7  Y  Y  6  M   -1473.07080869150  6.4E-04  1.0E-04  2.8E-03
etot    8  Y  Y  6  M   -1473.07283144068  2.0E-03  2.0E-05  5.7E-04
etot    9  N  Y  2  U   -1473.07311399486  2.8E-04  8.1E-06  2.2E-04
etot   10  N  Y  2  U   -1473.07311698801  3.0E-06  1.9E-06  3.2E-05
etot   11  N  N  2  U   -1473.07311734564  3.6E-07  0.0E+00  0.0E+00
 
  Computing the dispersion energy correction and its gradients...
  
  
 Energy components, in hartrees:
   (A)  Nuclear repulsion............    3398.35995474981
   (E)  Total one-electron terms.....   -8765.44756501179
   (F)    Electron-nuclear...........  -10229.12732642670
   (H)    Kinetic....................    1463.67976141490
   (I)  Total two-electron terms.....    3894.01449291635
   (J)    Coulomb....................    4091.01578576878
   (K)    Exchange+Correlation.......    -197.00129285243
   (L)  Electronic energy............   -4871.43307209545  (E+I)
   (M)  -V/T.........................       2.00641763054  (-(A+F+I)/H)
   (N0) D3 correction................      -0.11311887751
   (N)  Total energy.................   -1473.18623622315  (A+L+N0)
   (O)  Gas phase energy.............   -1473.18623622315
  
 SCFE: SCF energy: DFT(b3pw91-d3)     -1473.18623622315 hartrees   iterations:  11
  
 
 HOMO energy:    -0.20631
 LUMO energy:    -0.02458
 
  Orbital energies (hartrees): 
   -77.03006   -10.19167   -10.19089   -10.18951   -10.18604   -10.17901
   -10.17782   -10.17715   -10.17557   -10.17506   -10.17437   -10.17277
   -10.17121   -10.17040   -10.16848   -10.16824   -10.15825   -10.15756
   -10.15655   -10.15606   -10.15476   -10.15324   -10.15273   -10.15244
   -10.15233   -10.15197   -10.15171   -10.15078   -10.15008   -10.14992
    -6.53215    -4.69039    -4.68989    -4.68493    -0.86511    -0.84606
    -0.81305    -0.80521    -0.80362    -0.79825    -0.76798    -0.75831
    -0.74643    -0.71157    -0.70598    -0.68687    -0.68395    -0.67828
    -0.67748    -0.67736    -0.67452    -0.67380    -0.63450    -0.62073
    -0.61631    -0.59215    -0.58842    -0.57564    -0.54364    -0.54143
    -0.52754    -0.52020    -0.49880    -0.47905    -0.47310    -0.45610
    -0.45421    -0.45202    -0.44322    -0.44052    -0.43858    -0.43541
    -0.43117    -0.42947    -0.42508    -0.42388    -0.42139    -0.41368
    -0.41291    -0.40677    -0.39911    -0.39531    -0.39373    -0.38909
    -0.38377    -0.38047    -0.37934    -0.37863    -0.37543    -0.37268
    -0.36876    -0.36430    -0.36163    -0.35965    -0.35632    -0.35371
    -0.34795    -0.34145    -0.33829    -0.33540    -0.33370    -0.33078
    -0.32972    -0.32781    -0.32411    -0.32190    -0.31473    -0.31349
    -0.30273    -0.30036    -0.29294    -0.28242    -0.24921    -0.24519
    -0.22921    -0.22578    -0.20631    -0.02458    -0.01073     0.00439
     0.00825     0.06054     0.06952     0.07554     0.08416     0.09291
     0.10651
 
  end of program scf
   
 Time(scf)  user:      141.6  user+sys:      141.6  wallclock:      143.5
  
  start of program der1a
  
  end of program der1a
   
 Time(der1a)  user:        0.7  user+sys:        0.7  wallclock:        0.7
  
  start of program rwr
  
  end of program rwr
   
 Time(rwr)  user:        7.1  user+sys:        7.1  wallclock:        9.1
  
  start of program der1b
  
   
  forces (hartrees/bohr) : total     
   
 atom  label           x              y              z
 ---- --------   -------------  -------------  -------------
    1 P1         -9.041328E-04  -7.189386E-04  -5.722708E-03
    2 C3         -5.954966E-04  -9.952276E-05   1.070449E-03
    3 C4          7.964009E-04   1.058088E-03   8.078642E-04
    4 C5         -1.210991E-03   3.398110E-03  -1.654753E-03
    5 C6         -1.298597E-04   7.979733E-05  -8.070958E-04
    6 C7         -1.534093E-04  -8.182997E-04   3.823098E-05
    7 C8          2.989311E-04  -2.661732E-04   3.067089E-04
    8 C9         -8.913264E-04   1.163944E-03   2.538010E-04
    9 C10        -7.304194E-04   1.994594E-03   1.454831E-03
   10 C11         7.691041E-04  -4.644583E-05   4.984370E-03
   11 C12         1.346000E-03  -3.633615E-03   3.700010E-03
   12 C13         5.597064E-04  -2.905918E-03  -2.148916E-04
   13 C14        -1.022052E-04   2.206245E-05  -5.277906E-03
   14 C15        -4.970209E-04   2.646545E-03   4.583424E-03
   15 C16         3.333428E-03   1.083366E-03   1.986731E-03
   16 C17         2.246003E-03  -1.033938E-04  -1.456964E-03
   17 C18         1.403755E-04  -1.620492E-03  -4.833653E-03
   18 C19        -2.867806E-03  -1.002595E-03  -1.518206E-03
   19 C20        -3.764752E-03  -2.166128E-04   1.161828E-03
   20 C21        -2.377611E-04  -1.431915E-03  -2.289419E-03
   21 C22        -5.124145E-04   2.292392E-04   5.109560E-05
   22 C23         8.068549E-04  -7.904194E-04  -1.913114E-03
   23 C24        -1.443016E-04  -3.392333E-04   6.889330E-04
   24 C25         1.201374E-03   3.403887E-04   1.279590E-04
   25 C26         6.408282E-04  -4.003555E-04   2.288068E-04
   26 C27         3.927580E-04   6.403905E-04  -3.717528E-05
   27 C28        -4.593767E-04  -5.254141E-04  -3.557995E-05
   28 C29        -6.075986E-04   1.586698E-04  -2.294327E-04
   29 H30         3.812551E-03   4.208441E-03   2.206887E-03
   30 H31         1.061535E-03  -4.757301E-03   3.384855E-03
   31 H32         1.658489E-04  -4.651891E-04  -5.664874E-03
   32 H33         2.724865E-03   5.029082E-03   1.223893E-03
   33 H34        -5.183029E-03   2.525750E-03  -3.820112E-04
   34 H35         4.110871E-04  -2.784137E-03  -4.993578E-03
   35 H36         1.042102E-03  -3.323206E-03  -4.994188E-03
   36 H37         1.454632E-03  -2.887597E-03   4.467766E-03
   37 H38        -1.624154E-03   5.765009E-03   2.820948E-03
   38 H39         6.705158E-04   9.753453E-04   6.055236E-03
   39 H40         1.728318E-03  -4.663780E-03   3.643049E-03
   40 H41         1.535382E-03  -5.736901E-03  -2.081049E-03
   41 H42         5.729181E-03   4.772292E-04  -2.927875E-03
   42 H43        -5.310236E-03  -2.366599E-03  -3.111244E-03
   43 H44        -1.731904E-04   3.404739E-03   4.502648E-03
   44 H45         1.921466E-04  -4.136975E-03  -3.775985E-03
   45 H46         3.803558E-03  -1.673924E-03   3.674234E-03
   46 H47        -4.954346E-03  -1.190539E-03   2.913650E-03
   47 H48        -1.203284E-03   3.064389E-03   4.494797E-03
   48 H49         2.596122E-03  -2.733558E-03  -4.463032E-03
   49 H50         4.613045E-03   2.412920E-03   2.696111E-03
   50 H51        -2.667304E-03   4.614247E-03  -2.309759E-03
   51 H52        -5.522590E-03  -1.871343E-03  -1.284506E-03
   52 H53        -9.343733E-04  -3.916352E-03  -4.417665E-03
   53 H54        -5.065005E-03  -2.109840E-04   2.793164E-03
   54 H55        -8.624854E-05   5.226181E-03  -2.724979E-03
   55 H56         1.810242E-03  -3.572572E-03  -4.091141E-03
   56 H57         5.117719E-03   1.489403E-03   2.574260E-03
   57 H58        -2.341665E-03  -3.567293E-03   3.878715E-03
   58 H59         5.217774E-03   2.288221E-03   7.405168E-04
   59 H60         7.596137E-05  -1.590376E-03  -5.563679E-03
   60 H61        -3.525959E-03   4.532629E-03  -9.185108E-05
   61 H62         5.552995E-03   1.120175E-03   1.179869E-03
   62 H63        -1.170253E-03  -4.683659E-03   3.158893E-03
   63 H64         2.325647E-04  -2.194007E-03  -5.343623E-03
   64 C65         2.096057E-04  -3.909946E-04  -8.577105E-04
   65 H66         4.280638E-03   4.225849E-03   3.033492E-06
   66 H67         8.047347E-04  -2.927467E-03   5.341908E-03
   67 H68        -4.810787E-03   3.258297E-03   6.936635E-04
   68 C69         3.566011E-04   1.217452E-03   1.321656E-04
   69 H70        -5.407711E-03   1.725719E-03   1.779597E-03
   70 H71         9.759603E-04  -4.643867E-03   2.777353E-03
   71 H72        -4.298058E-04  -1.078682E-03  -5.764694E-03
   72 H73        -5.392026E-03   1.811882E-03   1.583548E-03
   73 H74        -5.511253E-03   9.369467E-04   1.329929E-03
   74 H75         3.990263E-03   4.207914E-03  -1.131180E-04
   75 H76         3.966888E-03   4.388204E-03  -3.148629E-04
 -------------   -------------  -------------  -------------
     total        1.542508E-03  -5.654285E-04   2.334079E-04
   
  end of program der1b
   
 Time(der1b)  user:       58.8  user+sys:       58.8  wallclock:       59.1
  
  start of program geopt
  
 ----------------------------------------------------------------------------
  Geometry optimization step   1
  Total energy:     -1473.18623622315 hartrees
 ----------------------------------------------------------------------------
  
  gradient maximum:        1.8538E-02 .  (  2.2500E-03 )
  gradient rms:            4.9487E-03 .  (  1.5000E-03 )
  displacement maximum:    1.0543E-01 .  (  9.0000E-03 )
  displacement rms:        1.8200E-02 .  (  6.0000E-03 )
  
  predicted energy change:  -9.5975E-03
  step size:     0.27722
  trust radius:  0.30000
  
  molecular structure not yet converged...
  
  center of mass moved by:
     x:    -3.1652E-02     y:    -1.1924E-02     z:     1.4701E-02
  
  new geometry: 
                                   angstroms
  atom               x                 y                 z
  P1           -0.2232066242      0.2434349216      0.1235015375 
  C3            1.5044141210     -0.1216898126     -0.6158665593 
  C4           -1.3558843939     -1.2514773821     -0.2547246382 
  C5           -0.8983454860      1.5466896087     -1.0018047573 
  C6            1.6777982216     -0.2680651249     -2.1295705183 
  C7            2.0107233578     -1.3930975543      0.0784089734 
  C8           -1.2268558095     -2.1882107899      0.9565656875 
  C9           -2.7843656416     -0.7030739347     -0.2840416298 
  C10          -1.0711829421      1.3337760254     -2.3747918740 
  C11          -1.5153815592      2.3330629210     -3.2286130345 
  C12          -1.7961167051      3.5924431533     -2.7141454124 
  C13          -1.6636163134      3.8118564658     -1.3518252748 
  C14          -1.2425015488      2.8057917258     -0.4760576633 
  C15          -1.2421483897      3.1663526863      0.9740755641 
  C16          -2.4569743306      3.1792346267      1.6806595244 
  C17          -2.4686415436      3.6334540382      2.9957161876 
  C18          -1.3163710369      4.0824094458      3.6326447140 
  C19          -0.1317878583      4.0783715954      2.9061787343 
  C20          -0.0747055710      3.6330694681      1.5879767133 
  C21           1.2186376413      3.7296890349      0.8072946057 
  C22           1.3862189640      5.1415245315      0.2362267588 
  C23          -3.7636366089      2.7667838800      1.0281343420 
  C24          -4.6440652433      1.9070238438      1.9399643629 
  C25          -1.3504180151      4.5735513465      5.0626354589 
  C26           2.4509668002      3.3231274834      1.6146152172 
  C27          -4.5461865775      3.9996304317      0.5632178548 
  C28          -1.7684222733      3.4572372855      6.0231327636 
  C29          -2.2635330618      5.7930641708      5.2134720833 
  H30           1.0418147608     -1.0420883586     -2.5646163649 
  H31           1.4844225612      0.6755114275     -2.6484025365 
  H32           1.8761042012     -1.3429561993      1.1653546995 
  H33           1.5085629179     -2.2935319823     -0.2898219721 
  H34          -0.2269169265     -2.6231284502      1.0458474442 
  H35          -1.4471296433     -1.6587288966      1.8899670609 
  H36          -2.9980580172     -0.1113573259      0.6104115487 
  H37          -2.9613029028     -0.0719234854     -1.1615371740 
  H38          -0.8588991204      0.3551664258     -2.7875782128 
  H39          -1.6368465705      2.1265218977     -4.2889589950 
  H40          -2.1293083339      4.3970765735     -3.3644351916 
  H41          -1.9023059829      4.7871731108     -0.9353653675 
  H42          -3.4105900741      3.6443533917      3.5385828646 
  H43           0.7735101281      4.4466947484      3.3825942829 
  H44           1.1367302953      3.0424620904     -0.0404677264 
  H45           1.4268537725      5.8812789058      1.0453354767 
  H46           0.5491410496      5.4019973191     -0.4203392808 
  H47           2.3138365206      5.2166437511     -0.3448562897 
  H48          -3.5213496350      2.1766195146      0.1377456689 
  H49          -5.1018375688      2.5024572594      2.7389044178 
  H50          -5.4594716137      1.4577344487      1.3609241436 
  H51          -4.0745268085      1.1013696420      2.4144742457 
  H52          -0.3295826796      4.8826776978      5.3288560317 
  H53           2.7124835052      4.0771137416      2.3665243307 
  H54           3.3165306235      3.2122538845      0.9509704586 
  H55           2.2893567652      2.3728128905      2.1341427193 
  H56          -4.7787201695      4.6510165513      1.4147696760 
  H57          -5.4915031880      3.7004517730      0.0934489220 
  H58          -3.9746840635      4.5841000981     -0.1643979482 
  H59          -2.7916003387      3.1224738140      5.8126885030 
  H60          -1.7368853158      3.8068306021      7.0624511262 
  H61          -1.1066935505      2.5894486130      5.9290825155 
  H62          -3.3042221804      5.5362345086      4.9808597548 
  H63          -1.9586325792      6.5992302270      4.5372859413 
  H64          -2.2354522014      6.1741623142      6.2416976064 
  C65          -1.1092961216     -2.0435114918     -1.5373081189 
  H66          -1.8563791996     -2.8471950771     -1.6141306459 
  H67          -1.2115189332     -1.4218837442     -2.4326826998 
  H68          -0.1232993042     -2.5172243384     -1.5528392662 
  C69           2.3789684742      1.0552776153     -0.1661037661 
  H70           3.4252034330      0.8660186662     -0.4449407256 
  H71           2.0722829645      1.9881765893     -0.6522689560 
  H72           2.3387833408      1.2020506180      0.9172296178 
  H73           2.7209287580     -0.5445128798     -2.3421269996 
  H74           3.0845489127     -1.5148670856     -0.1210795645 
  H75          -1.9408086049     -3.0182812143      0.8580381212 
  H76          -3.5011076274     -1.5357463175     -0.3120850913 
   
 
  bond lengths (angstroms):
 
 P1      -C3      :   1.914329      P1      -C4      :   1.913316
 P1      -C5      :   1.849486      C3      -C6      :   1.530617
 C3      -C7      :   1.534550      C3      -C69     :   1.533748
 C4      -C8      :   1.536666      C4      -C9      :   1.530413
 C4      -C65     :   1.527463      C5      -C10     :   1.400107
 C5      -C14     :   1.407193      C6      -H30     :   1.092178
 C6      -H31     :   1.094037      C6      -H73     :   1.099875
 C7      -H32     :   1.096398      C7      -H33     :   1.094779
 C7      -H74     :   1.098965      C8      -H34     :   1.094076
 C8      -H35     :   1.095495      C8      -H75     :   1.099297
 C9      -H36     :   1.093544      C9      -H37     :   1.095288
 C9      -H76     :   1.099022      C10     -C11     :   1.387407
 C10     -H38     :   1.083113      C11     -C12     :   1.389074
 C11     -H39     :   1.087082      C12     -C13     :   1.386223
 C12     -H40     :   1.086889      C13     -C14     :   1.398740
 C13     -H41     :   1.087039      C14     -C15     :   1.494286
 C15     -C16     :   1.405428      C15     -C20     :   1.399150
 C16     -C17     :   1.391339      C16     -C23     :   1.517653
 C17     -C18     :   1.391031      C17     -H42     :   1.087240
 C18     -C19     :   1.389607      C18     -C25     :   1.512367
 C19     -C20     :   1.392555      C19     -H43     :   1.087289
 C20     -C21     :   1.513782      C21     -C22     :   1.532149
 C21     -C26     :   1.528298      C21     -H44     :   1.094391
 C22     -H45     :   1.097062      C22     -H46     :   1.095274
 C22     -H47     :   1.097167      C23     -C24     :   1.531593
 C23     -C27     :   1.532463      C23     -H48     :   1.095349
 C24     -H49     :   1.096541      C24     -H50     :   1.096374
 C24     -H51     :   1.094812      C25     -C28     :   1.530830
 C25     -C29     :   1.530929      C25     -H52     :   1.099335
 C26     -H53     :   1.096473      C26     -H54     :   1.096320
 C26     -H55     :   1.095045      C27     -H56     :   1.097049
 C27     -H57     :   1.097185      C27     -H58     :   1.094370
 C28     -H59     :   1.096926      C28     -H60     :   1.096993
 C28     -H61     :   1.095348      C29     -H62     :   1.096861
 C29     -H63     :   1.095489      C29     -H64     :   1.096938
 C65     -H66     :   1.099974      C65     -H67     :   1.094790
 C65     -H68     :   1.093999      C69     -H70     :   1.099171
 C69     -H71     :   1.095771      C69     -H72     :   1.093969
 
  bond angles:
 
 C4      -P1      -C3      : 107.992081  C5      -P1      -C3      : 103.228873
 C5      -P1      -C4      : 102.367559  C6      -C3      -P1      : 120.160891
 C7      -C3      -P1      : 106.322587  C7      -C3      -C6      : 109.318711
 C69     -C3      -P1      : 104.771827  C69     -C3      -C6      : 107.385432
 C69     -C3      -C7      : 108.359858  C8      -C4      -P1      : 105.709011
 C9      -C4      -P1      : 106.044199  C9      -C4      -C8      : 108.174498
 C65     -C4      -P1      : 118.395590  C65     -C4      -C8      : 109.404926
 C65     -C4      -C9      : 108.687542  C10     -C5      -P1      : 122.314295
 C14     -C5      -P1      : 119.502119  C14     -C5      -C10     : 118.180597
 H30     -C6      -C3      : 113.312077  H31     -C6      -C3      : 111.499568
 H31     -C6      -H30     : 108.626903  H73     -C6      -C3      : 108.819590
 H73     -C6      -H30     : 107.287052  H73     -C6      -H31     : 107.023526
 H32     -C7      -C3      : 111.723469  H33     -C7      -C3      : 112.205412
 H33     -C7      -H32     : 108.345576  H74     -C7      -C3      : 109.394383
 H74     -C7      -H32     : 107.758215  H74     -C7      -H33     : 107.217740
 H34     -C8      -C4      : 112.543907  H35     -C8      -C4      : 111.107033
 H35     -C8      -H34     : 107.840825  H75     -C8      -C4      : 109.579362
 H75     -C8      -H34     : 107.501522  H75     -C8      -H35     : 108.103418
 H36     -C9      -C4      : 111.138561  H37     -C9      -C4      : 111.877303
 H37     -C9      -H36     : 108.175244  H76     -C9      -C4      : 109.738155
 H76     -C9      -H36     : 107.661549  H76     -C9      -H37     : 108.107002
 C11     -C10     -C5      : 122.241017  H38     -C10     -C5      : 119.139106
 H38     -C10     -C11     : 118.618382  C12     -C11     -C10     : 119.326516
 H39     -C11     -C10     : 119.947134  H39     -C11     -C12     : 120.725995
 C13     -C12     -C11     : 119.220125  H40     -C12     -C11     : 120.767221
 H40     -C12     -C13     : 120.007378  C14     -C13     -C12     : 122.022115
 H41     -C13     -C12     : 119.836950  H41     -C13     -C14     : 118.136696
 C13     -C14     -C5      : 118.899740  C15     -C14     -C5      : 125.339259
 C15     -C14     -C13     : 115.729892  C16     -C15     -C14     : 119.334376
 C20     -C15     -C14     : 120.430194  C20     -C15     -C16     : 119.840384
 C17     -C16     -C15     : 119.040630  C23     -C16     -C15     : 121.705810
 C23     -C16     -C17     : 119.201724  C18     -C17     -C16     : 122.086407
 H42     -C17     -C16     : 118.846817  H42     -C17     -C18     : 119.065027
 C19     -C18     -C17     : 117.763884  C25     -C18     -C17     : 121.272397
 C25     -C18     -C19     : 120.960345  C20     -C19     -C18     : 122.055780
 H43     -C19     -C18     : 118.667236  H43     -C19     -C20     : 119.272738
 C19     -C20     -C15     : 119.196386  C21     -C20     -C15     : 120.524044
 C21     -C20     -C19     : 120.184917  C22     -C21     -C20     : 110.150246
 C26     -C21     -C20     : 113.547864  C26     -C21     -C22     : 110.721654
 H44     -C21     -C20     : 107.185833  H44     -C21     -C22     : 107.343616
 H44     -C21     -C26     : 107.608000  H45     -C22     -C21     : 110.518732
 H46     -C22     -C21     : 111.037470  H46     -C22     -H45     : 108.062802
 H47     -C22     -C21     : 110.668880  H47     -C22     -H45     : 108.247663
 H47     -C22     -H46     : 108.203517  C24     -C23     -C16     : 113.048579
 C27     -C23     -C16     : 110.576712  C27     -C23     -C24     : 109.795923
 H48     -C23     -C16     : 107.787404  H48     -C23     -C24     : 107.977887
 H48     -C23     -C27     : 107.445187  H49     -C24     -C23     : 111.649741
 H50     -C24     -C23     : 110.068361  H50     -C24     -H49     : 107.268066
 H51     -C24     -C23     : 111.843879  H51     -C24     -H49     : 107.516437
 H51     -C24     -H50     : 108.315150  C28     -C25     -C18     : 111.259496
 C29     -C25     -C18     : 111.424697  C29     -C25     -C28     : 110.867218
 H52     -C25     -C18     : 107.420839  H52     -C25     -C28     : 107.858598
 H52     -C25     -C29     : 107.818399  H53     -C26     -C21     : 111.816554
 H54     -C26     -C21     : 110.105800  H54     -C26     -H53     : 107.238516
 H55     -C26     -C21     : 111.252561  H55     -C26     -H53     : 107.855425
 H55     -C26     -H54     : 108.417986  H56     -C27     -C23     : 110.513238
 H57     -C27     -C23     : 110.517557  H57     -C27     -H56     : 108.157357
 H58     -C27     -C23     : 111.388439  H58     -C27     -H56     : 108.039245
 H58     -C27     -H57     : 108.113217  H59     -C28     -C25     : 110.908250
 H60     -C28     -C25     : 110.744888  H60     -C28     -H59     : 107.808421
 H61     -C28     -C25     : 111.032063  H61     -C28     -H59     : 107.773571
 H61     -C28     -H60     : 108.448853  H62     -C29     -C25     : 111.007247
 H63     -C29     -C25     : 111.062321  H63     -C29     -H62     : 107.787061
 H64     -C29     -C25     : 110.722071  H64     -C29     -H62     : 107.723484
 H64     -C29     -H63     : 108.408621  H66     -C65     -C4      : 109.138715
 H67     -C65     -C4      : 112.162636  H67     -C65     -H66     : 107.117065
 H68     -C65     -C4      : 112.454400  H68     -C65     -H66     : 107.143527
 H68     -C65     -H67     : 108.566720  H70     -C69     -C3      : 109.647111
 H71     -C69     -C3      : 111.322920  H71     -C69     -H70     : 107.484137
 H72     -C69     -C3      : 111.863927  H72     -C69     -H70     : 108.015749
 H72     -C69     -H71     : 108.352131
 
  torsional angles:
 
 P1      -C3      -C6      -H30     : -56.753033
 P1      -C3      -C6      -H31     :  66.172334
 P1      -C3      -C6      -H73     :-176.008948
 P1      -C3      -C7      -H32     : -47.138299
 P1      -C3      -C7      -H33     :  74.771767
 P1      -C3      -C7      -H74     :-166.369284
 P1      -C3      -C69     -H70     : 173.119958
 P1      -C3      -C69     -H71     : -68.076087
 P1      -C3      -C69     -H72     :  53.311260
 P1      -C4      -C8      -H34     : -66.789091
 P1      -C4      -C8      -H35     :  54.262827
 P1      -C4      -C8      -H75     : 173.657044
 P1      -C4      -C9      -H36     : -50.642313
 P1      -C4      -C9      -H37     :  70.397387
 P1      -C4      -C9      -H76     :-169.609872
 P1      -C4      -C65     -H66     :-178.641379
 P1      -C4      -C65     -H67     : -60.102257
 P1      -C4      -C65     -H68     :  62.605762
 P1      -C5      -C10     -C11     :-176.746648
 P1      -C5      -C10     -H38     :   3.704467
 P1      -C5      -C14     -C13     : 175.591968
 P1      -C5      -C14     -C15     :  -6.528598
 C3      -P1      -C4      -C8      :  91.800764
 C3      -P1      -C4      -C9      :-153.488926
 C3      -P1      -C4      -C65     : -31.181838
 C3      -P1      -C5      -C10     :  59.409163
 C3      -P1      -C5      -C14     :-119.950129
 C4      -P1      -C3      -C6      :  64.165769
 C4      -P1      -C3      -C7      : -60.505465
 C4      -P1      -C3      -C69     :-175.128820
 C4      -P1      -C5      -C10     : -52.701097
 C4      -P1      -C5      -C14     : 127.939612
 C5      -P1      -C3      -C6      : -43.753659
 C5      -P1      -C3      -C7      :-168.424893
 C5      -P1      -C3      -C69     :  76.951752
 C5      -P1      -C4      -C8      :-159.685289
 C5      -P1      -C4      -C9      : -44.974979
 C5      -P1      -C4      -C65     :  77.332109
 C5      -C10     -C11     -C12     :   0.244819
 C5      -C10     -C11     -H39     :-179.970478
 C5      -C14     -C13     -C12     :   2.271070
 C5      -C14     -C13     -H41     :-178.479688
 C5      -C14     -C15     -C16     :-100.047435
 C5      -C14     -C15     -C20     :  87.177794
 C6      -C3      -C7      -H32     :-178.242450
 C6      -C3      -C7      -H33     : -56.332384
 C6      -C3      -C7      -H74     :  62.526565
 C6      -C3      -C69     -H70     : -58.048153
 C6      -C3      -C69     -H71     :  60.755801
 C6      -C3      -C69     -H72     :-177.856852
 C7      -C3      -C6      -H30     :  66.487663
 C7      -C3      -C6      -H31     :-170.586970
 C7      -C3      -C6      -H73     : -52.768251
 C7      -C3      -C69     -H70     :  59.931840
 C7      -C3      -C69     -H71     : 178.735794
 C7      -C3      -C69     -H72     : -59.876859
 C8      -C4      -C9      -H36     :  62.369955
 C8      -C4      -C9      -H37     :-176.590344
 C8      -C4      -C9      -H76     : -56.597603
 C8      -C4      -C65     -H66     :  60.244352
 C8      -C4      -C65     -H67     : 178.783473
 C8      -C4      -C65     -H68     : -58.508507
 C9      -C4      -C8      -H34     : 179.975393
 C9      -C4      -C8      -H35     : -58.972688
 C9      -C4      -C8      -H75     :  60.421528
 C9      -C4      -C65     -H66     : -57.676263
 C9      -C4      -C65     -H67     :  60.862858
 C9      -C4      -C65     -H68     :-176.429122
 C10     -C5      -C14     -C13     :  -3.793735
 C10     -C5      -C14     -C15     : 174.085699
 C10     -C11     -C12     -C13     :  -1.877378
 C10     -C11     -C12     -H40     : 178.958193
 C11     -C10     -C5      -C14     :   2.620731
 C11     -C12     -C13     -C14     :   0.618922
 C11     -C12     -C13     -H41     :-178.617874
 C12     -C11     -C10     -H38     : 179.795960
 C12     -C13     -C14     -C15     :-175.808786
 C13     -C12     -C11     -H39     : 178.339639
 C13     -C14     -C15     -C16     :  77.891777
 C13     -C14     -C15     -C20     : -94.882994
 C14     -C5      -C10     -H38     :-176.928155
 C14     -C13     -C12     -H40     : 179.789824
 C14     -C15     -C16     -C17     :-174.149171
 C14     -C15     -C16     -C23     :   3.210664
 C14     -C15     -C20     -C19     : 174.103933
 C14     -C15     -C20     -C21     :  -2.365346
 C15     -C14     -C13     -H41     :   3.440456
 C15     -C16     -C17     -C18     :   0.337834
 C15     -C16     -C17     -H42     : 179.851929
 C15     -C16     -C23     -C24     : 138.386950
 C15     -C16     -C23     -C27     : -98.049560
 C15     -C16     -C23     -H48     :  19.127343
 C15     -C20     -C19     -C18     :  -0.408842
 C15     -C20     -C19     -H43     :-179.648946
 C15     -C20     -C21     -C22     :  94.264786
 C15     -C20     -C21     -C26     :-140.911760
 C15     -C20     -C21     -H44     : -22.213957
 C16     -C15     -C20     -C19     :   1.365679
 C16     -C15     -C20     -C21     :-175.103600
 C16     -C17     -C18     -C19     :   0.602531
 C16     -C17     -C18     -C25     : 179.940399
 C16     -C23     -C24     -H49     :  73.294288
 C16     -C23     -C24     -H50     :-167.691600
 C16     -C23     -C24     -H51     : -47.235482
 C16     -C23     -C27     -H56     : -60.199503
 C16     -C23     -C27     -H57     :-179.887751
 C16     -C23     -C27     -H58     :  59.908297
 C17     -C16     -C15     -C20     :  -1.331125
 C17     -C16     -C23     -C24     : -44.257356
 C17     -C16     -C23     -C27     :  79.306134
 C17     -C16     -C23     -H48     :-163.516964
 C17     -C18     -C19     -C20     :  -0.568180
 C17     -C18     -C19     -H43     : 178.676357
 C17     -C18     -C25     -C28     :  62.930989
 C17     -C18     -C25     -C29     : -61.350162
 C17     -C18     -C25     -H52     :-179.231610
 C18     -C17     -C16     -C23     :-177.089039
 C18     -C19     -C20     -C21     : 176.072670
 C18     -C25     -C28     -H59     : -63.466421
 C18     -C25     -C28     -H60     : 176.877742
 C18     -C25     -C28     -H61     :  56.334552
 C18     -C25     -C29     -H62     :  63.618550
 C18     -C25     -C29     -H63     : -56.285146
 C18     -C25     -C29     -H64     :-176.782449
 C19     -C18     -C17     -H42     :-178.910539
 C19     -C18     -C25     -C28     :-117.752263
 C19     -C18     -C25     -C29     : 117.966586
 C19     -C18     -C25     -H52     :   0.085138
 C19     -C20     -C21     -C22     : -82.169543
 C19     -C20     -C21     -C26     :  42.653911
 C19     -C20     -C21     -H44     : 161.351714
 C20     -C15     -C16     -C23     : 176.028710
 C20     -C19     -C18     -C25     :-179.908221
 C20     -C21     -C22     -H45     :  60.988560
 C20     -C21     -C22     -H46     : -58.922168
 C20     -C21     -C22     -H47     :-179.109072
 C20     -C21     -C26     -H53     : -72.602974
 C20     -C21     -C26     -H54     : 168.288498
 C20     -C21     -C26     -H55     :  48.065000
 C21     -C20     -C19     -H43     :  -3.167434
 C22     -C21     -C26     -H53     :  51.912643
 C22     -C21     -C26     -H54     : -67.195885
 C22     -C21     -C26     -H55     : 172.580617
 C23     -C16     -C17     -H42     :   2.425056
 C24     -C23     -C27     -H56     :  65.221679
 C24     -C23     -C27     -H57     : -54.466570
 C24     -C23     -C27     -H58     :-174.670522
 C25     -C18     -C17     -H42     :   0.427329
 C25     -C18     -C19     -H43     :  -0.663685
 C26     -C21     -C22     -H45     : -65.439343
 C26     -C21     -C22     -H46     : 174.649929
 C26     -C21     -C22     -H47     :  54.463025
 C27     -C23     -C24     -H49     : -50.698371
 C27     -C23     -C24     -H50     :  68.315741
 C27     -C23     -C24     -H51     :-171.228141
 C28     -C25     -C29     -H62     : -60.883317
 C28     -C25     -C29     -H63     : 179.212987
 C28     -C25     -C29     -H64     :  58.715683
 C29     -C25     -C28     -H59     :  61.129195
 C29     -C25     -C28     -H60     : -58.526641
 C29     -C25     -C28     -H61     :-179.069832
 H30     -C6      -C3      -C69     :-176.156336
 H31     -C6      -C3      -C69     : -53.230969
 H32     -C7      -C3      -C69     :  65.016960
 H33     -C7      -C3      -C69     :-173.072973
 H34     -C8      -C4      -C65     :  61.734310
 H35     -C8      -C4      -C65     :-177.213771
 H36     -C9      -C4      -C65     :-178.932239
 H37     -C9      -C4      -C65     : -57.892539
 H38     -C10     -C11     -H39     :  -0.419337
 H39     -C11     -C12     -H40     :  -0.824790
 H40     -C12     -C13     -H41     :   0.553028
 H44     -C21     -C22     -H45     : 177.368645
 H44     -C21     -C22     -H46     :  57.457916
 H44     -C21     -C22     -H47     : -62.728988
 H44     -C21     -C26     -H53     : 168.942070
 H44     -C21     -C26     -H54     :  49.833542
 H44     -C21     -C26     -H55     : -70.389956
 H48     -C23     -C24     -H49     :-167.556055
 H48     -C23     -C24     -H50     : -48.541943
 H48     -C23     -C24     -H51     :  71.914175
 H48     -C23     -C27     -H56     :-177.587100
 H48     -C23     -C27     -H57     :  62.724652
 H48     -C23     -C27     -H58     : -57.479300
 H52     -C25     -C28     -H59     : 178.961260
 H52     -C25     -C28     -H60     :  59.305424
 H52     -C25     -C28     -H61     : -61.237767
 H52     -C25     -C29     -H62     :-178.739872
 H52     -C25     -C29     -H63     :  61.356432
 H52     -C25     -C29     -H64     : -59.140872
 C65     -C4      -C8      -H75     : -57.819554
 C65     -C4      -C9      -H76     :  62.100202
 C69     -C3      -C6      -H73     :  64.587750
 C69     -C3      -C7      -H74     : -54.214024
 
  nuclear repulsion energy.......    3466.986281906 hartrees
  -------------------------------------------------
 /  end of geometry optimization iteration   1   /
 -------------------------------------------------
   
  end of program geopt
   
 Time(geopt)  user:        0.3  user+sys:        0.3  wallclock:        0.3
  
  start of program onee
  
  smallest eigenvalue of S:    2.752E-04
  number of canonical orbitals.....          512
  end of program onee
   
 Time(onee)  user:        0.3  user+sys:        0.3  wallclock:        0.3
  
  start of program probe
  
  end of program probe
   
 Time(probe)  user:        0.2  user+sys:        0.2  wallclock:        0.2
  
  start of program grid
  
   grid     grid set  grid #  grid sym
  ------    --------  ------  --------
  coarse        0        0        1
  medium        2        1        1
  fine          0        0        1
  ultrafine     4        2        1
  charge       -1        3        1
  gradient      4        2        1
  density       0        0        1
  DFT-fine    -11        4        1
  DFT-med.    -10        5        1
  DFT-grad    -12        6        1
  DFT-der2     -8        7        1
  DFT-cphf     -9        8        1
  LMP2-enrg     4        2        1
  LMP2-grad     2        1        1
  DFT-cphf2   -15        9        1
  PBF-dens      0        0        1
  plotting      0        0        1
  Rel-grad    -17        0        1
  
  number of gridpoints: 
     atom        P1       C3       C4       C5       C6       C7       C8
  grid # 1      555       95       94      100       78       79       79
  grid # 2      555      341      343      360      267      269      263
  grid # 3       34        6        6        7        6        6        6
  grid # 4     4304     4304     4304     4304     4304     4304     4304
  grid # 5     1192     1192     1192     1192     1192     1192     1192
  grid # 6     8076     5226     5226     5226     5226     5226     5226
  grid # 7    22092    12650    12650    12650    12650    12650    12650
  grid # 8      634      688      688      688      688      688      688
  grid # 9      340      358      358      358      358      358      358
   
  number of gridpoints: 
     atom        C9      C10      C11      C12      C13      C14      C15
  grid # 1       79       95       95       96       95      100       99
  grid # 2      267      330      332      331      331      352      358
  grid # 3        6       11       30       32       13        6       14
  grid # 4     4304     4304     4304     4304     4304     4304     4304
  grid # 5     1192     1192     1192     1192     1192     1192     1192
  grid # 6     5226     5226     5226     5226     5226     5226     5226
  grid # 7    12650    12650    12650    12650    12650    12650    12650
  grid # 8      688      688      688      688      688      688      688
  grid # 9      358      358      358      358      358      358      358
   
  number of gridpoints: 
     atom       C16      C17      C18      C19      C20      C21      C22
  grid # 1       98       95      100       95      100       92       78
  grid # 2      361      335      360      335      362      310      269
  grid # 3       18       32       19       32       17        6        6
  grid # 4     4304     4304     4304     4304     4304     4304     4304
  grid # 5     1192     1192     1192     1192     1192     1192     1192
  grid # 6     5226     5226     5226     5226     5226     5226     5226
  grid # 7    12650    12650    12650    12650    12650    12650    12650
  grid # 8      688      688      688      688      688      688      688
  grid # 9      358      358      358      358      358      358      358
   
  number of gridpoints: 
     atom       C23      C24      C25      C26      C27      C28      C29
  grid # 1       89       78       91       79       77       78       78
  grid # 2      312      267      313      267      271      272      270
  grid # 3        6        6        6        6        6        6        6
  grid # 4     4304     4304     4304     4304     4304     4304     4304
  grid # 5     1192     1192     1192     1192     1192     1192     1192
  grid # 6     5226     5226     5226     5226     5226     5226     5226
  grid # 7    12650    12650    12650    12650    12650    12650    12650
  grid # 8      688      688      688      688      688      688      688
[...]
    H66      Y     0.00001  0.00172  0.01145  0.00043 -0.00016  0.00034
    H66      Z     0.00003 -0.00088 -0.00450 -0.00006  0.00004 -0.00007
    H67      X     0.00019  0.00006  0.00579 -0.00101  0.00011 -0.00011
    H67      Y    -0.00041 -0.00070 -0.01221  0.00215 -0.00019  0.00015
    H67      Z     0.00107  0.00121  0.01958 -0.00366  0.00035 -0.00030
    H68      X    -0.00288  0.01126  0.07298 -0.00269  0.00047 -0.00019
    H68      Y     0.00199 -0.00723 -0.04462  0.00165 -0.00030  0.00009
    H68      Z     0.00098 -0.00266 -0.01952  0.00069 -0.00012  0.00004
    C69      X     0.00022  0.01749 -0.00020  0.00003 -0.00008  0.00005
    C69      Y     0.00001 -0.00001 -0.00031 -0.00001  0.00009 -0.00004
    C69      Z     0.00089  0.08491 -0.00237  0.00001 -0.00001  0.00000
    H70      X     0.00078  0.12835 -0.01092 -0.00034  0.00075 -0.00039
    H70      Y    -0.00031 -0.04163  0.00225  0.00008 -0.00027  0.00014
    H70      Z    -0.00027 -0.05292  0.00382  0.00018 -0.00043  0.00022
    H71      X    -0.00141 -0.13913  0.00386  0.00000  0.00042 -0.00014
    H71      Y     0.00289  0.28440 -0.01035  0.00021 -0.00092  0.00036
    H71      Z    -0.00162 -0.15948  0.00419 -0.00009  0.00060 -0.00025
    H72      X    -0.00206 -0.19434  0.00523 -0.00003 -0.00010  0.00002
    H72      Y    -0.00264 -0.24711  0.00631  0.00001  0.00000 -0.00004
    H72      Z    -0.00869 -0.80861  0.02129 -0.00016 -0.00012 -0.00004
    H73      X    -0.00051 -0.00679 -0.05162 -0.00106  0.00044 -0.00035
    H73      Y     0.00033  0.00260  0.04264  0.00019 -0.00021  0.00015
    H73      Z     0.00021  0.00150  0.01450  0.00034 -0.00017  0.00013
    H74      X     0.00017 -0.00366 -0.00828 -0.00040  0.00035 -0.00024
    H74      Y    -0.00004  0.00154  0.00203  0.00013 -0.00009  0.00006
    H74      Z    -0.00012  0.00231  0.00329  0.00011 -0.00012  0.00008
    H75      X    -0.00103 -0.00047  0.00068  0.00029 -0.00009  0.00044
    H75      Y    -0.00194 -0.00019  0.00104  0.00035 -0.00008  0.00047
    H75      Z     0.00002  0.00013  0.00006 -0.00015  0.00005 -0.00012
    H76      X     0.00473  0.00033 -0.00091  0.00052 -0.00031  0.00081
    H76      Y     0.00520  0.00037 -0.00100  0.00052 -0.00032  0.00091
    H76      Z    -0.00479 -0.00005  0.00048 -0.00024  0.00014 -0.00026
  
  vibration #          217      218      219
                  -------- -------- --------
  frequencies      3201.72  3215.13  3257.88
  intensities        18.56    21.26     7.70
  reduc. mass         0.39     0.37     0.88
  force const         2.38     2.26     5.51
    P1       X    -0.00001  0.00002  0.00002
    P1       Y     0.00000 -0.00002  0.00002
    P1       Z    -0.00002  0.00003  0.00009
    C3       X     0.00002  0.00003  0.00004
    C3       Y    -0.00003 -0.00000 -0.00007
    C3       Z     0.00004 -0.00002  0.00011
    C4       X     0.00002 -0.00002  0.00007
    C4       Y    -0.00002 -0.00001 -0.00003
    C4       Z     0.00003  0.00000  0.00009
    C5       X    -0.00009  0.00000 -0.00057
    C5       Y     0.00044 -0.00026 -0.00006
    C5       Z     0.00036 -0.00024 -0.00262
    C6       X    -0.00027 -0.00003 -0.00097
    C6       Y    -0.00119 -0.00074 -0.00428
    C6       Z     0.00046  0.00030  0.00185
    C7       X    -0.00001  0.00002  0.00000
    C7       Y    -0.00001 -0.00003  0.00010
    C7       Z    -0.00002 -0.00000  0.00018
    C8       X     0.00000  0.00000 -0.00001
    C8       Y    -0.00003 -0.00004  0.00010
    C8       Z    -0.00002  0.00002  0.00011
    C9       X    -0.00001 -0.00002  0.00007
    C9       Y    -0.00003 -0.00005 -0.00000
    C9       Z     0.00001  0.00009  0.00017
    C10      X    -0.00051 -0.00065 -0.01464
    C10      Y     0.00525  0.00507  0.07453
    C10      Z     0.00435  0.00354  0.02997
    C11      X    -0.00790 -0.00364  0.00272
    C11      Y    -0.01205 -0.00892  0.00067
    C11      Z    -0.05365 -0.02908  0.01395
    C12      X    -0.00703 -0.01816  0.00081
    C12      Y     0.01937  0.04401 -0.00255
    C12      Z    -0.01090 -0.03719  0.00082
    C13      X     0.01200 -0.01029  0.00032
    C13      Y    -0.05187  0.04682 -0.00156
    C13      Z    -0.02040  0.02202 -0.00081
    C14      X    -0.00043  0.00064  0.00014
    C14      Y     0.00085 -0.00132 -0.00060
    C14      Z    -0.00162  0.00174 -0.00024
    C15      X     0.00006 -0.00007  0.00000
    C15      Y    -0.00006  0.00013  0.00003
    C15      Z     0.00003 -0.00003 -0.00005
    C16      X     0.00000 -0.00003  0.00002
    C16      Y     0.00004 -0.00005  0.00001
    C16      Z     0.00008 -0.00011  0.00002
    C17      X    -0.00028 -0.00028  0.00006
    C17      Y     0.00000 -0.00001 -0.00000
    C17      Z     0.00014  0.00014 -0.00003
    C18      X    -0.00001  0.00001  0.00000
    C18      Y    -0.00000  0.00001 -0.00000
    C18      Z     0.00001  0.00002 -0.00001
    C19      X    -0.00001  0.00024 -0.00005
    C19      Y    -0.00002  0.00008 -0.00002
    C19      Z    -0.00006  0.00020 -0.00003
    C20      X     0.00000  0.00003 -0.00002
    C20      Y     0.00005 -0.00004  0.00000
    C20      Z     0.00014 -0.00015  0.00002
    C21      X     0.00001  0.00001  0.00000
    C21      Y    -0.00004  0.00005 -0.00003
    C21      Z    -0.00002  0.00003 -0.00004
    C22      X     0.00064 -0.00039 -0.00000
    C22      Y    -0.00005  0.00006 -0.00002
    C22      Z     0.00045 -0.00035  0.00001
    C23      X    -0.00012  0.00006 -0.00000
    C23      Y     0.00002  0.00003  0.00001
    C23      Z     0.00018 -0.00008  0.00001
    C24      X     0.00009 -0.00016  0.00002
    C24      Y    -0.00010  0.00012  0.00002
    C24      Z     0.00006 -0.00006  0.00002
    C25      X     0.00001  0.00001 -0.00001
    C25      Y     0.00000  0.00001 -0.00000
    C25      Z     0.00001  0.00001 -0.00001
    C26      X     0.00000  0.00004 -0.00002
    C26      Y    -0.00007  0.00010 -0.00001
    C26      Z    -0.00000  0.00001  0.00000
    C27      X    -0.00310  0.00191 -0.00002
    C27      Y    -0.00199  0.00132 -0.00003
    C27      Z     0.00259 -0.00179  0.00004
    C28      X    -0.00000 -0.00002  0.00000
    C28      Y     0.00000  0.00002 -0.00000
    C28      Z     0.00002  0.00003 -0.00001
    C29      X    -0.00001 -0.00000  0.00000
    C29      Y    -0.00001  0.00001 -0.00000
    C29      Z     0.00004  0.00001 -0.00001
    H30      X     0.00566  0.00258  0.01596
    H30      Y     0.00554  0.00251  0.01848
    H30      Z     0.00098  0.00046  0.00296
    H31      X    -0.00265 -0.00166 -0.01252
    H31      Y     0.00896  0.00592  0.03516
    H31      Z    -0.00718 -0.00475 -0.02769
    H32      X     0.00002  0.00006 -0.00016
    H32      Y     0.00001 -0.00004 -0.00052
    H32      Z     0.00012 -0.00003 -0.00245
    H33      X     0.00013  0.00017 -0.00029
    H33      Y     0.00024  0.00022 -0.00040
    H33      Z     0.00000  0.00002 -0.00008
    H34      X    -0.00021 -0.00027  0.00022
    H34      Y     0.00012  0.00011 -0.00002
    H34      Z     0.00002  0.00005 -0.00006
    H35      X     0.00002 -0.00004 -0.00021
    H35      Y     0.00014 -0.00008 -0.00113
    H35      Z     0.00022 -0.00005 -0.00172
    H36      X     0.00005 -0.00011 -0.00012
    H36      Y     0.00010 -0.00029 -0.00076
    H36      Z     0.00012 -0.00028 -0.00117
    H37      X    -0.00014 -0.00037 -0.00068
    H37      Y     0.00013  0.00026  0.00106
    H37      Z    -0.00018 -0.00043 -0.00096
    H38      X     0.01583  0.01441  0.17749
    H38      Y    -0.07978 -0.07130 -0.85692
    H38      Z    -0.03537 -0.03115 -0.34697
    H39      X     0.09116  0.04716 -0.02103
    H39      Y     0.12990  0.07162 -0.02539
    H39      Z     0.60785  0.31987 -0.13517
    H40      X     0.07880  0.20053 -0.00743
    H40      Y    -0.19549 -0.48824  0.01890
    H40      Z     0.15392  0.40319 -0.01385
    H41      X    -0.13970  0.12325 -0.00362
    H41      Y     0.59618 -0.52922  0.01619
    H41      Z     0.24667 -0.22389  0.00697
    H42      X     0.00306  0.00350 -0.00080
    H42      Y     0.00005 -0.00001  0.00001
    H42      Z    -0.00142 -0.00183  0.00045
    H43      X     0.00059 -0.00312  0.00060
    H43      Y     0.00024 -0.00115  0.00022
    H43      Z     0.00048 -0.00213  0.00044
    H44      X    -0.00006  0.00012 -0.00007
    H44      Y     0.00013 -0.00022  0.00032
    H44      Z     0.00018 -0.00026  0.00042
    H45      X    -0.00007  0.00007 -0.00001
    H45      Y    -0.00145  0.00084  0.00009
    H45      Z    -0.00204  0.00128  0.00009
    H46      X    -0.00513  0.00375 -0.00013
    H46      Y     0.00239 -0.00161  0.00004
    H46      Z    -0.00460  0.00324 -0.00011
    H47      X    -0.00249  0.00081  0.00017
    H47      Y    -0.00014 -0.00002  0.00004
    H47      Z     0.00117 -0.00033 -0.00011
    H48      X     0.00059 -0.00037  0.00013
    H48      Y    -0.00109  0.00036 -0.00004
    H48      Z    -0.00163  0.00069 -0.00016
    H49      X    -0.00001  0.00034  0.00001
    H49      Y     0.00007 -0.00042 -0.00003
    H49      Z     0.00004 -0.00065  0.00000
    H50      X    -0.00003  0.00064 -0.00034
    H50      Y    -0.00002  0.00034 -0.00014
    H50      Z    -0.00010  0.00055 -0.00024
    H51      X    -0.00085  0.00094  0.00003
    H51      Y     0.00160 -0.00182 -0.00004
    H51      Z    -0.00081  0.00096  0.00005
    H52      X    -0.00012 -0.00013  0.00007
    H52      Y    -0.00003 -0.00005  0.00002
    H52      Z    -0.00005 -0.00008  0.00004
    H53      X     0.00006 -0.00011  0.00004
    H53      Y     0.00020 -0.00051  0.00011
    H53      Z     0.00030 -0.00071  0.00016
    H54      X    -0.00021 -0.00031  0.00027
    H54      Y    -0.00003  0.00005  0.00001
    H54      Z     0.00012  0.00019 -0.00016
    H55      X     0.00010 -0.00009 -0.00003
    H55      Y     0.00092 -0.00105  0.00002
    H55      Z    -0.00040  0.00049 -0.00002
    H56      X     0.00237 -0.00159  0.00003
    H56      Y    -0.00603  0.00380 -0.00003
    H56      Z    -0.00914  0.00606 -0.00007
    H57      X     0.00882 -0.00397 -0.00020
    H57      Y     0.00228 -0.00107 -0.00002
    H57      Z     0.00557 -0.00269 -0.00011
    H58      X     0.02842 -0.01937  0.00043
    H58      Y     0.02840 -0.01917  0.00041
    H58      Z    -0.02859  0.01903 -0.00040
    H59      X     0.00003  0.00007 -0.00001
    H59      Y     0.00001  0.00003 -0.00000
    H59      Z     0.00002  0.00004 -0.00002
    H60      X     0.00002  0.00002 -0.00001
    H60      Y    -0.00007 -0.00008  0.00004
    H60      Z    -0.00034 -0.00037  0.00022
    H61      X    -0.00001  0.00015 -0.00000
    H61      Y     0.00001 -0.00020  0.00001
    H61      Z     0.00002 -0.00000 -0.00001
    H62      X     0.00005  0.00005  0.00000
    H62      Y     0.00001  0.00002 -0.00001
    H62      Z     0.00004  0.00002 -0.00001
    H63      X     0.00008 -0.00005 -0.00000
    H63      Y     0.00021 -0.00011 -0.00002
    H63      Z    -0.00011  0.00009 -0.00000
    H64      X     0.00002  0.00003 -0.00002
    H64      Y    -0.00013 -0.00009  0.00007
    H64      Z    -0.00044 -0.00024  0.00022
    C65      X     0.00023  0.00014  0.00084
    C65      Y    -0.00030 -0.00027 -0.00111
    C65      Z     0.00028  0.00024  0.00134
    H66      X     0.00043  0.00084  0.00108
    H66      Y     0.00036  0.00077  0.00088
    H66      Z    -0.00014 -0.00023 -0.00044
    H67      X    -0.00111 -0.00094 -0.00452
    H67      Y     0.00230  0.00179  0.01157
    H67      Z    -0.00394 -0.00315 -0.01928
    H68      X    -0.00206 -0.00143 -0.00599
    H68      Y     0.00127  0.00086  0.00373
    H68      Z     0.00052  0.00035  0.00134
    C69      X     0.00002  0.00006  0.00002
    C69      Y    -0.00003 -0.00002 -0.00002
    C69      Z    -0.00002  0.00003  0.00018
    H70      X    -0.00023 -0.00061  0.00070
    H70      Y     0.00010  0.00018 -0.00023
    H70      Z     0.00014  0.00032 -0.00023
    H71      X    -0.00011  0.00003 -0.00050
    H71      Y     0.00032  0.00026  0.00113
    H71      Z    -0.00021 -0.00012 -0.00041
    H72      X     0.00008 -0.00011 -0.00044
    H72      Y     0.00006 -0.00012 -0.00033
    H72      Z     0.00027 -0.00053 -0.00151
    H73      X    -0.00141 -0.00195 -0.00584
    H73      Y     0.00049  0.00086  0.00296
    H73      Z     0.00034  0.00051  0.00074
    H74      X     0.00000 -0.00066  0.00070
    H74      Y    -0.00003  0.00020 -0.00023
    H74      Z     0.00000  0.00021 -0.00018
    H75      X     0.00007  0.00050 -0.00042
    H75      Y     0.00003  0.00054 -0.00052
    H75      Z     0.00001 -0.00019  0.00025
    H76      X     0.00013  0.00064 -0.00024
    H76      Y     0.00013  0.00067 -0.00024
    H76      Z    -0.00007 -0.00032  0.00013
  
  Number of imaginary frequencies:   0
   
  Writing vibrational animation data to PL274.vib
  Writing IR vibrational spectrum data to PL274_vib.spm
  rotational symmetry number:  1

  rotational temperatures (K):      0.009471      0.005368      0.005185
   
  The Quasi-Harmonic approximation will be applied to compute
  vibrational constributions to thermodynamic properties.
  Frequencies will be adjusted to a minimum value of  100.00 cm^-1.

  vibrational temperatures:
       mode:      1        2        3        4        5        6
  temp. (K):   143.88   143.88   143.88   143.88   143.88   143.88
   
       mode:      7        8        9       10       11       12
  temp. (K):   143.88   143.88   143.88   145.19   148.18   173.80
   
       mode:     13       14       15       16       17       18
  temp. (K):   201.22   203.49   211.78   233.60   259.13   286.64
   
       mode:     19       20       21       22       23       24
  temp. (K):   302.31   309.97   330.51   343.11   361.53   364.57
   
       mode:     25       26       27       28       29       30
  temp. (K):   369.59   378.99   382.26   388.44   395.55   400.47
   
       mode:     31       32       33       34       35       36
  temp. (K):   403.69   423.68   429.41   435.57   449.12   450.60
   
       mode:     37       38       39       40       41       42
  temp. (K):   481.33   486.54   491.29   499.90   511.66   524.85
   
       mode:     43       44       45       46       47       48
  temp. (K):   543.44   554.78   566.30   567.51   585.94   598.25
   
       mode:     49       50       51       52       53       54
  temp. (K):   609.03   653.77   685.40   691.99   712.22   728.12
   
       mode:     55       56       57       58       59       60
  temp. (K):   740.30   772.83   817.06   837.69   843.19   877.78
   
       mode:     61       62       63       64       65       66
  temp. (K):   880.29   928.00   932.93   959.92   979.44  1072.97
   
       mode:     67       68       69       70       71       72
  temp. (K):  1114.06  1140.42  1160.39  1199.48  1210.84  1214.93
   
       mode:     73       74       75       76       77       78
  temp. (K):  1246.47  1302.76  1307.71  1312.46  1320.25  1361.74
   
       mode:     79       80       81       82       83       84
  temp. (K):  1367.46  1368.13  1376.26  1382.45  1385.72  1390.00
   
       mode:     85       86       87       88       89       90
  temp. (K):  1391.99  1401.44  1409.66  1410.04  1411.97  1417.16
   
       mode:     91       92       93       94       95       96
  temp. (K):  1421.32  1425.59  1462.01  1475.78  1503.34  1515.58
   
       mode:     97       98       99      100      101      102
  temp. (K):  1523.18  1526.37  1537.97  1568.48  1588.97  1598.76
   
       mode:    103      104      105      106      107      108
  temp. (K):  1634.03  1640.33  1645.13  1654.77  1670.28  1684.57
   
       mode:    109      110      111      112      113      114
  temp. (K):  1722.17  1736.01  1741.84  1747.36  1757.30  1768.11
   
       mode:    115      116      117      118      119      120
  temp. (K):  1772.56  1783.45  1789.29  1810.76  1832.55  1860.04
   
       mode:    121      122      123      124      125      126
  temp. (K):  1867.64  1898.23  1906.19  1928.55  1940.11  1944.74
   
       mode:    127      128      129      130      131      132
  temp. (K):  1956.34  1969.88  1995.28  2026.29  2042.41  2044.89
   
       mode:    133      134      135      136      137      138
  temp. (K):  2046.84  2047.87  2051.56  2051.83  2055.31  2072.51
   
       mode:    139      140      141      142      143      144
  temp. (K):  2079.55  2081.03  2090.75  2100.59  2122.33  2140.07
   
       mode:    145      146      147      148      149      150
  temp. (K):  2158.49  2165.21  2167.16  2174.82  2176.68  2177.28
   
       mode:    151      152      153      154      155      156
  temp. (K):  2178.57  2179.46  2181.80  2183.87  2186.76  2187.84
   
       mode:    157      158      159      160      161      162
  temp. (K):  2188.39  2196.50  2200.68  2203.20  2204.18  2208.53
   
       mode:    163      164      165      166      167      168
  temp. (K):  2209.84  2213.30  2215.03  2216.52  2217.11  2220.66
   
       mode:    169      170      171      172      173      174
  temp. (K):  2230.30  2238.98  2339.26  2349.39  2384.35  2414.84
   
       mode:    175      176      177      178      179      180
  temp. (K):  4364.79  4369.24  4370.66  4371.56  4376.00  4377.30
   
       mode:    181      182      183      184      185      186
  temp. (K):  4379.25  4380.05  4381.16  4385.68  4385.93  4387.49
   
       mode:    187      188      189      190      191      192
  temp. (K):  4396.30  4445.99  4469.57  4471.15  4472.90  4475.08
   
       mode:    193      194      195      196      197      198
  temp. (K):  4482.00  4484.15  4485.34  4485.75  4486.61  4493.34
   
       mode:    199      200      201      202      203      204
  temp. (K):  4493.46  4497.18  4503.17  4506.40  4509.13  4509.36
   
       mode:    205      206      207      208      209      210
  temp. (K):  4510.21  4517.75  4524.78  4527.71  4538.29  4540.41
   
       mode:    211      212      213      214      215      216
  temp. (K):  4542.98  4544.72  4563.42  4587.86  4589.93  4595.78
   
       mode:    217      218      219
  temp. (K):  4606.56  4625.84  4687.36
   
   
  Thermodynamic properties calculated assuming an ideal gas

  In the table below, the units for temperature
  are kelvins, the units for U, H, and G are
  kcal/mol and the units for Cv and S are cal/(mol K)

  The zero point energy (ZPE):    426.199 kcal/mol
  is not included in U, H, or G in the table below
  
 
  =============================================================================
  Thermodynamic properties for P = 1.00E+00 atm, calculated at   1 temperatures


  T =   298.15 K, P = 1.00E+00 atm
   
                  U         Cv          S          H          G        ln(Q)
              =========  =========  =========  =========  =========  =========
  trans.          0.889      2.981     44.026      1.481    -11.645   19.65488
  rot.            0.889      2.981     36.154      0.889     -9.890   16.69319
  vib.           19.138    127.817    113.849     19.138    -14.806   24.99028
  elec.           0.000      0.000      0.000      0.000      0.000    0.00000
  ----------------------------------------------------------------------------
  total          20.915    133.779    194.029     21.508    -36.342   61.33835
   
   Total internal energy, Utot(SCFE + ZPE + U):   -1472.483034 hartrees
   Total enthalpy, Htot (Utot + nRT), with n=1:   -1472.482089 hartrees
    Total Gibbs free energy, Gtot (Htot - T*S):   -1472.574279 hartrees
   
  end of program freq
   
 Time(freq)  user:        1.8  user+sys:        1.8  wallclock:        2.1
  
  start of program post
  
  Writing input files for PBF
  end of program post
   
 Time(post)  user:        1.7  user+sys:        1.7  wallclock:        1.8

 Total cpu seconds     user:   15898.409   user+sys:   15898.409
  
 Total elapsed time:    16136 seconds

Job PL274 completed on bp1-compute174.data.bp.acrc.priv at Tue Mar 19 17:40:00 2024
