Job red_elim_TS_L1_PL274 started on bp1-compute174.data.bp.acrc.priv at Tue Mar 19 11:28:01 2024
jobid: bp1-compute174-0-65f976bf

  +--------------------------------------------------------------------+
  |  Jaguar version 11.4, release 135                                  |
  |                                                                    |
  |  Copyright Schrodinger, Inc.                                       |
  |  All Rights Reserved.                                              |
  |                                                                    |
  |  The following have contributed to Jaguar (listed alphabetically): |
  |  Mike Beachy, Art Bochevarov, Dale Braden, Yixiang Cao,            |
  |  Alan Chien, Chris Cortis, Rich Friesner, Bill Goddard,            |
  |  Hod Greeley, Tom Hughes, Leif Jacobson, Jean-Marc Langlois,       |
  |  Daniel Levine, Daniel Mainz, Rob Murphy, Dean Philipp,            |
  |  Tom Pollard, Murco Ringnalda, Mark Watson, Haoyu Yu.              |
  |                                                                    |
  |  Use of this program should be acknowledged in publications as:    |
  |                                                                    |
  |  Jaguar, version 11.4, Schrodinger, Inc., New York, NY, 2021.      |
  |                                                                    |
  |  A. D. Bochevarov, E. Harder, T. F. Hughes, J. R. Greenwood,       |
  |  D. A. Braden, D. M. Philipp, D. Rinaldo, M. D. Halls,             |
  |  J. Zhang, R. A. Friesner, "Jaguar: A High-Performance Quantum     |
  |  Chemistry Software Program with Strengths in Life and Materials   |
  |  Sciences", Int. J. Quantum Chem., 2013, 113(18), 2110-2142.       |
  +--------------------------------------------------------------------+
  
  start of program pre
  
  Job name: red_elim_TS_L1_PL274
  Executables used: /sw/apps/schrodinger2021-4/jaguar-v11.4/bin/Linux-x86_64
  Temporary files : /tmp/ar21627/red_elim_TS_L1_PL274
  Maestro file (input):  red_elim_TS_L1_PL274.mae
  Maestro file (output): red_elim_TS_L1_PL274.01.mae
  
 Contents of input file: &gen section only
 ----------------Contents start----------------
&gen
dftname=b3pw91-d3
basis=6-31G*
numd=5
ip11=2
iaccg=3
isolv=2
igeopt=2
solvent=benzene
ifreq=1
&
 -----------------Contents end-----------------
 
  basis set:             non_standard                    
  net molecular charge:    0
  multiplicity:            1
  
  This run will use ECP on 1 atom
  number of basis functions....          761
  
  input atom labels were not unique
  original atom labels:
 P1       Pd2      N2       C16      C17      C18      C19      C20     
 C21      F10      H23      H24      H25      H26      H18      C22     
 C23      C24      C25      C26      C27      H22      H27      H28     
 H29      H30      C3       C4       C5       C6       C7       C8      
 C9       C10      C11      C12      C13      C14      C15      C16     
 C17      C18      C19      C20      C21      C22      C23      C24     
 C25      C26      C27      C28      C29      H30      H31      H32     
 H33      H34      H35      H36      H37      H38      H39      H40     
 H41      H42      H43      H44      H45      H46      H47      H48     
 H49      H50      H51      H52      H53      H54      H55      H56     
 H57      H58      H59      H60      H61      H62      H63      H64     
 C65      H66      H67      H68      C69      H70      H71      H72     
 H73      H74      H75      H76     
  new atom labels:
 P1       Pd2      N3       C4       C5       C6       C7       C8      
 C9       F10      H11      H12      H13      H14      H15      C16     
 C17      C18      C19      C20      C21      H22      H23      H24     
 H25      H26      C27      C28      C29      C30      C31      C32     
 C33      C34      C35      C36      C37      C38      C39      C40     
 C41      C42      C43      C44      C45      C46      C47      C48     
 C49      C50      C51      C52      C53      H54      H55      H56     
 H57      H58      H59      H60      H61      H62      H63      H64     
 H65      H66      H67      H68      H69      H70      H71      H72     
 H73      H74      H75      H76      H77      H78      H79      H80     
 H81      H82      H83      H84      H85      H86      H87      H88     
 C89      H90      H91      H92      C93      H94      H95      H96     
 H97      H98      H99      H100    
 
  
 Input geometry:
                                   angstroms
  atom               x                 y                 z
  P1            0.0000000000      0.0000000000      0.0000000000 
  Pd2           0.0000000000      0.0000000000      2.2771142511 
  N3            0.4869853648      0.0000000000      4.2567560518 
  C4            4.7874104597     -0.2100507743      2.4791546248 
  C5            4.0147018048     -1.3697712740      2.5887117464 
  C6            2.6322221009     -1.3167235808      2.7725808897 
  C7            1.9683783313     -0.0817337586      2.8433136030 
  C8            2.7394815110      1.0902399645      2.7444745027 
  C9            4.1184436986      1.0182076290      2.5602212826 
  F10           6.1073767048     -0.2597518390      2.2999678062 
  H11           4.4999903124     -2.3441752280      2.5285734627 
  H12           2.0730767867     -2.2453131945      2.8479543042 
  H13           2.2625880077      2.0651304325      2.7982371351 
  H14           4.6881152613      1.9444120942      2.4781690605 
  H15           0.6207562686     -0.9100245450      4.8600475840 
  C16           1.3131156168      3.5199492164      6.5114605407 
  C17           1.0293256027      3.6154236824      5.1391624301 
  C18           0.7570194343      2.4551903152      4.3959746111 
  C19           0.7685032800      1.1994824820      5.0250849027 
  C20           1.0522739060      1.1039254077      6.3973300985 
  C21           1.3245994625      2.2642413832      7.1405708322 
  H22           1.5270441509      4.4314490365      7.0953220142 
  H23           1.0203337675      4.6020309235      4.6450168052 
  H24           0.5340796572      2.5302151298      3.3179146021 
  H25           1.0612730126      0.1174563165      6.8914463685 
  H26           1.5475392200      2.1892165705      8.2186308454 
  C27           1.7831463244      0.0000000000     -0.8473727461 
  C28          -0.9886469542     -1.5695736595     -0.6867421696 
  C29          -0.7901183997      1.5049379058     -0.8479766882 
  C30           1.8652236082      0.0548153147     -2.3939977476 
  C31           2.5239751135     -1.2700843094     -0.3645010905 
  C32          -0.7983231708     -2.6816138379      0.3763485688 
  C33          -2.4878216583     -1.2112625211     -0.8064495247 
  C34          -0.8892394008      1.4114160136     -2.2607084982 
  C35          -1.2546226733      2.4840588565     -3.0851574536 
  C36          -1.5207952457      3.7270633661     -2.4988050521 
  C37          -1.4998965492      3.8273578633     -1.1029466553 
  C38          -1.1937791729      2.7411469086     -0.2403429206 
  C39          -1.4955600723      3.0253394478      1.2179072042 
  C40          -2.8573804410      2.9258007927      1.6427194187 
  C41          -3.1835632123      3.2671285981      2.9669664830 
  C42          -2.2184617792      3.7066195558      3.8875966319 
  C43          -0.9059156283      3.8714990162      3.4252879495 
  C44          -0.5242988337      3.5606149275      2.1076927210 
  C45           0.8903072400      3.9069269557      1.6394151962 
  C46           0.9383018438      5.3645307443      1.1161004170 
  C47          -3.9942841535      2.5263893501      0.6865304301 
  C48          -5.0420068080      1.5792654208      1.3115151138 
  C49          -2.5643922096      3.9623566972      5.3522129059 
  C50           1.9790472741      3.6993159789      2.7112369243 
  C51          -4.7121107901      3.7857371286      0.1384320570 
  C52          -2.9590991633      2.6441334860      6.0577614421 
  C53          -3.6562524435      5.0419270943      5.5212642682 
  H54           1.3657093114     -0.7799130754     -2.9078132675 
  H55           1.4803630968      1.0048275598     -2.7998800482 
  H56           2.5173147849     -1.3496627875      0.7346946624 
  H57           2.1017488047     -2.1910767731     -0.8041808148 
  H58           0.2645501696     -2.9543819690      0.5016635869 
  H59          -1.1954620983     -2.3739848413      1.3566866633 
  H60          -2.8745272637     -0.7967271580      0.1378559733 
  H61          -2.6761453324     -0.4931763301     -1.6243074748 
  H62          -0.6668554910      0.4562132947     -2.7391918417 
  H63          -1.3132346546      2.3437192186     -4.1713334739 
  H64          -1.7763881926      4.5999501479     -3.1116595861 
  H65          -1.7717165211      4.7780348876     -0.6311032179 
  H66          -4.2228968831      3.1519016141      3.2973832778 
  H67          -0.1458421643      4.2343620195      4.1269936111 
  H68           1.1276614546      3.2434762284      0.7909457083 
  H69           0.6687945106      6.0742005961      1.9214661099 
  H70           0.2397811224      5.5249556070      0.2757633575 
  H71           1.9575479326      5.6181635074      0.7655036563 
  H72          -3.5450204230      1.9943108666     -0.1710626328 
  H73          -5.6529166403      2.0898430086      2.0802255420 
  H74          -5.7393517058      1.2241094154      0.5284041644 
  H75          -4.5530067634      0.7093391717      1.7781370610 
  H76          -1.6429003120      4.3395922896      5.8404978839 
  H77           1.8882160219      4.4345826098      3.5337800204 
  H78           2.9783958680      3.8431453967      2.2586305933 
  H79           1.9404016142      2.6824878981      3.1362898761 
  H80          -5.1559012677      4.3676159368      0.9685996882 
  H81          -5.5306303802      3.4995242068     -0.5507058279 
  H82          -4.0239116191      4.4517581053     -0.4098786963 
  H83          -3.9048202190      2.2454047989      5.6452470654 
  H84          -3.1042172200      2.8097039111      7.1433702254 
  H85          -2.1833050044      1.8725387701      5.9080647365 
  H86          -4.6088031266      4.7234831349      5.0576118387 
  H87          -3.3573436749      5.9970890541      5.0511848065 
  H88          -3.8569602758      5.2325977594      6.5931467838 
  C89          -0.5441708763     -2.1598303215     -2.0464615814 
  H90          -1.1856029942     -3.0417664424     -2.2477001319 
  H91          -0.6839976165     -1.4712621932     -2.8981229103 
  H92           0.4993445642     -2.5142764624     -2.0464974490 
  C93           2.5160792963      1.2658499196     -0.3495850975 
  H94           3.5592243218      1.2394134262     -0.7263030562 
  H95           2.0423449106      2.1774381524     -0.7572142958 
  H96           2.5500876307      1.3151497824      0.7482272982 
  H97           2.9402802330      0.0025088778     -2.6612312077 
  H98           3.5817627609     -1.2058906194     -0.6913890209 
  H99          -1.3445468212     -3.5877674888      0.0425532017 
  H100         -3.0522249256     -2.1385459761     -1.0343750224 
   
  principal moments of inertia:
        amu*angstrom^2:     6372.63105     6757.47599     9721.39508
                g*cm^2: 1.05820015E-36 1.12210515E-36 1.61427543E-36
   
  rotational constants:
               cm^(-1):      0.00264532      0.00249466      0.00173408
                   GHz:      0.07930461      0.07478813      0.05198626
   
  Molecular weight:     717.31 amu
   
  Stoichiometry: PdC41PNH55F
  Molecular Point Group: C1      
  Point Group used: C1
  
 
Number of optimization coordinates:   328
Number of independent coordinates:    328
Number of non-redundant coordinates:  294
Number of frozen coordinates:           0
Number of harmonic constraints:         0
 
Number of geometric degrees of freedom:   294
Maximum geometric degrees of freedom:     294
 " " " " " excluding dummy atoms:         294
 
 
  bond lengths (angstroms):
 
 P1      -Pd2     :   2.277114      P1      -C27     :   1.974247
 P1      -C28     :   1.978029      P1      -C29     :   1.899524
 Pd2     -N3      :   2.038660      Pd2     -C7      :   2.049823
 N3      -H15     :   1.100000      N3      -C19     :   1.452012
 C4      -C5      :   1.397867      C4      -C9      :   1.400966
 C4      -F10     :   1.333000      C5      -C6      :   1.395662
 C5      -H11     :   1.090222      C6      -C7      :   1.403884
 C6      -H12     :   1.086556      C7      -C8      :   1.406375
 C8      -C9      :   1.393081      C8      -H13     :   1.086614
 C9      -H14     :   1.090465      C16     -C17     :   1.404583
 C16     -C21     :   1.404533      C16     -H22     :   1.103400
 C17     -C18     :   1.404500      C17     -H23     :   1.103474
 C18     -C19     :   1.404533      C18     -H24     :   1.103424
 C19     -C20     :   1.404533      C20     -C21     :   1.404600
 C20     -H25     :   1.103337      C21     -H26     :   1.103424
 C27     -C30     :   1.549771      C27     -C31     :   1.547613
 C27     -C93     :   1.545108      C28     -C32     :   1.550167
 C28     -C33     :   1.546041      C28     -C89     :   1.547514
 C29     -C34     :   1.419289      C29     -C38     :   1.435400
 C30     -H54     :   1.100133      C30     -H55     :   1.102443
 C30     -H97     :   1.109007      C31     -H56     :   1.102093
 C31     -H57     :   1.104455      C31     -H98     :   1.109005
 C32     -H58     :   1.104448      C32     -H59     :   1.101552
 C32     -H99     :   1.109457      C33     -H60     :   1.101405
 C33     -H61     :   1.104538      C33     -H100    :   1.109214
 C34     -C35     :   1.401351      C34     -H62     :   1.091244
 C35     -C36     :   1.399899      C35     -H63     :   1.096772
 C36     -C37     :   1.399613      C36     -H64     :   1.096745
 C37     -C38     :   1.420439      C37     -H65     :   1.095586
 C38     -C39     :   1.516025      C39     -C40     :   1.430010
 C39     -C44     :   1.421825      C40     -C41     :   1.405891
 C40     -C47     :   1.538303      C41     -C42     :   1.404327
 C41     -H66     :   1.096662      C42     -C43     :   1.401318
 C42     -C49     :   1.526489      C43     -C44     :   1.406534
 C43     -H67     :   1.096254      C44     -C45     :   1.529812
 C45     -C46     :   1.549442      C45     -C50     :   1.541836
 C45     -H68     :   1.102907      C46     -H69     :   1.106743
 C46     -H70     :   1.104461      C46     -H71     :   1.107299
 C47     -C48     :   1.544465      C47     -C51     :   1.549724
 C47     -H72     :   1.104722      C48     -H73     :   1.106714
 C48     -H74     :   1.107108      C48     -H75     :   1.101648
 C49     -C52     :   1.546384      C49     -C53     :   1.544736
 C49     -H76     :   1.108998      C50     -H77     :   1.106998
 C50     -H78     :   1.106452      C50     -H79     :   1.102771
 C51     -H80     :   1.106667      C51     -H81     :   1.107611
 C51     -H82     :   1.103561      C52     -H83     :   1.106138
 C52     -H84     :   1.107709      C52     -H85     :   1.104366
 C53     -H86     :   1.106225      C53     -H87     :   1.105738
 C53     -H88     :   1.107055      C89     -H90     :   1.108938
 C89     -H91     :   1.104085      C89     -H92     :   1.102069
 C93     -H94     :   1.109399      C93     -H95     :   1.105251
 C93     -H96     :   1.099445
 
  bond angles:
 
 C27     -P1      -Pd2     : 115.417634  C28     -P1      -Pd2     : 110.315238
 C28     -P1      -C27     : 107.602855  C29     -P1      -Pd2     : 116.513936
 C29     -P1      -C27     : 100.607821  C29     -P1      -C28     : 105.413350
 N3      -Pd2     -P1      : 166.179838  C7      -Pd2     -P1      : 106.034649
 C7      -Pd2     -N3      :  60.158247  H15     -N3      -Pd2     : 124.167840
 C19     -N3      -Pd2     : 124.065642  C19     -N3      -H15     : 111.692617
 C9      -C4      -C5      : 117.314332  F10     -C4      -C5      : 121.801242
 F10     -C4      -C9      : 120.884022  C6      -C5      -C4      : 121.759000
 H11     -C5      -C4      : 119.414265  H11     -C5      -C6      : 118.826706
 C7      -C6      -C5      : 120.561964  H12     -C6      -C5      : 119.104155
 H12     -C6      -C7      : 120.329433  C6      -C7      -Pd2     : 118.374570
 C8      -C7      -Pd2     : 118.285530  C8      -C7      -C6      : 118.051717
 C9      -C8      -C7      : 120.593282  H13     -C8      -C7      : 120.234262
 H13     -C8      -C9      : 119.167684  C8      -C9      -C4      : 121.712047
 H14     -C9      -C4      : 119.396539  H14     -C9      -C8      : 118.891399
 C21     -C16     -C17     : 120.002746  H22     -C16     -C17     : 120.000393
 H22     -C16     -C21     : 119.996860  C18     -C17     -C16     : 120.000393
 H23     -C17     -C16     : 119.995826  H23     -C17     -C18     : 120.003781
 C19     -C18     -C17     : 119.996860  H24     -C18     -C17     : 119.999284
 H24     -C18     -C19     : 120.003855  C18     -C19     -N3      : 119.996860
 C20     -C19     -N3      : 119.996860  C20     -C19     -C18     : 120.006279
 C21     -C20     -C19     : 119.996860  H25     -C20     -C19     : 120.001259
 H25     -C20     -C21     : 120.001881  C20     -C21     -C16     : 119.996860
 H26     -C21     -C16     : 120.003855  H26     -C21     -C20     : 119.999284
 C30     -C27     -P1      : 118.435966  C31     -C27     -P1      : 107.363714
 C31     -C27     -C30     : 108.363978  C93     -C27     -P1      : 106.867607
 C93     -C27     -C30     : 105.510586  C93     -C27     -C31     : 110.166900
 C32     -C28     -P1      : 105.650726  C33     -C28     -P1      : 109.125727
 C33     -C28     -C32     : 109.780136  C89     -C28     -P1      : 117.655696
 C89     -C28     -C32     : 107.078681  C89     -C28     -C33     : 107.390303
 C34     -C29     -P1      : 114.910189  C38     -C29     -P1      : 127.613023
 C38     -C29     -C34     : 117.288667  H54     -C30     -C27     : 114.532958
 H55     -C30     -C27     : 112.297122  H55     -C30     -H54     : 108.867652
 H97     -C30     -C27     : 106.866856  H97     -C30     -H54     : 106.966915
 H97     -C30     -H55     : 106.878241  H56     -C31     -C27     : 111.564943
 H57     -C31     -C27     : 112.156573  H57     -C31     -H56     : 109.543807
 H98     -C31     -C27     : 108.488385  H98     -C31     -H56     : 107.693622
 H98     -C31     -H57     : 107.191431  H58     -C32     -C28     : 111.909222
 H59     -C32     -C28     : 111.452173  H59     -C32     -H58     : 108.357701
 H99     -C32     -C28     : 108.610725  H99     -C32     -H58     : 107.831746
 H99     -C32     -H59     : 108.563238  H60     -C33     -C28     : 111.180188
 H61     -C33     -C28     : 111.921524  H61     -C33     -H60     : 109.286245
 H100    -C33     -C28     : 108.395216  H100    -C33     -H60     : 108.189506
 H100    -C33     -H61     : 107.733199  C35     -C34     -C29     : 123.599104
 H62     -C34     -C29     : 118.678591  H62     -C34     -C35     : 117.721925
 C36     -C35     -C34     : 118.868590  H63     -C35     -C34     : 119.909520
 H63     -C35     -C36     : 121.215735  C37     -C36     -C35     : 118.588670
 H64     -C36     -C35     : 121.127678  H64     -C36     -C37     : 120.247906
 C38     -C37     -C36     : 123.646751  H65     -C37     -C36     : 119.209043
 H65     -C37     -C38     : 117.096095  C37     -C38     -C29     : 117.523625
 C39     -C38     -C29     : 128.653754  C39     -C38     -C37     : 113.446166
 C40     -C39     -C38     : 117.533585  C44     -C39     -C38     : 122.449022
 C44     -C39     -C40     : 119.395310  C41     -C40     -C39     : 118.938223
 C47     -C40     -C39     : 122.495958  C47     -C40     -C41     : 118.493284
 C42     -C41     -C40     : 122.278192  H66     -C41     -C40     : 118.565936
 H66     -C41     -C42     : 119.122180  C43     -C42     -C41     : 117.661255
 C49     -C42     -C41     : 121.714388  C49     -C42     -C43     : 120.603101
 C44     -C43     -C42     : 122.491344  H67     -C43     -C42     : 118.501880
 H67     -C43     -C44     : 118.990609  C43     -C44     -C39     : 118.953890
 C45     -C44     -C39     : 121.690431  C45     -C44     -C43     : 119.182645
 C46     -C45     -C44     : 110.180843  C50     -C45     -C44     : 114.184988
 C50     -C45     -C46     : 109.851523  H68     -C45     -C44     : 107.356126
 H68     -C45     -C46     : 107.421500  H68     -C45     -C50     : 107.567152
 H69     -C46     -C45     : 110.481288  H70     -C46     -C45     : 111.964181
 H70     -C46     -H69     : 107.849514  H71     -C46     -C45     : 110.544137
 H71     -C46     -H69     : 107.919333  H71     -C46     -H70     : 107.937853
 C48     -C47     -C40     : 114.145295  C51     -C47     -C40     : 110.559343
 C51     -C47     -C48     : 109.100865  H72     -C47     -C40     : 107.880461
 H72     -C47     -C48     : 107.136859  H72     -C47     -C51     : 107.770660
 H73     -C48     -C47     : 111.877424  H74     -C48     -C47     : 109.741743
 H74     -C48     -H73     : 106.954839  H75     -C48     -C47     : 110.764840
 H75     -C48     -H73     : 108.368321  H75     -C48     -H74     : 109.018969
 C52     -C49     -C42     : 110.658205  C53     -C49     -C42     : 112.474040
 C53     -C49     -C52     : 111.432837  H76     -C49     -C42     : 106.925793
 H76     -C49     -C52     : 107.528017  H76     -C49     -C53     : 107.542121
 H77     -C50     -C45     : 111.663558  H78     -C50     -C45     : 109.628065
 H78     -C50     -H77     : 106.960803  H79     -C50     -C45     : 111.552585
 H79     -C50     -H77     : 108.854276  H79     -C50     -H78     : 108.009914
 H80     -C51     -C47     : 110.347547  H81     -C51     -C47     : 110.631940
 H81     -C51     -H80     : 107.833481  H82     -C51     -C47     : 112.166850
 H82     -C51     -H80     : 107.786441  H82     -C51     -H81     : 107.918693
 H83     -C52     -C49     : 110.815466  H84     -C52     -C49     : 110.681673
 H84     -C52     -H83     : 107.900400  H85     -C52     -C49     : 110.759160
 H85     -C52     -H83     : 107.349544  H85     -C52     -H84     : 109.226744
 H86     -C53     -C49     : 111.197675  H87     -C53     -C49     : 111.475475
 H87     -C53     -H86     : 107.653118  H88     -C53     -C49     : 110.761272
 H88     -C53     -H86     : 107.414399  H88     -C53     -H87     : 108.170877
 H90     -C89     -C28     : 107.257040  H91     -C89     -C28     : 113.798039
 H91     -C89     -H90     : 106.424803  H92     -C89     -C28     : 113.244804
 H92     -C89     -H90     : 106.971719  H92     -C89     -H91     : 108.691356
 H94     -C93     -C27     : 108.488016  H95     -C93     -C27     : 110.705930
 H95     -C93     -H94     : 107.303973  H96     -C93     -C27     : 111.906990
 H96     -C93     -H94     : 108.122439  H96     -C93     -H95     : 110.153626
 
  torsional angles:
 
 P1      -Pd2     -N3      -H15     : -90.894794
 P1      -Pd2     -N3      -C19     :  85.716918
 P1      -Pd2     -C7      -C6      : -77.595444
 P1      -Pd2     -C7      -C8      :  76.249481
 P1      -C27     -C30     -H54     : -59.388644
 P1      -C27     -C30     -H55     :  65.456959
 P1      -C27     -C30     -H97     :-177.655655
 P1      -C27     -C31     -H56     : -52.264827
 P1      -C27     -C31     -H57     :  71.055768
 P1      -C27     -C31     -H98     :-170.737358
 P1      -C27     -C93     -H94     : 174.235630
 P1      -C27     -C93     -H95     : -68.269516
 P1      -C27     -C93     -H96     :  55.028918
 P1      -C28     -C32     -H58     : -61.587682
 P1      -C28     -C32     -H59     :  59.930593
 P1      -C28     -C32     -H99     : 179.484556
 P1      -C28     -C33     -H60     : -52.261846
 P1      -C28     -C33     -H61     :  70.269199
 P1      -C28     -C33     -H100    :-171.055930
 P1      -C28     -C89     -H90     : 178.243253
 P1      -C28     -C89     -H91     : -64.331096
 P1      -C28     -C89     -H92     :  60.462339
 P1      -C29     -C34     -C35     :-170.210970
 P1      -C29     -C34     -H62     :   9.559426
 P1      -C29     -C38     -C37     : 167.022163
 P1      -C29     -C38     -C39     : -20.537445
 Pd2     -P1      -C27     -C30     :-177.694779
 Pd2     -P1      -C27     -C31     :  59.300540
 Pd2     -P1      -C27     -C93     : -58.880810
 Pd2     -P1      -C28     -C32     : -30.327343
 Pd2     -P1      -C28     -C33     :  87.650420
 Pd2     -P1      -C28     -C89     :-149.743031
 Pd2     -P1      -C29     -C34     :-174.148580
 Pd2     -P1      -C29     -C38     :  11.014824
 Pd2     -N3      -C19     -C18     :  -2.118093
 Pd2     -N3      -C19     -C20     : 177.881907
 Pd2     -C7      -C6      -C5      : 152.938170
 Pd2     -C7      -C6      -H12     : -26.287739
 Pd2     -C7      -C8      -C9      :-152.915797
 Pd2     -C7      -C8      -H13     :  26.282939
 N3      -Pd2     -P1      -C27     :   0.000000
 N3      -Pd2     -P1      -C28     : 122.206107
 N3      -Pd2     -P1      -C29     :-117.700249
 N3      -Pd2     -C7      -C6      : 103.059193
 N3      -Pd2     -C7      -C8      :-103.095882
 N3      -C19     -C18     -C17     : 180.000000
 N3      -C19     -C18     -H24     :   0.000001
 N3      -C19     -C20     -C21     : 180.000000
 N3      -C19     -C20     -H25     :   0.000001
 C4      -C5      -C6      -C7      :   0.500634
 C4      -C5      -C6      -H12     : 179.735934
 C4      -C9      -C8      -C7      :  -0.593138
 C4      -C9      -C8      -H13     :-179.800338
 C5      -C4      -C9      -C8      :   0.094014
 C5      -C4      -C9      -H14     :-179.949620
 C5      -C6      -C7      -C8      :  -0.968159
 C6      -C5      -C4      -C9      :  -0.047584
 C6      -C5      -C4      -F10     :-179.818198
 C6      -C7      -C8      -C9      :   1.014029
 C6      -C7      -C8      -H13     :-179.787235
 C7      -Pd2     -P1      -C27     :  -2.377750
 C7      -Pd2     -P1      -C28     : 119.828358
 C7      -Pd2     -P1      -C29     :-120.077998
 C7      -Pd2     -N3      -H15     : -88.260041
 C7      -Pd2     -N3      -C19     :  88.351671
 C7      -C6      -C5      -H11     :-179.436968
 C7      -C8      -C9      -H14     : 179.450282
 C8      -C7      -C6      -H12     : 179.805933
 C8      -C9      -C4      -F10     : 179.866853
 C9      -C4      -C5      -H11     : 179.889660
 F10     -C4      -C5      -H11     :   0.119046
 F10     -C4      -C9      -H14     :  -0.176781
 H11     -C5      -C6      -H12     :  -0.201667
 H13     -C8      -C9      -H14     :   0.243082
 H15     -N3      -C19     -C18     : 174.865144
 H15     -N3      -C19     -C20     :  -5.134856
 C16     -C17     -C18     -C19     :  -0.000001
 C16     -C17     -C18     -H24     : 179.999999
 C16     -C21     -C20     -C19     :   0.000000
 C16     -C21     -C20     -H25     : 179.999999
 C17     -C16     -C21     -C20     :   0.000001
 C17     -C16     -C21     -H26     : 180.000000
 C17     -C18     -C19     -C20     :   0.000000
 C18     -C17     -C16     -C21     :   0.000000
 C18     -C17     -C16     -H22     : 180.000000
 C18     -C19     -C20     -C21     :   0.000000
 C18     -C19     -C20     -H25     :-179.999999
 C19     -C18     -C17     -H23     : 180.000000
 C19     -C20     -C21     -H26     : 180.000000
 C20     -C19     -C18     -H24     :-179.999999
 C20     -C21     -C16     -H22     :-179.999999
 C21     -C16     -C17     -H23     : 180.000000
 H22     -C16     -C17     -H23     :   0.000000
 H22     -C16     -C21     -H26     :   0.000001
 H23     -C17     -C18     -H24     :  -0.000001
 H25     -C20     -C21     -H26     :  -0.000001
 C27     -P1      -C28     -C32     :  96.372645
 C27     -P1      -C28     -C33     :-145.649592
 C27     -P1      -C28     -C89     : -23.043043
 C27     -P1      -C29     -C34     :  60.299866
 C27     -P1      -C29     -C38     :-114.536731
 C28     -P1      -C27     -C30     :  58.660020
 C28     -P1      -C27     -C31     : -64.344660
 C28     -P1      -C27     -C93     : 177.473990
 C28     -P1      -C29     -C34     : -51.464389
 C28     -P1      -C29     -C38     : 133.699014
 C29     -P1      -C27     -C30     : -51.406213
 C29     -P1      -C27     -C31     :-174.410894
 C29     -P1      -C27     -C93     :  67.407756
 C29     -P1      -C28     -C32     :-156.900754
 C29     -P1      -C28     -C33     : -38.922990
 C29     -P1      -C28     -C89     :  83.683559
 C29     -C34     -C35     -C36     :   0.953559
 C29     -C34     -C35     -H63     :-179.937772
 C29     -C38     -C37     -C36     :   4.722829
 C29     -C38     -C37     -H65     :-177.825264
 C29     -C38     -C39     -C40     : -93.715753
 C29     -C38     -C39     -C44     :  95.390191
 C30     -C27     -C31     -H56     : 178.723324
 C30     -C27     -C31     -H57     : -57.956081
 C30     -C27     -C31     -H98     :  60.250793
 C30     -C27     -C93     -H94     : -58.856036
 C30     -C27     -C93     -H95     :  58.638818
 C30     -C27     -C93     -H96     :-178.062748
 C31     -C27     -C30     -H54     :  63.114911
 C31     -C27     -C30     -H55     :-172.039486
 C31     -C27     -C30     -H97     : -55.152100
 C31     -C27     -C93     -H94     :  57.903115
 C31     -C27     -C93     -H95     : 175.397970
 C31     -C27     -C93     -H96     : -61.303596
 C32     -C28     -C33     -H60     :  63.088416
 C32     -C28     -C33     -H61     :-174.380539
 C32     -C28     -C33     -H100    : -55.705669
 C32     -C28     -C89     -H90     :  59.582873
 C32     -C28     -C89     -H91     : 177.008524
 C32     -C28     -C89     -H92     : -58.198041
 C33     -C28     -C32     -H58     :-179.126282
 C33     -C28     -C32     -H59     : -57.608007
 C33     -C28     -C32     -H99     :  61.945956
 C33     -C28     -C89     -H90     : -58.270103
 C33     -C28     -C89     -H91     :  59.155548
 C33     -C28     -C89     -H92     :-176.051017
 C34     -C29     -C38     -C37     :  -7.708039
 C34     -C29     -C38     -C39     : 164.732353
 C34     -C35     -C36     -C37     :  -4.274707
 C34     -C35     -C36     -H64     : 177.894943
 C35     -C34     -C29     -C38     :   5.187907
 C35     -C36     -C37     -C38     :   1.431251
 C35     -C36     -C37     -H65     :-175.969829
 C36     -C35     -C34     -H62     :-178.818884
 C36     -C37     -C38     -C39     :-168.847479
 C37     -C36     -C35     -H63     : 176.628706
 C37     -C38     -C39     -C40     :  78.978297
 C37     -C38     -C39     -C44     : -91.915759
 C38     -C29     -C34     -H62     :-175.041697
 C38     -C37     -C36     -H64     : 179.281292
 C38     -C39     -C40     -C41     :-175.914414
 C38     -C39     -C40     -C47     :   0.939794
 C38     -C39     -C44     -C43     : 176.192814
 C38     -C39     -C44     -C45     :   1.014125
 C39     -C38     -C37     -H65     :   8.604428
 C39     -C40     -C41     -C42     :   0.183632
 C39     -C40     -C41     -H66     :-177.685208
 C39     -C40     -C47     -C48     : 139.952085
 C39     -C40     -C47     -C51     : -96.603289
 C39     -C40     -C47     -H72     :  21.010825
 C39     -C44     -C43     -C42     :  -1.707070
 C39     -C44     -C43     -H67     : 176.807429
 C39     -C44     -C45     -C46     :  88.760506
 C39     -C44     -C45     -C50     :-147.067892
 C39     -C44     -C45     -H68     : -27.923640
 C40     -C39     -C44     -C43     :   5.462025
 C40     -C39     -C44     -C45     :-169.716664
 C40     -C41     -C42     -C43     :   3.524270
 C40     -C41     -C42     -C49     :-174.807659
 C40     -C47     -C48     -H73     :  69.540809
 C40     -C47     -C48     -H74     :-171.905979
 C40     -C47     -C48     -H75     : -51.484648
 C40     -C47     -C51     -H80     : -60.781100
 C40     -C47     -C51     -H81     : 179.967050
 C40     -C47     -C51     -H82     :  59.410583
 C41     -C40     -C39     -C44     :  -4.731826
 C41     -C40     -C47     -C48     : -43.180339
 C41     -C40     -C47     -C51     :  80.264287
 C41     -C40     -C47     -H72     :-162.121598
 C41     -C42     -C43     -C44     :  -2.756369
 C41     -C42     -C43     -H67     : 178.722196
 C41     -C42     -C49     -C52     :  65.622100
 C41     -C42     -C49     -C53     : -59.729306
 C41     -C42     -C49     -H76     :-177.558553
 C42     -C41     -C40     -C47     :-176.797561
 C42     -C43     -C44     -C45     : 173.594331
 C42     -C49     -C52     -H83     : -66.423954
 C42     -C49     -C52     -H84     : 173.906791
 C42     -C49     -C52     -H85     :  52.606652
 C42     -C49     -C53     -H86     :  62.826165
 C42     -C49     -C53     -H87     : -57.313194
 C42     -C49     -C53     -H88     :-177.812649
 C43     -C42     -C41     -H66     :-178.618321
 C43     -C42     -C49     -C52     :-112.661377
 C43     -C42     -C49     -C53     : 121.987217
 C43     -C42     -C49     -H76     :   4.157970
 C43     -C44     -C45     -C46     : -86.407446
 C43     -C44     -C45     -C50     :  37.764157
 C43     -C44     -C45     -H68     : 156.908408
 C44     -C39     -C40     -C47     : 172.122382
 C44     -C43     -C42     -C49     : 175.595014
 C44     -C45     -C46     -H69     :  61.208828
 C44     -C45     -C46     -H70     : -59.019453
 C44     -C45     -C46     -H71     :-179.402937
 C44     -C45     -C50     -H77     : -68.972886
 C44     -C45     -C50     -H78     : 172.673467
 C44     -C45     -C50     -H79     :  53.083269
 C45     -C44     -C43     -H67     :  -7.891170
 C46     -C45     -C50     -H77     :  55.374850
 C46     -C45     -C50     -H78     : -62.978797
 C46     -C45     -C50     -H79     : 177.431004
 C47     -C40     -C41     -H66     :   5.333599
 C48     -C47     -C51     -H80     :  65.533300
 C48     -C47     -C51     -H81     : -53.718550
 C48     -C47     -C51     -H82     :-174.275017
 C49     -C42     -C41     -H66     :   3.049750
 C49     -C42     -C43     -H67     :  -2.926422
 C50     -C45     -C46     -H69     : -65.429060
 C50     -C45     -C46     -H70     : 174.342659
 C50     -C45     -C46     -H71     :  53.959175
 C51     -C47     -C48     -H73     : -54.688409
 C51     -C47     -C48     -H74     :  63.864803
 C51     -C47     -C48     -H75     :-175.713866
 C52     -C49     -C53     -H86     : -62.101764
 C52     -C49     -C53     -H87     : 177.758876
 C52     -C49     -C53     -H88     :  57.259421
 C53     -C49     -C52     -H83     :  59.512729
 C53     -C49     -C52     -H84     : -60.156527
 C53     -C49     -C52     -H85     : 178.543335
 H54     -C30     -C27     -C93     :-178.908522
 H55     -C30     -C27     -C93     : -54.062920
 H56     -C31     -C27     -C93     :  63.756901
 H57     -C31     -C27     -C93     :-172.922504
 H58     -C32     -C28     -C89     :  64.593465
 H59     -C32     -C28     -C89     :-173.888260
 H60     -C33     -C28     -C89     : 179.172054
 H61     -C33     -C28     -C89     : -58.296901
 H62     -C34     -C35     -H63     :   0.289786
 H63     -C35     -C36     -H64     :  -1.201644
 H64     -C36     -C37     -H65     :   1.880213
 H68     -C45     -C46     -H69     : 177.852204
 H68     -C45     -C46     -H70     :  57.623923
 H68     -C45     -C46     -H71     : -62.759561
 H68     -C45     -C50     -H77     : 172.002201
 H68     -C45     -C50     -H78     :  53.648554
 H68     -C45     -C50     -H79     : -65.941644
 H72     -C47     -C48     -H73     :-171.097361
 H72     -C47     -C48     -H74     : -52.544149
 H72     -C47     -C48     -H75     :  67.877182
 H72     -C47     -C51     -H80     :-178.462614
 H72     -C47     -C51     -H81     :  62.285537
 H72     -C47     -C51     -H82     : -58.270930
 H76     -C49     -C52     -H83     : 177.129053
 H76     -C49     -C52     -H84     :  57.459798
 H76     -C49     -C52     -H85     : -63.840341
 H76     -C49     -C53     -H86     :-179.709569
 H76     -C49     -C53     -H87     :  60.151072
 H76     -C49     -C53     -H88     : -60.348383
 C89     -C28     -C32     -H99     : -54.334297
 C89     -C28     -C33     -H100    :  60.377970
 C93     -C27     -C30     -H97     :  62.824467
 C93     -C27     -C31     -H98     : -54.715630
 
  nuclear repulsion energy.......    6939.367702465 hartrees
  
  Detected an organometallic with only one TM atom. 
  
  Oxidation state on metal       2 is     2
  Formal multiplet on metal      2 is     1
  Formal charge on ligand        3 is    -1
  Formal multiplet on ligand     3 is     1
  Formal charge on ligand        4 is    -1
  Formal multiplet on ligand     4 is     1
  
 
  Will use High-Quality Initial guess for organometallics
       including d-d repulsion (iguess=30)
 
 Non-default options chosen:
   SCF calculation type: DFT(b3pw91-d3)              
   DFT=Becke_3_Parameter/HF+Slater+Becke88+PW91+PW-GGAIIC (B3PW91-D3)
   Transition state optimization
   Geometry will be optimized in redundant internal coordinates
   Culot/Fletcher trust radius adjustment
      initial trust radius:  0.100
   P-RFO level-shifting used
   Solvation energy will be computed using PBF
     -solute cavity energy will not be included
     -surface area terms will not be included
   Vibrational frequencies and related properties will be computed
      from analytic second derivatives
   IR intensities will be computed
   Thermochemical properties will be computed
   Scaling standard convergence criteria by a factor of   5.00
   Mixed Murtagh-Sargent/Powell Hessian-updating used
   Solvent: benzene                                                         
   Internal dielectric constant:    1.000
   Continuum dielectric constant:   2.283
   Solvent probe molecule radius:   2.600
  
 Non-default print settings:
     11=  2
  
 Temporary integer options set:
     21= -1  73=  2
  
  atom       vdw   vdw2    cov     mass  grid  daf  charge   basis
  P1        2.147  2.074  1.060   30.974    Y    Y      Y    6-31g*
  Pd2       1.450  1.450  1.280  105.903    Y    Y      Y    lacv3p*
  N3        1.831  1.600  0.750   14.003    Y    Y      Y    6-31g*
  C4        1.949  1.900  0.770   12.000    Y    Y      Y    6-31g*
  C5        1.949  1.900  0.770   12.000    Y    Y      Y    6-31g*
  C6        1.949  1.900  0.770   12.000    Y    Y      Y    6-31g*
  C7        1.949  1.900  0.770   12.000    Y    Y      Y    6-31g*
  C8        1.949  1.900  0.770   12.000    Y    Y      Y    6-31g*
  C9        1.949  1.900  0.770   12.000    Y    Y      Y    6-31g*
  F10       1.736  1.682  0.720   18.998    Y    Y      Y    6-31g*
  H11       1.597  1.150  0.320    1.008    Y    Y      Y    6-31g*
  H12       1.597  1.150  0.320    1.008    Y    Y      Y    6-31g*
  H13       1.597  1.150  0.320    1.008    Y    Y      Y    6-31g*
  H14       1.597  1.150  0.320    1.008    Y    Y      Y    6-31g*
  H15       1.597  1.150  0.320    1.008    Y    Y      Y    6-31g*
  C16       1.949  1.900  0.770   12.000    Y    Y      Y    6-31g*
  C17       1.949  1.900  0.770   12.000    Y    Y      Y    6-31g*
  C18       1.949  1.900  0.770   12.000    Y    Y      Y    6-31g*
  C19       1.949  1.900  0.770   12.000    Y    Y      Y    6-31g*
  C20       1.949  1.900  0.770   12.000    Y    Y      Y    6-31g*
  C21       1.949  1.900  0.770   12.000    Y    Y      Y    6-31g*
  H22       1.597  1.150  0.320    1.008    Y    Y      Y    6-31g*
  H23       1.597  1.150  0.320    1.008    Y    Y      Y    6-31g*
  H24       1.597  1.150  0.320    1.008    Y    Y      Y    6-31g*
  H25       1.597  1.150  0.320    1.008    Y    Y      Y    6-31g*
  H26       1.597  1.150  0.320    1.008    Y    Y      Y    6-31g*
  C27       1.949  1.900  0.770   12.000    Y    Y      Y    6-31g*
  C28       1.949  1.900  0.770   12.000    Y    Y      Y    6-31g*
  C29       1.949  1.900  0.770   12.000    Y    Y      Y    6-31g*
  C30       1.949  1.900  0.770   12.000    Y    Y      Y    6-31g*
  C31       1.949  1.900  0.770   12.000    Y    Y      Y    6-31g*
  C32       1.949  1.900  0.770   12.000    Y    Y      Y    6-31g*
  C33       1.949  1.900  0.770   12.000    Y    Y      Y    6-31g*
  C34       1.949  1.900  0.770   12.000    Y    Y      Y    6-31g*
  C35       1.949  1.900  0.770   12.000    Y    Y      Y    6-31g*
  C36       1.949  1.900  0.770   12.000    Y    Y      Y    6-31g*
  C37       1.949  1.900  0.770   12.000    Y    Y      Y    6-31g*
  C38       1.949  1.900  0.770   12.000    Y    Y      Y    6-31g*
  C39       1.949  1.900  0.770   12.000    Y    Y      Y    6-31g*
  C40       1.949  1.900  0.770   12.000    Y    Y      Y    6-31g*
  C41       1.949  1.900  0.770   12.000    Y    Y      Y    6-31g*
  C42       1.949  1.900  0.770   12.000    Y    Y      Y    6-31g*
  C43       1.949  1.900  0.770   12.000    Y    Y      Y    6-31g*
  C44       1.949  1.900  0.770   12.000    Y    Y      Y    6-31g*
  C45       1.949  1.900  0.770   12.000    Y    Y      Y    6-31g*
  C46       1.949  1.900  0.770   12.000    Y    Y      Y    6-31g*
  C47       1.949  1.900  0.770   12.000    Y    Y      Y    6-31g*
  C48       1.949  1.900  0.770   12.000    Y    Y      Y    6-31g*
  C49       1.949  1.900  0.770   12.000    Y    Y      Y    6-31g*
  C50       1.949  1.900  0.770   12.000    Y    Y      Y    6-31g*
  C51       1.949  1.900  0.770   12.000    Y    Y      Y    6-31g*
  C52       1.949  1.900  0.770   12.000    Y    Y      Y    6-31g*
  C53       1.949  1.900  0.770   12.000    Y    Y      Y    6-31g*
  H54       1.597  1.150  0.320    1.008    Y    Y      Y    6-31g*
  H55       1.597  1.150  0.320    1.008    Y    Y      Y    6-31g*
  H56       1.597  1.150  0.320    1.008    Y    Y      Y    6-31g*
  H57       1.597  1.150  0.320    1.008    Y    Y      Y    6-31g*
  H58       1.597  1.150  0.320    1.008    Y    Y      Y    6-31g*
  H59       1.597  1.150  0.320    1.008    Y    Y      Y    6-31g*
  H60       1.597  1.150  0.320    1.008    Y    Y      Y    6-31g*
  H61       1.597  1.150  0.320    1.008    Y    Y      Y    6-31g*
  H62       1.597  1.150  0.320    1.008    Y    Y      Y    6-31g*
  H63       1.597  1.150  0.320    1.008    Y    Y      Y    6-31g*
  H64       1.597  1.150  0.320    1.008    Y    Y      Y    6-31g*
  H65       1.597  1.150  0.320    1.008    Y    Y      Y    6-31g*
  H66       1.597  1.150  0.320    1.008    Y    Y      Y    6-31g*
  H67       1.597  1.150  0.320    1.008    Y    Y      Y    6-31g*
  H68       1.597  1.150  0.320    1.008    Y    Y      Y    6-31g*
  H69       1.597  1.150  0.320    1.008    Y    Y      Y    6-31g*
  H70       1.597  1.150  0.320    1.008    Y    Y      Y    6-31g*
  H71       1.597  1.150  0.320    1.008    Y    Y      Y    6-31g*
  H72       1.597  1.150  0.320    1.008    Y    Y      Y    6-31g*
  H73       1.597  1.150  0.320    1.008    Y    Y      Y    6-31g*
  H74       1.597  1.150  0.320    1.008    Y    Y      Y    6-31g*
  H75       1.597  1.150  0.320    1.008    Y    Y      Y    6-31g*
  H76       1.597  1.150  0.320    1.008    Y    Y      Y    6-31g*
  H77       1.597  1.150  0.320    1.008    Y    Y      Y    6-31g*
  H78       1.597  1.150  0.320    1.008    Y    Y      Y    6-31g*
  H79       1.597  1.150  0.320    1.008    Y    Y      Y    6-31g*
  H80       1.597  1.150  0.320    1.008    Y    Y      Y    6-31g*
  H81       1.597  1.150  0.320    1.008    Y    Y      Y    6-31g*
  H82       1.597  1.150  0.320    1.008    Y    Y      Y    6-31g*
  H83       1.597  1.150  0.320    1.008    Y    Y      Y    6-31g*
  H84       1.597  1.150  0.320    1.008    Y    Y      Y    6-31g*
  H85       1.597  1.150  0.320    1.008    Y    Y      Y    6-31g*
  H86       1.597  1.150  0.320    1.008    Y    Y      Y    6-31g*
  H87       1.597  1.150  0.320    1.008    Y    Y      Y    6-31g*
  H88       1.597  1.150  0.320    1.008    Y    Y      Y    6-31g*
  C89       1.949  1.900  0.770   12.000    Y    Y      Y    6-31g*
  H90       1.597  1.150  0.320    1.008    Y    Y      Y    6-31g*
  H91       1.597  1.150  0.320    1.008    Y    Y      Y    6-31g*
  H92       1.597  1.150  0.320    1.008    Y    Y      Y    6-31g*
  C93       1.949  1.900  0.770   12.000    Y    Y      Y    6-31g*
  H94       1.597  1.150  0.320    1.008    Y    Y      Y    6-31g*
  H95       1.597  1.150  0.320    1.008    Y    Y      Y    6-31g*
  H96       1.597  1.150  0.320    1.008    Y    Y      Y    6-31g*
  H97       1.597  1.150  0.320    1.008    Y    Y      Y    6-31g*
  H98       1.597  1.150  0.320    1.008    Y    Y      Y    6-31g*
  H99       1.597  1.150  0.320    1.008    Y    Y      Y    6-31g*
  H100      1.597  1.150  0.320    1.008    Y    Y      Y    6-31g*
 
  atom      formal  2spin      esp    mulk    frag
  P1           0       0        Y    0.000       0
  Pd2          2       0        Y    0.000       0
  N3          -1       0        Y    0.000       0
  C4          -1       0        Y    0.000       0
  
  end of program pre
   
 Time(pre)  user:        2.1  user+sys:        2.1  wallclock:        2.3
  
  start of program onee
  
  smallest eigenvalue of S:    2.872E-04
  number of canonical orbitals.....          758
  end of program onee
   
 Time(onee)  user:        2.4  user+sys:        2.4  wallclock:        2.5
  
  start of program hfig
  
  initial wavefunction generated automatically from atomic wavefunctions
  Only one state below 0.010000
  Skip d-d repulsion considerations 
 
  Irreducible     Total no   No of occupied orbitals 
  representation  orbitals   Shell_1  Shell_2    ...
  No Symm          758        175
  ------------------------
  Orbital occupation/shell    1.000
 
  end of program hfig
   
 Time(hfig)  user:        0.8  user+sys:        0.8  wallclock:        0.9
  
  start of program probe
  
  end of program probe
   
 Time(probe)  user:        0.5  user+sys:        0.5  wallclock:        0.5
  
  start of program grid
  
   grid     grid set  grid #  grid sym
  ------    --------  ------  --------
  coarse        0        0        1
  medium        2        1        1
  fine          0        0        1
  ultrafine     4        2        1
  charge       -1        3        1
  gradient      4        2        1
  density       0        0        1
  DFT-fine    -11        4        1
  DFT-med.    -10        5        1
  DFT-grad    -12        6        1
  DFT-der2     -8        7        1
  DFT-cphf     -9        8        1
  LMP2-enrg     4        2        1
  LMP2-grad     2        1        1
  DFT-cphf2   -15        9        1
  PBF-dens      0        0        1
  plotting      0        0        1
  Rel-grad    -17        0        1
  
  number of gridpoints: 
     atom        P1      Pd2       N3       C4       C5       C6       C7
  grid # 1      617      363      106       78       95       94       99
  grid # 2      437      320      388      327      323      314      371
  grid # 3        8      276       22       35       28       18       12
  grid # 4     8714     8714     8714     8714     8714     8714     8714
  grid # 5     1192     1192     1192     1192     1192     1192     1192
  grid # 6     9132     9132     5922     5922     5922     5922     5922
  grid # 7    23034    32968    13958    13950    13950    13950    13950
  grid # 8      722     1150      756      748      748      748      748
  grid # 9      366     2198      406      394      394      394      394
   
  number of gridpoints: 
     atom        C8       C9      F10      H11      H12      H13      H14
  grid # 1       93       94      584      117      111       78      112
  grid # 2      314      323      564      466      448      333      457
  grid # 3       17       26      350      380      233       19      303
  grid # 4     8714     8714     8714     8714     8714     8714     8714
  grid # 5     1192     1192     1192     1192     1192     1192     1192
  grid # 6     5922     5922     5922     5922     5922     5922     5922
  grid # 7    13950    13950    23190    15206    15206    15206    15206
  grid # 8      748      748      770      786      786      786      786
  grid # 9      394      394      420      420      420      420      420
   
  number of gridpoints: 
     atom       H15      C16      C17      C18      C19      C20      C21
  grid # 1      111       96       93       92       99       96       96
  grid # 2      453      322      312      304      355      322      323
  grid # 3      268       32       16       11       17       29       39
  grid # 4     8714     8714     8714     8714     8714     8714     8714
  grid # 5     1192     1192     1192     1192     1192     1192     1192
  grid # 6     5922     5922     5922     5922     5922     5922     5922
  grid # 7    15206    13950    13950    13950    13950    13950    13950
  grid # 8      786      748      748      748      748      748      748
  grid # 9      420      394      394      394      394      394      394
   
  number of gridpoints: 
     atom       H22      H23      H24      H25      H26      C27      C28
  grid # 1      117       94       93      114      118       87       90
  grid # 2      466      391      385      456      466      372      371
  grid # 3      393      120       15      337      411        6        6
  grid # 4     8714     8714     8714     8714     8714     8714     8714
  grid # 5     1192     1192     1192     1192     1192     1192     1192
  grid # 6     5922     5922     5922     5922     5922     5922     5922
  grid # 7    15206    15206    15206    15206    15206    13950    13950
  grid # 8      786      786      786      786      786      748      748
  grid # 9      420      420      420      420      420      394      394
   
  number of gridpoints: 
     atom       C29      C30      C31      C32      C33      C34      C35
  grid # 1       92       81       81       80       81       93       95
  grid # 2      388      237      241      238      240      323      324
  grid # 3        8        6        6        6        6       11       27
  grid # 4     8714     8714     8714     8714     8714     8714     8714
  grid # 5     1192     1192     1192     1192     1192     1192     1192
  grid # 6     5922     5922     5922     5922     5922     5922     5922
  grid # 7    13950    13950    13950    13950    13950    13950    13950
  grid # 8      748      748      748      748      748      748      748
  grid # 9      394      394      394      394      394      394      394
   
  number of gridpoints: 
     atom       C36      C37      C38      C39      C40      C41      C42
  grid # 1       96       94      100       99       98       95      100
  grid # 2      322      324      353      359      362      329      362
  grid # 3       31       13        8        7       12       23       16
  grid # 4     8714     8714     8714     8714     8714     8714     8714
  grid # 5     1192     1192     1192     1192     1192     1192     1192
  grid # 6     5922     5922     5922     5922     5922     5922     5922
  grid # 7    13950    13950    13950    13950    13950    13950    13950
  grid # 8      748      748      748      748      748      748      748
  grid # 9      394      394      394      394      394      394      394
   
  number of gridpoints: 
     atom       C43      C44      C45      C46      C47      C48      C49
  grid # 1       94       97       92       81       91       81       90
  grid # 2      321      345      308      241      306      239      305
  grid # 3       17       12        6        6        6        6        6
  grid # 4     8714     8714     8714     8714     8714     8714     8714
  grid # 5     1192     1192     1192     1192     1192     1192     1192
  grid # 6     5922     5922     5922     5922     5922     5922     5922
  grid # 7    13950    13950    13950    13950    13950    13950    13950
  grid # 8      748      748      748      748      748      748      748
  grid # 9      394      394      394      394      394      394      394
   
  number of gridpoints: 
     atom       C50      C51      C52      C53      H54      H55      H56
  grid # 1       79       82       82       79      100      104       95
  grid # 2      241      239      239      247      421      428      411
  grid # 3        6        6        6        6      150      179       44
  grid # 4     8714     8714     8714     8714     8714     8714     8714
  grid # 5     1192     1192     1192     1192     1192     1192     1192
  grid # 6     5922     5922     5922     5922     5922     5922     5922
  grid # 7    13950    13950    13950    13950    15206    15206    15206
  grid # 8      748      748      748      748      786      786      786
  grid # 9      394      394      394      394      420      420      420
   
  number of gridpoints: 
     atom       H57      H58      H59      H60      H61      H62      H63
  grid # 1      101      104      107      104      105      101      117
  grid # 2      425      436      446      438      437      415      469
  grid # 3      156      149      195      121      177       66      406
  grid # 4     8714     8714     8714     8714     8714     8714     8714
  grid # 5     1192     1192     1192     1192     1192     1192     1192
  grid # 6     5922     5922     5922     5922     5922     5922     5922
  grid # 7    15206    15206    15206    15206    15206    15206    15206
  grid # 8      786      786      786      786      786      786      786
  grid # 9      420      420      420      420      420      420      420
   
  number of gridpoints: 
     atom       H64      H65      H66      H67      H68      H69      H70
  grid # 1      117      107      104       92      100      110      106
  grid # 2      468      436      428      382      414      453      441
  grid # 3      411      146       87       39       35      285      191
  grid # 4     8714     8714     8714     8714     8714     8714     8714
  grid # 5     1192     1192     1192     1192     1192     1192     1192
  grid # 6     5922     5922     5922     5922     5922     5922     5922
  grid # 7    15206    15206    15206    15206    15206    15206    15206
  grid # 8      786      786      786      786      786      786      786
  grid # 9      420      420      420      420      420      420      420
   
  number of gridpoints: 
     atom       H71      H72      H73      H74      H75      H76      H77
  grid # 1      110      105      106      108      109      109       98
  grid # 2      451      427      442      450      448      436      404
  grid # 3      309      107      230      307      235      151      119
  grid # 4     8714     8714     8714     8714     8714     8714     8714
  grid # 5     1192     1192     1192     1192     1192     1192     1192
  grid # 6     5922     5922     5922     5922     5922     5922     5922
  grid # 7    15206    15206    15206    15206    15206    15206    15206
  grid # 8      786      786      786      786      786      786      786
  grid # 9      420      420      420      420      420      420      420
   
  number of gridpoints: 
     atom       H78      H79      H80      H81      H82      H83      H84
  grid # 1      107       76      108      110      107      107      109
  grid # 2      436      314      451      452      439      448      455
  grid # 3      180       28      265      319      188      253      318
  grid # 4     8714     8714     8714     8714     8714     8714     8714
  grid # 5     1192     1192     1192     1192     1192     1192     1192
  grid # 6     5922     5922     5922     5922     5922     5922     5922
  grid # 7    15206    15206    15206    15206    15206    15206    15206
  grid # 8      786      786      786      786      786      786      786
  grid # 9      420      420      420      420      420      420      420
   
  number of gridpoints: 
     atom       H85      H86      H87      H88      C89      H90      H91
  grid # 1      107      108      111      109       82      108       99
  grid # 2      442      446      460      457      239      445      425
  grid # 3      212      243      346      325        6      257      167
  grid # 4     8714     8714     8714     8714     8714     8714     8714
  grid # 5     1192     1192     1192     1192     1192     1192     1192
  grid # 6     5922     5922     5922     5922     5922     5922     5922
  grid # 7    15206    15206    15206    15206    13950    15206    15206
  grid # 8      786      786      786      786      748      786      786
  grid # 9      420      420      420      420      394      420      420
   
  number of gridpoints: 
     atom       H92      C93      H94      H95      H96      H97      H98
  grid # 1      100       79      108      103       94      109      107
  grid # 2      425      241      442      424      407      445      443
  grid # 3      152        6      228      143       31      257      227
  grid # 4     8714     8714     8714     8714     8714     8714     8714
  grid # 5     1192     1192     1192     1192     1192     1192     1192
  grid # 6     5922     5922     5922     5922     5922     5922     5922
  grid # 7    15206    13950    15206    15206    15206    15206    15206
  grid # 8      786      748      786      786      786      786      786
  grid # 9      420      394      420      420      420      420      420
   
  number of gridpoints: 
     atom       H99     H100    total
  grid # 1      109      108    11154
  grid # 2      447      447    38152
  grid # 3      270      268    12674
  grid # 4     8714     8714   871400
  grid # 5     1192     1192   119200
  grid # 6     5922     5922   598620
  grid # 7    15206    15206  1501430
  grid # 8      786      786    77296
  grid # 9      420      420    42644
   
  end of program grid
   
 Time(grid)  user:      392.4  user+sys:      392.4  wallclock:      393.1
  
  start of program rwr
  
  end of program rwr
   
 Time(rwr)  user:       12.9  user+sys:       12.9  wallclock:       14.4
  
  start of program scf
  
 number of electrons..........        350
 number of alpha electrons....        175
 number of beta electrons.....        175
 number of orbitals, total....        758
 number of doubly-occ'd orbs..        175
 number of open shell orbs....          0
 number of occupied orbitals..        175
 number of virtual orbitals...        583
 number of hamiltonians.......          1
 number of shells.............          1
 SCF type: DFT=Becke_3_Parameter/HF+Slater+Becke88+PW91+PW-GGAIIC (B3PW91-D3)
 Energy computed with NOPS off.
 Convergence Criterion:
    Energy (econv):       1.00E-05
    RMS density (dconv):  5.00E-06
  
       i  u  d  i  g                   
       t  p  i  c  r                                 RMS    maximum
       e  d  i  u  i                       energy  density   DIIS  
       r  t  s  t  d       total energy    change  change    error 
  
etot    1  N  N  5  M   -2211.61522176703           1.8E-03  1.4E-01
etot    2  Y  Y  6  M   -2215.46848678804  3.9E+00  2.8E-03  9.2E-02
etot    3  Y  Y  6  M   -2216.77832713617  1.3E+00  1.1E-03  5.4E-02
etot    4  N  Y  2  U   -2217.07682411312  3.0E-01  8.4E-04  3.1E-02
etot    5  Y  Y  6  M   -2217.17671991952  1.0E-01  6.0E-04  1.9E-02
etot    6  N  Y  2  U   -2217.18798104901  1.1E-02  5.0E-04  8.2E-03
etot    7  Y  Y  6  M   -2217.19943024123  1.1E-02  8.7E-05  5.2E-03
etot    8  N  Y  2  U   -2217.20544288992  6.0E-03  3.4E-05  1.6E-03
etot    9  N  Y  2  U   -2217.20584578065  4.0E-04  1.2E-05  4.2E-04
etot   10  N  Y  2  U   -2217.20586114640  1.5E-05  4.6E-06  1.1E-04
etot   11  N  N  2  U   -2217.20586631259  5.2E-06  0.0E+00  0.0E+00
 
  Computing the dispersion energy correction and its gradients...
  
  
 Energy components, in hartrees:
   (A)  Nuclear repulsion............    6939.36770246464
   (E)  Total one-electron terms.....  -16897.77339746897
   (F)    Electron-nuclear...........  -19021.94559320780
   (H)    Kinetic....................    2124.17219573883
   (I)  Total two-electron terms.....    7741.19982869174
   (J)    Coulomb....................    8037.12195744103
   (K)    Exchange+Correlation.......    -295.92212874929
   (L)  Electronic energy............   -9156.57356877723  (E+I)
   (N0) D3 correction................      -0.19801958349
   (N)  Total energy.................   -2217.40388589608  (A+L+N0)
   (O)  Gas phase energy.............   -2217.40388589608
  
 SCFE: SCF energy: DFT(b3pw91-d3)     -2217.40388589608 hartrees   iterations:  11
  
 
 HOMO energy:    -0.16697
 LUMO energy:    -0.04334
 
  Orbital energies (hartrees): 
   -77.07479   -24.68161   -14.33130   -10.24007   -10.20765   -10.20366
   -10.20107   -10.20025   -10.19989   -10.19922   -10.18614   -10.18592
   -10.18442   -10.18114   -10.18031   -10.17709   -10.17289   -10.17238
   -10.17224   -10.17153   -10.17017   -10.16782   -10.16736   -10.16690
   -10.16683   -10.16592   -10.16490   -10.16393   -10.16371   -10.16318
   -10.16276   -10.15796   -10.15712   -10.15649   -10.15414   -10.15320
   -10.15174   -10.14983   -10.14835   -10.14650   -10.14574   -10.14454
   -10.14382   -10.13750    -6.57329    -4.73156    -4.73090    -4.72793
    -3.31456    -2.04913    -2.04118    -2.01907    -1.21807    -0.88555
    -0.87140    -0.85475    -0.85028    -0.82990    -0.82252    -0.81244
    -0.80457    -0.80306    -0.78239    -0.76271    -0.75959    -0.75606
    -0.74992    -0.73541    -0.71869    -0.71218    -0.70747    -0.69535
    -0.69243    -0.69141    -0.68147    -0.67771    -0.67611    -0.67125
    -0.64913    -0.63500    -0.62883    -0.62074    -0.60546    -0.60243
    -0.59979    -0.59564    -0.58542    -0.57490    -0.55683    -0.54842
    -0.54229    -0.53369    -0.52867    -0.51618    -0.51027    -0.50255
    -0.48493    -0.48037    -0.47619    -0.46994    -0.46560    -0.46531
    -0.46095    -0.45866    -0.45473    -0.45349    -0.45133    -0.44899
    -0.44245    -0.44058    -0.43676    -0.43134    -0.42955    -0.42845
    -0.42642    -0.42299    -0.42056    -0.41848    -0.41169    -0.40835
    -0.40296    -0.40014    -0.39846    -0.39465    -0.39289    -0.39195
    -0.39031    -0.38693    -0.38151    -0.37982    -0.37905    -0.37577
    -0.37396    -0.37305    -0.37214    -0.36893    -0.36664    -0.36401
    -0.36143    -0.35691    -0.35484    -0.35157    -0.34823    -0.34548
    -0.34483    -0.34198    -0.33871    -0.33830    -0.33173    -0.33091
    -0.32889    -0.32687    -0.31951    -0.31741    -0.31449    -0.31246
    -0.30926    -0.30063    -0.29720    -0.29592    -0.28461    -0.27852
    -0.26842    -0.25574    -0.25224    -0.24775    -0.24629    -0.24249
    -0.23610    -0.23516    -0.22520    -0.21740    -0.20951    -0.20295
    -0.16697    -0.04334    -0.02982    -0.01860    -0.01459    -0.00781
    -0.00052     0.00829     0.01603     0.02038     0.02902
 
  end of program scf
   
 Time(scf)  user:      435.7  user+sys:      435.7  wallclock:      443.0
  
  start of program der1a
  
  end of program der1a
   
 Time(der1a)  user:        7.9  user+sys:        7.9  wallclock:        8.0
  
  start of program rwr
  
  end of program rwr
   
 Time(rwr)  user:       15.6  user+sys:       15.6  wallclock:       19.5
  
  start of program der1b
  
   
  forces (hartrees/bohr) : total     
   
 atom  label           x              y              z
 ---- --------   -------------  -------------  -------------
    1 P1         -6.208255E-03   4.065151E-03  -2.456643E-02
    2 Pd2         9.687110E-03   5.179019E-03   3.750871E-03
    3 N3          7.972874E-03  -3.468462E-03   4.830620E-02
    4 C4         -3.573990E-02   6.235432E-03   4.580321E-03
    5 C5          1.251248E-02  -7.367915E-03   4.822219E-03
    6 C6          2.966210E-05   3.831978E-03   9.765876E-03
    7 C7          8.003964E-03  -5.603218E-03  -2.438051E-03
    8 C8          1.026920E-02  -5.765047E-02   4.025721E-03
    9 C9          1.130098E-02   2.161736E-03   4.642269E-03
   10 F10         6.808204E-03  -1.977200E-03  -1.794219E-03
   11 H11         6.114214E-04   2.065491E-03  -3.929449E-04
   12 H12         9.313065E-05  -1.121766E-03  -1.393652E-04
   13 H13         6.379982E-02  -1.148531E-01  -5.319028E-02
   14 H14         6.269610E-04  -1.314397E-03  -6.175862E-04
   15 H15        -3.097188E-03   4.631737E-02  -3.265930E-02
   16 C16        -4.579003E-04   7.524038E-03  -4.424009E-03
   17 C17         1.815445E-02  -1.536306E-02   5.492564E-02
   18 C18        -5.768601E-03  -3.240469E-02   3.327994E-02
   19 C19        -1.095851E-02  -3.241284E-02  -1.898820E-02
   20 C20         4.815261E-03   6.986428E-03   1.477981E-02
   21 C21        -2.195563E-03  -9.288548E-03  -1.621975E-03
   22 H22        -2.273258E-03  -8.585867E-03  -6.079312E-03
   23 H23         8.846718E-03  -1.094481E-02   3.099183E-02
   24 H24        -1.429337E-02  -2.449774E-02   4.204514E-02
   25 H25        -6.416221E-05   8.723206E-03  -4.708887E-03
   26 H26        -2.315385E-03   2.264362E-04  -1.049848E-02
   27 C27        -7.834610E-04  -6.749330E-04  -1.370008E-03
   28 C28         3.796970E-03   2.897509E-03  -2.131332E-03
   29 C29        -7.221630E-04   1.450858E-03  -4.791951E-03
   30 C30         1.938543E-04   9.507498E-05  -7.272005E-04
   31 C31        -1.607434E-03   3.044963E-03  -2.348144E-03
   32 C32        -1.399391E-03  -1.160808E-05  -3.226418E-03
   33 C33         2.901691E-03  -1.801781E-03   1.902408E-03
   34 C34        -1.295701E-03   3.829338E-03   1.039252E-03
   35 C35         5.414050E-04  -8.321608E-04   5.089914E-03
   36 C36         7.737127E-04  -4.285976E-03   3.755418E-03
   37 C37         5.119870E-04  -3.062244E-03   7.224629E-04
   38 C38         4.737851E-04  -9.370904E-05  -6.890236E-03
   39 C39         3.374365E-03  -1.023136E-03   3.294462E-03
   40 C40        -5.222322E-04  -8.246673E-04   4.063807E-03
   41 C41         3.118577E-03  -5.080230E-03  -1.972640E-03
   42 C42         1.864585E-03   4.234830E-05  -6.249121E-03
   43 C43        -3.394713E-02   2.523952E-02  -1.651463E-02
   44 C44        -1.703964E-02   8.018395E-03  -1.297846E-02
   45 C45         4.876425E-04  -1.419580E-03  -8.299663E-03
   46 C46         7.665756E-04   1.205950E-03   8.751874E-04
   47 C47         1.747856E-03   1.019425E-03  -2.758429E-03
   48 C48         1.173443E-03   1.158711E-03  -3.233305E-04
   49 C49         2.833190E-03   2.331341E-03   4.706160E-04
   50 C50         1.967869E-02   6.456020E-02  -3.316796E-02
   51 C51        -5.674072E-04   6.259869E-04   3.629333E-05
   52 C52        -5.221826E-04  -3.178871E-05  -9.146948E-04
   53 C53        -1.000722E-03  -1.717198E-04  -3.216829E-05
   54 H54         3.277897E-03   5.061668E-03   3.204544E-03
   55 H55         2.218292E-03  -5.205069E-03   2.443588E-03
   56 H56        -8.780411E-04  -5.744750E-04  -1.515000E-02
   57 H57         1.917889E-03   5.116314E-03   2.801289E-03
   58 H58        -5.812363E-03   2.144272E-03  -4.853923E-05
   59 H59         1.735379E-03  -1.456503E-03  -2.942207E-03
   60 H60        -4.756097E-05   2.034453E-04  -3.656557E-03
   61 H61         7.541846E-04  -3.210797E-03   6.558638E-03
   62 H62        -1.302809E-03   5.757904E-03   2.947431E-03
   63 H63         4.166220E-04   9.337463E-04   6.546111E-03
   64 H64         1.577659E-03  -5.257181E-03   3.843898E-03
   65 H65         1.492833E-03  -5.200891E-03  -2.477163E-03
   66 H66         5.907093E-03   1.631283E-03  -1.781050E-03
   67 H67        -4.601867E-02   8.295336E-03  -3.086278E-02
   68 H68        -1.695375E-03   3.315891E-03   3.799075E-03
   69 H69         1.216986E-03  -4.433621E-03  -4.071816E-03
   70 H70         3.703242E-03  -2.291024E-03   5.172847E-03
   71 H71        -5.780395E-03  -1.947374E-03   2.125552E-03
   72 H72        -1.950607E-03   2.549867E-03   3.816662E-03
   73 H73         4.028677E-03  -3.524538E-03  -4.059723E-03
   74 H74         4.741449E-03   1.289569E-03   4.963157E-03
   75 H75        -2.859370E-03   2.342095E-03  -1.370422E-03
   76 H76        -5.418407E-03  -3.041416E-03  -2.281737E-03
   77 H77         1.385710E-02  -7.176658E-03  -2.848512E-02
   78 H78        -4.949572E-03   7.314467E-05  -1.571852E-03
   79 H79        -2.924384E-02   1.402510E-01   3.659027E-02
   80 H80         2.715801E-03  -3.411912E-03  -4.134216E-03
   81 H81         4.971189E-03   1.414208E-03   3.872648E-03
   82 H82        -3.620655E-03  -4.403953E-03   3.360657E-03
   83 H83         4.308459E-03   2.556096E-03   1.956884E-03
   84 H84         1.477937E-03  -1.506460E-03  -6.795820E-03
   85 H85        -2.829284E-03   4.947438E-03   2.173243E-03
   86 H86         5.101496E-03   1.576940E-03   2.417170E-03
   87 H87        -1.138140E-03  -5.825352E-03   2.433662E-03
   88 H88         1.517091E-03  -1.347010E-03  -6.125700E-03
   89 C89        -1.600042E-03  -1.856771E-03  -4.541569E-04
   90 H90         3.908783E-03   4.624733E-03   3.340762E-04
   91 H91         6.929545E-04  -3.851535E-03   5.840166E-03
   92 H92        -6.096815E-03   2.540387E-03   5.407234E-04
   93 C93        -2.835659E-03  -1.675473E-03  -3.605775E-03
   94 H94        -5.893685E-03   3.088014E-04   3.850781E-03
   95 H95         1.836846E-03  -4.841261E-03   2.514219E-03
   96 H96        -8.676172E-04   1.429792E-03  -1.317287E-02
   97 H97        -6.297490E-03   1.902946E-04   1.427608E-03
   98 H98        -6.039851E-03  -7.128996E-04   2.927911E-03
   99 H99         3.160717E-03   4.929861E-03   3.180853E-03
  100 H100        2.415020E-03   6.020653E-03   2.330116E-03
 -------------   -------------  -------------  -------------
     total        7.663566E-04  -5.792171E-04   1.276488E-03
   
  end of program der1b
   
 Time(der1b)  user:      151.8  user+sys:      151.8  wallclock:      152.6
  
  start of program geopt
  
 ----------------------------------------------------------------------------
  Geometry optimization step   1
  Total energy:     -2217.40388589608 hartrees
 ----------------------------------------------------------------------------
  
  Hessian eigenvalues: 
    0.00000E+00    0.00000E+00    0.00000E+00    0.00000E+00    0.00000E+00
    0.00000E+00    0.00000E+00    0.00000E+00    0.00000E+00    0.00000E+00
    0.00000E+00    0.00000E+00    0.00000E+00    0.00000E+00    0.00000E+00
    0.00000E+00    0.00000E+00    0.00000E+00    0.00000E+00    0.00000E+00
    0.00000E+00    0.00000E+00    0.00000E+00    0.00000E+00    0.00000E+00
    0.00000E+00    0.00000E+00    0.00000E+00    0.00000E+00    0.00000E+00
    0.00000E+00    0.00000E+00    0.00000E+00    0.00000E+00    8.41246E-03
    1.15637E-02    1.17465E-02    1.53328E-02    1.78448E-02    1.79349E-02
    1.79390E-02    1.85302E-02    1.86324E-02    1.86845E-02    1.90248E-02
    1.90441E-02    1.91101E-02    1.94457E-02    1.95840E-02    2.01744E-02
    2.57084E-02    2.63231E-02    2.67168E-02    2.74408E-02    2.90603E-02
    3.01530E-02    3.03606E-02    3.09794E-02    3.50825E-02    3.86138E-02
    4.06720E-02    4.14357E-02    4.55666E-02    4.64428E-02    4.93238E-02
    5.50481E-02    5.85839E-02    6.18019E-02    6.73972E-02    7.09853E-02
    7.21031E-02    7.36304E-02    7.37315E-02    7.41349E-02    7.41819E-02
    7.48404E-02    7.52262E-02    7.57688E-02    7.60414E-02    7.72921E-02
    8.11049E-02    8.12905E-02    8.98786E-02    9.79277E-02    1.08902E-01
    1.14588E-01    1.18143E-01    1.18904E-01    1.20719E-01    1.21279E-01
    1.22599E-01    1.28424E-01    1.29005E-01    1.29423E-01    1.29622E-01
    1.30319E-01    1.31961E-01    1.33104E-01    1.33122E-01    1.33388E-01
    1.33619E-01    1.35789E-01    1.36344E-01    1.43125E-01    1.43726E-01
    1.46701E-01    1.53882E-01    1.57895E-01    1.62433E-01    1.64977E-01
    1.67931E-01    1.68965E-01    1.71256E-01    1.77943E-01    1.83139E-01
    1.92252E-01    1.98865E-01    1.99070E-01    1.99729E-01    2.01289E-01
    2.04366E-01    2.05156E-01    2.06381E-01    2.10115E-01    2.11415E-01
    2.13265E-01    2.13411E-01    2.18818E-01    2.21131E-01    2.23270E-01
    2.26191E-01    2.27847E-01    2.28845E-01    2.29154E-01    2.29422E-01
    2.29472E-01    2.29556E-01    2.30327E-01    2.30949E-01    2.31064E-01
    2.31279E-01    2.31617E-01    2.31966E-01    2.32610E-01    2.32695E-01
    2.32982E-01    2.34596E-01    2.35572E-01    2.37592E-01    2.37742E-01
    2.37751E-01    2.37936E-01    2.38209E-01    2.39210E-01    2.39424E-01
    2.40441E-01    2.40511E-01    2.41243E-01    2.42385E-01    2.42904E-01
    2.44465E-01    2.45949E-01    2.47781E-01    2.48173E-01    2.56551E-01
    2.58269E-01    2.64259E-01    2.74894E-01    2.79555E-01    2.85246E-01
    2.85330E-01    2.86448E-01    2.91734E-01    2.96209E-01    2.97679E-01
    2.98974E-01    3.01246E-01    3.07628E-01    3.08696E-01    3.11479E-01
    3.18369E-01    3.18716E-01    3.20007E-01    3.20069E-01    3.20257E-01
    3.20472E-01    3.20478E-01    3.20481E-01    3.20548E-01    3.21802E-01
    3.21907E-01    3.22232E-01    3.22429E-01    3.22484E-01    3.22794E-01
    3.22846E-01    3.22897E-01    3.22992E-01    3.23118E-01    3.23356E-01
    3.23448E-01    3.23862E-01    3.24385E-01    3.24983E-01    3.25155E-01
    3.25220E-01    3.25227E-01    3.25227E-01    3.25311E-01    3.25609E-01
    3.26189E-01    3.26296E-01    3.26321E-01    3.26362E-01    3.26402E-01
    3.26951E-01    3.27338E-01    3.27549E-01    3.27752E-01    3.28191E-01
    3.28309E-01    3.28453E-01    3.29932E-01    3.30069E-01    3.30353E-01
    3.31228E-01    3.33296E-01    3.33450E-01    3.33479E-01    3.33591E-01
    3.33684E-01    3.33953E-01    3.34771E-01    3.35439E-01    3.35991E-01
    3.36203E-01    3.36782E-01    3.36917E-01    3.37178E-01    3.37783E-01
    3.38968E-01    3.39297E-01    3.39615E-01    3.39623E-01    3.40455E-01
    3.40598E-01    3.40715E-01    3.40725E-01    3.41318E-01    3.42393E-01
    3.44851E-01    3.47170E-01    3.48833E-01    3.51008E-01    3.52111E-01
    3.53683E-01    3.56651E-01    3.57571E-01    3.59995E-01    3.60465E-01
    3.60856E-01    3.61148E-01    3.61735E-01    3.63395E-01    3.64021E-01
    3.64564E-01    3.65321E-01    3.68100E-01    3.68792E-01    3.69599E-01
    3.74298E-01    3.81338E-01    3.83216E-01    3.84008E-01    3.84315E-01
    3.84834E-01    3.85080E-01    3.85290E-01    3.85832E-01    3.86432E-01
    3.86740E-01    3.86976E-01    3.87911E-01    3.88871E-01    3.98094E-01
    4.04012E-01    4.07646E-01    4.08925E-01    4.12357E-01    4.13123E-01
    4.24546E-01    4.34368E-01    4.40882E-01    4.41482E-01    4.51102E-01
    4.62341E-01    4.70486E-01    4.85578E-01    4.86355E-01    4.93701E-01
    5.05851E-01    5.21350E-01    5.32112E-01    5.32434E-01    5.35228E-01
    5.40607E-01    5.46823E-01    5.50867E-01    5.65411E-01    5.93381E-01
    6.08200E-01    6.09408E-01    6.11568E-01    6.18418E-01    6.39582E-01
    6.42837E-01    6.74255E-01    6.79436E-01    6.91598E-01    7.01296E-01
    7.39759E-01    7.98647E-01    1.11134E+00    1.43649E+00    1.58179E+00
    7.93508E+00    2.14217E+01    7.78287E+01
  
 WARNING: Hessian has wrong number of negative eigenvalues:           0
  
  TS search will follow eigenvector  35 on this iteration
  
  Selected vector:  eigenvalue     8.41246E-03

 35)  C39-C40-C47-H72(205)  0.70552
      C39-C40-C47-C48(204)  0.70511
  
  
  Level shifts adjusted to satisfy step-size constraints
   Step size:    0.1008110
   Cos(theta):   0.8341679
   Final level shift:  -6.7985934E+00
  
  gradient maximum:        1.6984E+00 .  (  2.2500E-03 )
  gradient rms:            2.0518E-01 .  (  1.5000E-03 )
  displacement maximum:    3.4512E-02 .  (  9.0000E-03 )
  displacement rms:        5.2397E-03 *  (  6.0000E-03 )
  
  predicted energy change:  -1.8629E-01
  step size:     0.09489
  trust radius:  0.10000
  
  molecular structure not yet converged...
  
  center of mass moved by:
     x:     3.1267E-02     y:    -4.6251E-02     z:     3.5200E-02
  
  new geometry: 
                                   angstroms
  atom               x                 y                 z
  P1            0.0204423471      0.0234853587      0.0100583360 
  Pd2           0.0614384155     -0.0388576716      2.2907992665 
  N3            0.5189749638     -0.1683229536      4.2756941513 
  C4            4.8537023581     -0.2414160156      2.5476812054 
  C5            4.0799333368     -1.4044966838      2.5651690201 
  C6            2.6947591042     -1.3604357770      2.7287017732 
  C7            2.0291999370     -0.1317640066      2.8667050452 
  C8            2.8039090626      1.0411151493      2.8626347620 
  C9            4.1858853891      0.9795752779      2.7000934891 
  F10           6.1769675231     -0.2809005518      2.3877063935 
  H11           4.5667084812     -2.3727480983      2.4473391488 
  H12           2.1332607189     -2.2907293781      2.7316820783 
  H13           2.3326067113      2.0137558151      2.9806156431 
  H14           4.7586255827      1.9074107416      2.6903717895 
  H15           0.6572881322     -1.1126311829      4.8146360113 
  C16           1.2634034054      3.1554376412      6.8359207376 
  C17           0.9890257111      3.3653701962      5.4765494832 
  C18           0.7433611268      2.2686684402      4.6325648883 
  C19           0.7694710327      0.9632883337      5.1474923838 
  C20           1.0428021113      0.7557716071      6.5097644328 
  C21           1.2898644359      1.8503341043      7.3527517509 
  H22           1.4562258328      4.0154330849      7.4985371607 
  H23           0.9705243120      4.3917540793      5.0762220966 
  H24           0.5228785326      2.4305578681      3.5655255031 
  H25           1.0670088510     -0.2684977667      6.9173275275 
  H26           1.5054717901      1.6845899851      8.4213615083 
  C27           1.7787811364      0.0507997520     -0.8860077638 
  C28          -0.9813183242     -1.5288595881     -0.6937431316 
  C29          -0.7975078997      1.5127460045     -0.8416619364 
  C30           1.8174310617      0.1487228023     -2.4317530558 
  C31           2.5332975912     -1.2317179658     -0.4637710010 
  C32          -0.7679014034     -2.6655832102      0.3377218249 
  C33          -2.4820983051     -1.1671990738     -0.7696082508 
  C34          -0.8931301002      1.3844197286     -2.2521303393 
  C35          -1.2795826265      2.4230951700     -3.1077409268 
  C36          -1.5760200335      3.6735946083     -2.5583456717 
  C37          -1.5607480461      3.8102193004     -1.1673364447 
  C38          -1.2323046601      2.7569295601     -0.2735130810 
  C39          -1.5440191072      3.0883288132      1.1694808593 
  C40          -2.8979641757      2.9776188168      1.6135897899 
  C41          -3.2164745578      3.3842175667      2.9208673199 
  C42          -2.2498873092      3.8978222438      3.8004194257 
  C43          -0.9496737805      4.0698483519      3.3059987243 
  C44          -0.5741901442      3.7000775190      2.0035432406 
  C45           0.8056562842      4.0755513771      1.4551466125 
  C46           0.7686343019      5.4996788382      0.8473406635 
  C47          -4.0345043911      2.5145518438      0.6872046657 
  C48          -5.0539666451      1.5721903989      1.3630361574 
  C49          -2.5804819891      4.2268016886      5.2533522282 
  C50           1.9582214286      3.9993145817      2.4753906657 
  C51          -4.7847942647      3.7340000618      0.0955797184 
  C52          -2.9305972220      2.9412161897      6.0371844220 
  C53          -3.6969971311      5.2861346702      5.3791136129 
  H54           1.3050584391     -0.6720963111     -2.9542195403 
  H55           1.4202812362      1.1084898664     -2.7999242591 
  H56           2.5574617288     -1.3454139928      0.6311849791 
  H57           2.0997128643     -2.1389754646     -0.9195789593 
  H58           0.2971526505     -2.9399289558      0.4339312375 
  H59          -1.1442259055     -2.3822807487      1.3331976101 
  H60          -2.8469058247     -0.7768485160      0.1932855650 
  H61          -2.6886087294     -0.4283414737     -1.5635570824 
  H62          -0.6546937176      0.4223130521     -2.7074359510 
[...]
    C51      X     0.00002  0.00022  0.00001  0.00000 -0.00001 -0.00000
    C51      Y     0.00002  0.00039 -0.00000  0.00000  0.00001 -0.00000
    C51      Z     0.00000 -0.00043 -0.00001 -0.00001 -0.00002 -0.00000
    C52      X    -0.00004 -0.00003  0.00083  0.00032 -0.00001 -0.00001
    C52      Y     0.00003  0.00001 -0.00049 -0.00018  0.00000 -0.00000
    C52      Z    -0.00000  0.00001 -0.00010 -0.00003  0.00001  0.00000
    C53      X     0.00001 -0.00001  0.00003  0.00001 -0.00000 -0.00000
    C53      Y    -0.00000  0.00001  0.00003  0.00001  0.00001 -0.00000
    C53      Z    -0.00001  0.00000 -0.00003 -0.00001  0.00001  0.00000
    H54      X    -0.00030 -0.00056  0.00021 -0.00053  0.00207  0.00000
    H54      Y    -0.00059 -0.00096  0.00040 -0.00104  0.00036  0.00003
    H54      Z    -0.00042 -0.00065  0.00035 -0.00090  0.00030  0.00004
    H55      X     0.00010 -0.00086 -0.00011  0.00015  0.00727 -0.00000
    H55      Y    -0.00021  0.00268  0.00023 -0.00025 -0.01819 -0.00002
    H55      Z     0.00008 -0.00105 -0.00011  0.00016  0.00691  0.00002
    H56      X    -0.00303  0.00000 -0.00067  0.00136 -0.00011 -0.00002
    H56      Y    -0.00313 -0.00001 -0.00068  0.00141 -0.00032 -0.00003
    H56      Z     0.02113  0.00009  0.00495 -0.00999  0.00139 -0.00016
    H57      X     0.00111  0.00015  0.00043 -0.00096  0.00006  0.00002
    H57      Y     0.00296  0.00033  0.00123 -0.00269  0.00016  0.00010
    H57      Z     0.00136  0.00022  0.00062 -0.00141  0.00003  0.00010
    H58      X     0.00645 -0.00019 -0.00057  0.00086 -0.00000  0.00004
    H58      Y    -0.00113  0.00001  0.00011 -0.00014 -0.00011 -0.00004
    H58      Z    -0.00013 -0.00002 -0.00002  0.00002  0.00004 -0.00005
    H59      X    -0.00482  0.00018 -0.00003 -0.00009 -0.00080  0.00000
    H59      Y     0.00281 -0.00016  0.00007  0.00004  0.00063 -0.00000
    H59      Z     0.01088 -0.00041  0.00020 -0.00002  0.00147  0.00003
    H60      X    -0.00005  0.00013  0.00001  0.00004 -0.00080 -0.00000
    H60      Y     0.00009 -0.00014  0.00001 -0.00002  0.00050 -0.00003
    H60      Z     0.00006 -0.00047  0.00001 -0.00006  0.00262  0.00005
    H61      X     0.00029 -0.00037 -0.00004  0.00001  0.00164 -0.00001
    H61      Y    -0.00051  0.00022  0.00008  0.00002 -0.00190  0.00003
    H61      Z     0.00056 -0.00031 -0.00009 -0.00003  0.00133 -0.00006
    H62      X     0.00037  0.03604 -0.00008  0.00015 -0.36700 -0.00001
    H62      Y    -0.00072 -0.07350  0.00015 -0.00027  0.74232 -0.00000
    H62      Z    -0.00048 -0.04658  0.00011 -0.00015  0.44419  0.00003
    H63      X     0.00026  0.02086 -0.00001 -0.00001  0.01043 -0.00001
    H63      Y     0.00048  0.03824 -0.00001 -0.00002  0.01100  0.00001
    H63      Z     0.00477  0.38361 -0.00010 -0.00021  0.15128 -0.00001
    H64      X     0.00415  0.30566 -0.00007 -0.00010  0.01266  0.00000
    H64      Y    -0.00638 -0.46955  0.00011  0.00015 -0.01963 -0.00001
    H64      Z     0.00458  0.33707 -0.00008 -0.00011  0.01244  0.00001
    H65      X     0.00361  0.23926 -0.00011 -0.00024  0.00802 -0.00003
    H65      Y    -0.00651 -0.43136  0.00020  0.00043 -0.01453  0.00005
    H65      Z    -0.00409 -0.27240  0.00012  0.00026 -0.00933  0.00001
    H66      X    -0.00080  0.00337 -0.00314 -0.00125  0.00055 -0.00002
    H66      Y    -0.00036  0.00145 -0.00139 -0.00055  0.00023 -0.00000
    H66      Z     0.00052 -0.00225  0.00194  0.00077 -0.00040 -0.00003
    H67      X     0.00007 -0.00119 -0.00378 -0.00128 -0.00034 -0.00001
    H67      Y     0.00006 -0.00137 -0.00366 -0.00122 -0.00037  0.00001
    H67      Z     0.00004 -0.00096 -0.00241 -0.00079 -0.00029 -0.00001
    H68      X     0.00003  0.00003 -0.00002 -0.00001  0.00008 -0.00001
    H68      Y    -0.00005  0.00030  0.00013  0.00037 -0.00006  0.00001
    H68      Z    -0.00008  0.00038  0.00029  0.00073 -0.00013  0.00003
    H69      X    -0.00001 -0.00071  0.00005 -0.00001  0.00001  0.00000
    H69      Y     0.00002  0.00248 -0.00028 -0.00001  0.00002  0.00001
    H69      Z     0.00005  0.00388 -0.00034 -0.00003  0.00004  0.00001
    H70      X     0.00015  0.01551  0.00010  0.00022  0.00048  0.00003
    H70      Y    -0.00001 -0.00045 -0.00005 -0.00007 -0.00001 -0.00001
    H70      Z     0.00010  0.01003  0.00010  0.00015  0.00030  0.00002
    H71      X     0.00011  0.00204  0.00052  0.00011 -0.00011 -0.00003
    H71      Y     0.00006  0.00105  0.00030  0.00006 -0.00009 -0.00002
    H71      Z    -0.00007 -0.00154 -0.00038 -0.00009  0.00008  0.00002
    H72      X     0.00004 -0.00002 -0.00001 -0.00005  0.00002 -0.00002
    H72      Y    -0.00004 -0.00014 -0.00002  0.00005 -0.00018  0.00003
    H72      Z    -0.00008 -0.00002  0.00001  0.00013 -0.00017  0.00005
    H73      X    -0.00004  0.00033 -0.00015 -0.00016 -0.00004 -0.00001
    H73      Y     0.00004 -0.00018  0.00009  0.00010  0.00005 -0.00003
    H73      Z     0.00006 -0.00057  0.00022  0.00023  0.00003  0.00000
    H74      X    -0.00026  0.00011  0.00005  0.00001  0.00030  0.00011
    H74      Y    -0.00026  0.00020  0.00004 -0.00001  0.00029  0.00008
    H74      Z    -0.00022  0.00014  0.00005 -0.00001  0.00021  0.00009
    H75      X    -0.00014  0.00073  0.00004 -0.00016 -0.00011  0.00013
    H75      Y     0.00017 -0.00051 -0.00001  0.00010  0.00003 -0.00019
    H75      Z    -0.00008  0.00037 -0.00001 -0.00010 -0.00007  0.00009
    H76      X    -0.00000 -0.00008 -0.00077 -0.00033 -0.00005  0.00002
    H76      Y    -0.00001 -0.00007 -0.00051 -0.00023 -0.00004  0.00002
    H76      Z     0.00001 -0.00005 -0.00030 -0.00012 -0.00003  0.00000
    H77      X    -0.00000  0.00002  0.00001 -0.00003 -0.00001  0.00000
    H77      Y    -0.00002 -0.00027  0.00036  0.00032 -0.00002 -0.00000
    H77      Z    -0.00002 -0.00045  0.00127  0.00061 -0.00006  0.00001
    H78      X     0.00011 -0.00042  0.00072 -0.00054 -0.00024 -0.00003
    H78      Y     0.00005 -0.00014 -0.00035 -0.00079 -0.00012 -0.00002
    H78      Z    -0.00009  0.00031 -0.00040  0.00063  0.00017  0.00003
    H79      X    -0.00002  0.00045 -0.00033  0.00041  0.00004  0.00002
    H79      Y     0.00006 -0.00151  0.01063  0.00229 -0.00009 -0.00004
    H79      Z    -0.00000  0.00052 -0.00449 -0.00181  0.00001  0.00001
    H80      X     0.00001 -0.00071 -0.00006 -0.00005 -0.00000 -0.00003
    H80      Y    -0.00000  0.00064  0.00005  0.00004 -0.00002  0.00000
    H80      Z    -0.00001  0.00160  0.00009  0.00008  0.00001  0.00002
    H81      X    -0.00018 -0.00071 -0.00007 -0.00001  0.00020  0.00009
    H81      Y    -0.00014 -0.00077 -0.00004 -0.00000  0.00013  0.00005
    H81      Z    -0.00011 -0.00039 -0.00003 -0.00000  0.00012  0.00005
    H82      X    -0.00001 -0.00121 -0.00001 -0.00001 -0.00006 -0.00001
    H82      Y    -0.00007 -0.00468 -0.00003 -0.00003 -0.00019  0.00003
    H82      Z     0.00007  0.00397  0.00003  0.00002  0.00016 -0.00003
    H83      X    -0.00005  0.00014 -0.00108 -0.00049  0.00002  0.00001
    H83      Y    -0.00001  0.00011 -0.00109 -0.00045  0.00002  0.00001
    H83      Z    -0.00002  0.00005 -0.00036 -0.00015  0.00002  0.00003
    H84      X    -0.00002  0.00003 -0.00013 -0.00003  0.00002 -0.00001
    H84      Y     0.00002 -0.00007  0.00071  0.00024 -0.00005 -0.00004
    H84      Z     0.00004 -0.00021  0.00185  0.00063 -0.00015 -0.00005
    H85      X     0.00052  0.00017 -0.00926 -0.00348  0.00003  0.00003
    H85      Y    -0.00035 -0.00013  0.00632  0.00239 -0.00002  0.00001
    H85      Z    -0.00001  0.00002 -0.00012 -0.00003  0.00001 -0.00003
    H86      X    -0.00004  0.00008 -0.00032 -0.00014  0.00000  0.00002
    H86      Y    -0.00003  0.00006 -0.00017 -0.00008  0.00001  0.00001
    H86      Z    -0.00002  0.00003 -0.00013 -0.00006  0.00001  0.00001
    H87      X     0.00000 -0.00001 -0.00003 -0.00001 -0.00000  0.00000
    H87      Y    -0.00000 -0.00006 -0.00035 -0.00013 -0.00000 -0.00002
    H87      Z    -0.00000  0.00006  0.00028  0.00011  0.00001  0.00002
    H88      X    -0.00002  0.00005 -0.00010 -0.00003  0.00004  0.00000
    H88      Y     0.00006 -0.00009  0.00018  0.00006 -0.00008 -0.00002
    H88      Z     0.00013 -0.00018  0.00033  0.00011 -0.00016 -0.00003
    C89      X    -0.00002  0.00041  0.00000 -0.00001 -0.00135 -0.00001
    C89      Y     0.00006 -0.00058 -0.00001  0.00002  0.00201 -0.00001
    C89      Z    -0.00004  0.00057  0.00001 -0.00001 -0.00251  0.00001
    H90      X    -0.00021  0.00081 -0.00000 -0.00008 -0.00189  0.00002
    H90      Y    -0.00034  0.00122 -0.00005 -0.00014 -0.00200 -0.00001
    H90      Z    -0.00012  0.00034 -0.00004 -0.00005 -0.00120 -0.00003
    H91      X     0.00018 -0.00185 -0.00005  0.00005  0.00771 -0.00001
    H91      Y    -0.00056  0.00653  0.00014 -0.00010 -0.03300  0.00004
    H91      Z     0.00078 -0.00761 -0.00016  0.00014  0.03482 -0.00007
    H92      X     0.00024 -0.00391 -0.00004  0.00012  0.01094  0.00006
    H92      Y     0.00001  0.00066  0.00000  0.00000 -0.00158 -0.00002
    H92      Z    -0.00003  0.00008  0.00001 -0.00001 -0.00047 -0.00000
    C93      X     0.00002  0.00004  0.00004 -0.00002  0.00002  0.00000
    C93      Y    -0.00000 -0.00004  0.00014 -0.00026  0.00008 -0.00001
    C93      Z    -0.00005  0.00006 -0.00045  0.00055 -0.00015  0.00001
    H94      X    -0.00019 -0.00044 -0.00071  0.00071 -0.00063  0.00005
    H94      Y    -0.00003 -0.00004  0.00002 -0.00005  0.00001  0.00003
    H94      Z     0.00003  0.00009  0.00012 -0.00005  0.00010  0.00000
    H95      X    -0.00004 -0.00017  0.00086 -0.00180  0.00056 -0.00000
    H95      Y     0.00006  0.00049 -0.00150  0.00321 -0.00093 -0.00000
    H95      Z    -0.00007 -0.00011  0.00072 -0.00183  0.00020  0.00002
    H96      X    -0.00002  0.00006 -0.00057  0.00101 -0.00007 -0.00001
    H96      Y    -0.00008  0.00006 -0.00004 -0.00045 -0.00011  0.00006
    H96      Z     0.00080 -0.00069  0.00471 -0.00462  0.00155 -0.00021
    H97      X    -0.00008 -0.00203  0.00011 -0.00016  0.00626  0.00007
    H97      Y    -0.00001  0.00010 -0.00002  0.00005 -0.00077  0.00001
    H97      Z     0.00004  0.00018 -0.00005  0.00009 -0.00004 -0.00004
    H98      X    -0.00323 -0.00044 -0.00030  0.00056 -0.00060  0.00012
    H98      Y    -0.00052  0.00001 -0.00008  0.00018  0.00006  0.00001
    H98      Z     0.00019  0.00005 -0.00004  0.00011 -0.00001 -0.00000
    H99      X     0.00173  0.00018 -0.00011 -0.00001  0.00009  0.00004
    H99      Y     0.00335  0.00044 -0.00020 -0.00004  0.00027  0.00001
    H99      Z     0.00113  0.00006 -0.00008  0.00001  0.00008  0.00001
    H100     X    -0.00019  0.00033 -0.00000 -0.00011 -0.00004  0.00001
    H100     Y    -0.00031  0.00074 -0.00001 -0.00016 -0.00020  0.00004
    H100     Z    -0.00010  0.00012 -0.00000 -0.00005 -0.00004  0.00003
  
  Number of imaginary frequencies:   1
   
  Writing vibrational animation data to red_elim_TS_L1_PL274.vib
  Writing IR vibrational spectrum data to red_elim_TS_L1_PL274_vib.spm
  rotational symmetry number:  1

  rotational temperatures (K):      0.003806      0.003626      0.002499
   
  The Quasi-Harmonic approximation will be applied to compute
  vibrational constributions to thermodynamic properties.
  Frequencies will be adjusted to a minimum value of  100.00 cm^-1.

    1 vibrational frequencies below   0.0 cm-1 not included in zero-point
  energy or thermochemical analysis.  Set freqcut to change the frequency
  cutoff value.

  vibrational temperatures:
       mode:      2        3        4        5        6        7
  temp. (K):   143.88   143.88   143.88   143.88   143.88   143.88
   
       mode:      8        9       10       11       12       13
  temp. (K):   143.88   143.88   143.88   143.88   143.88   143.88
   
       mode:     14       15       16       17       18       19
  temp. (K):   143.88   145.55   151.39   157.85   159.91   165.00
   
       mode:     20       21       22       23       24       25
  temp. (K):   180.19   196.34   198.72   205.45   212.53   217.12
   
       mode:     26       27       28       29       30       31
  temp. (K):   223.91   232.93   254.00   272.18   292.87   298.71
   
       mode:     32       33       34       35       36       37
  temp. (K):   307.75   322.08   339.37   349.20   351.88   354.97
   
       mode:     38       39       40       41       42       43
  temp. (K):   358.72   359.27   373.28   378.25   388.50   390.40
   
       mode:     44       45       46       47       48       49
  temp. (K):   392.17   393.18   404.39   416.05   417.94   425.45
   
       mode:     50       51       52       53       54       55
  temp. (K):   428.46   443.21   457.78   461.48   476.49   484.07
   
       mode:     56       57       58       59       60       61
  temp. (K):   486.09   496.63   509.77   523.12   552.10   553.43
   
       mode:     62       63       64       65       66       67
  temp. (K):   570.13   587.24   589.59   599.24   609.09   619.39
   
       mode:     68       69       70       71       72       73
  temp. (K):   623.79   634.66   651.36   695.91   697.82   701.24
   
       mode:     74       75       76       77       78       79
  temp. (K):   720.81   742.18   747.41   757.17   765.21   799.40
   
       mode:     80       81       82       83       84       85
  temp. (K):   802.73   815.09   844.14   849.40   855.77   875.05
   
       mode:     86       87       88       89       90       91
  temp. (K):   880.60   909.23   918.63   922.80   931.50   958.38
   
       mode:     92       93       94       95       96       97
  temp. (K):   980.32   988.53  1034.85  1079.20  1116.09  1116.60
   
       mode:     98       99      100      101      102      103
  temp. (K):  1138.97  1145.56  1149.30  1161.64  1176.99  1199.21
   
       mode:    104      105      106      107      108      109
  temp. (K):  1204.51  1206.79  1214.98  1227.57  1246.40  1255.49
   
       mode:    110      111      112      113      114      115
  temp. (K):  1306.09  1308.43  1313.79  1315.85  1332.63  1340.80
   
       mode:    116      117      118      119      120      121
  temp. (K):  1360.74  1363.93  1367.37  1369.62  1376.94  1380.36
   
       mode:    122      123      124      125      126      127
  temp. (K):  1385.67  1390.45  1391.47  1403.39  1412.47  1413.52
   
       mode:    128      129      130      131      132      133
  temp. (K):  1414.17  1415.28  1419.37  1423.21  1432.22  1435.24
   
       mode:    134      135      136      137      138      139
  temp. (K):  1449.48  1460.19  1468.91  1473.63  1475.66  1505.45
   
       mode:    140      141      142      143      144      145
  temp. (K):  1516.08  1519.21  1524.68  1529.32  1537.86  1570.99
   
       mode:    146      147      148      149      150      151
  temp. (K):  1591.84  1597.73  1607.98  1633.07  1640.81  1644.28
   
       mode:    152      153      154      155      156      157
  temp. (K):  1645.37  1653.92  1671.74  1684.38  1717.45  1722.03
   
       mode:    158      159      160      161      162      163
  temp. (K):  1724.23  1738.97  1741.30  1744.22  1751.94  1752.46
   
       mode:    164      165      166      167      168      169
  temp. (K):  1765.99  1777.53  1782.86  1796.90  1802.84  1827.32
   
       mode:    170      171      172      173      174      175
  temp. (K):  1835.32  1844.95  1861.43  1869.80  1884.03  1894.81
   
       mode:    176      177      178      179      180      181
  temp. (K):  1902.96  1918.27  1929.72  1933.60  1943.04  1950.38
   
       mode:    182      183      184      185      186      187
  temp. (K):  1958.50  1969.25  1988.66  1998.73  2025.13  2037.19
   
       mode:    188      189      190      191      192      193
  temp. (K):  2042.51  2046.40  2048.35  2049.31  2050.43  2052.42
   
       mode:    194      195      196      197      198      199
  temp. (K):  2055.15  2074.63  2075.66  2077.16  2079.80  2092.57
   
       mode:    200      201      202      203      204      205
  temp. (K):  2104.09  2115.40  2135.64  2156.14  2160.36  2160.78
   
       mode:    206      207      208      209      210      211
  temp. (K):  2166.76  2171.48  2173.84  2176.16  2177.77  2179.86
   
       mode:    212      213      214      215      216      217
  temp. (K):  2181.91  2183.38  2184.16  2185.42  2187.01  2188.67
   
       mode:    218      219      220      221      222      223
  temp. (K):  2194.68  2197.70  2200.58  2201.94  2203.19  2208.41
   
       mode:    224      225      226      227      228      229
  temp. (K):  2209.90  2213.91  2213.99  2214.14  2218.32  2225.08
   
       mode:    230      231      232      233      234      235
  temp. (K):  2232.35  2236.41  2332.92  2337.64  2340.07  2365.92
   
       mode:    236      237      238      239      240      241
  temp. (K):  2377.07  2378.63  2404.52  2409.12  4371.48  4372.45
   
       mode:    242      243      244      245      246      247
  temp. (K):  4373.76  4377.61  4379.21  4379.56  4382.15  4382.21
   
       mode:    248      249      250      251      252      253
  temp. (K):  4384.70  4388.46  4389.90  4392.37  4393.79  4441.80
   
       mode:    254      255      256      257      258      259
  temp. (K):  4469.78  4476.80  4482.20  4484.51  4485.62  4486.12
   
       mode:    260      261      262      263      264      265
  temp. (K):  4486.38  4490.44  4492.73  4496.55  4496.81  4497.30
   
       mode:    266      267      268      269      270      271
  temp. (K):  4499.76  4500.79  4506.00  4511.84  4520.91  4527.85
   
       mode:    272      273      274      275      276      277
  temp. (K):  4551.42  4554.97  4557.18  4564.20  4569.13  4570.92
   
       mode:    278      279      280      281      282      283
  temp. (K):  4572.61  4577.58  4583.29  4584.07  4587.18  4588.00
   
       mode:    284      285      286      287      288      289
  temp. (K):  4597.29  4597.45  4605.60  4610.85  4612.98  4621.50
   
       mode:    290      291      292      293      294
  temp. (K):  4622.34  4647.81  4653.32  4679.44  5123.90
   
   
  Thermodynamic properties calculated assuming an ideal gas

  In the table below, the units for temperature
  are kelvins, the units for U, H, and G are
  kcal/mol and the units for Cv and S are cal/(mol K)

  The zero point energy (ZPE):    546.900 kcal/mol
  is not included in U, H, or G in the table below
  
 
  =============================================================================
  Thermodynamic properties for P = 1.00E+00 atm, calculated at   1 temperatures


  T =   298.15 K, P = 1.00E+00 atm
   
                  U         Cv          S          H          G        ln(Q)
              =========  =========  =========  =========  =========  =========
  trans.          0.889      2.981     45.591      1.481    -12.112   20.44238
  rot.            0.889      2.981     38.175      0.889    -10.493   17.71015
  vib.           27.461    181.474    165.232     27.461    -21.803   36.79904
  elec.           0.000      0.000      0.000      0.000      0.000    0.00000
  ----------------------------------------------------------------------------
  total          29.238    187.436    248.998     29.831    -44.408   74.95157
   
   Total internal energy, Utot(SCFE + ZPE + U):   -2216.791477 hartrees
   Total enthalpy, Htot (Utot + nRT), with n=1:   -2216.790532 hartrees
    Total Gibbs free energy, Gtot (Htot - T*S):   -2216.908839 hartrees
   
  end of program freq
   
 Time(freq)  user:        2.7  user+sys:        2.7  wallclock:        7.8
  
  start of program post
  
  Writing input files for PBF
  end of program post
   
 Time(post)  user:        1.7  user+sys:        1.7  wallclock:        1.9

 Total cpu seconds     user:   89541.959   user+sys:   89541.959
  
 Total elapsed time:    90441 seconds

Job red_elim_TS_L1_PL274 completed on bp1-compute174.data.bp.acrc.priv at Wed Mar 20 12:35:22 2024
