Job red_elim_L_trans_L1_PL274_2 started on bp1-compute087 at Tue Dec  2 17:22:28 2025
jobid: bp1-compute087-0-692f204a

  +--------------------------------------------------------------------+
  |  Jaguar version 12.5, release 138                                  |
  |                                                                    |
  |  Copyright Schrodinger, Inc.                                       |
  |  All Rights Reserved.                                              |
  |                                                                    |
  |  The following have contributed to Jaguar (listed alphabetically): |
  |  Ty Balduf, Mike Beachy, Chandler Bennett, Art Bochevarov,         |
  |  Dale Braden, Yixiang Cao, Alan Chien, Chris Cortis,               |
  |  Rich Friesner, Jim Furness, Bill Goddard, Hod Greeley,            |
  |  Tom Hughes, Leif Jacobson, Jean-Marc Langlois, Daniel Levine,     |
  |  Rob Murphy, Dean Philipp, Tom Pollard, Murco Ringnalda,           |
  |  Daniel Mainz, Pablo Videla, Mark Watson, Haoyu Yu.                |
  |                                                                    |
  |  Use of this program should be acknowledged in publications as:    |
  |                                                                    |
  |  Jaguar, version 12.5, Schrodinger, Inc., New York, NY, 2024.      |
  |                                                                    |
  |  A. D. Bochevarov, E. Harder, T. F. Hughes, J. R. Greenwood,       |
  |  D. A. Braden, D. M. Philipp, D. Rinaldo, M. D. Halls,             |
  |  J. Zhang, R. A. Friesner, "Jaguar: A High-Performance Quantum     |
  |  Chemistry Software Program with Strengths in Life and Materials   |
  |  Sciences", Int. J. Quantum Chem., 2013, 113(18), 2110-2142.       |
  +--------------------------------------------------------------------+
  
  start of program pre
  
  Job name: red_elim_L_trans_L1_PL274_2
  Executables used: /software/local/apps/schrodinger2024-3/jaguar-v12.5/bin/Linux-x86_64
  Temporary files : /tmp/ar21627/red_elim_L_trans_L1_PL274_2#bp1-compute087-0-692f204a
  Basis file : using default basis file from /software/local/apps/schrodinger2024-3
  Maestro file (input):  red_elim_L_trans_L1_PL274_2.mae
  Maestro file (output): red_elim_L_trans_L1_PL274_2.01.mae
  
 Contents of input file: &gen and (if present) &atomic sections only
 ----------------Contents start----------------
&gen
dftname=b3pw91-d3
basis=6-31G*
numd=5
ip11=2
iaccg=3
isolv=2
igeopt=1
solvent=benzene
ifreq=1
&
&atomic
atom basis
Pd2 lacv3p*
&
 -----------------Contents end-----------------
 
  PS calculation requested. Using PS version of 6-31g*
  basis set:               non_standard                    
  net molecular charge:    0
  multiplicity:            1
  
  Using up to  18 threads per process
  
  This run will use ECP on 1 atom
  number of basis functions....          761
  
  input atom labels were not unique
  original atom labels:
 P1       Pd2      N2       C16      C17      C18      C19      C20     
 C21      F10      H23      H24      H25      H26      H30      C31     
 C32      C33      C34      C35      C36      H37      H38      H39     
 H40      H41      C3       C4       C5       C6       C7       C8      
 C9       C10      C11      C12      C13      C14      C15      C16     
 C17      C18      C19      C20      C21      C22      C23      C24     
 C25      C26      C27      C28      C29      H30      H31      H32     
 H33      H34      H35      H36      H37      H38      H39      H40     
 H41      H42      H43      H44      H45      H46      H47      H48     
 H49      H50      H51      H52      H53      H54      H55      H56     
 H57      H58      H59      H60      H61      H62      H63      H64     
 C65      H66      H67      H68      C69      H70      H71      H72     
 H73      H74      H75      H76     
  new atom labels:
 P1       Pd2      N3       C4       C5       C6       C7       C8      
 C9       F10      H11      H12      H13      H14      H15      C16     
 C17      C18      C19      C20      C21      H22      H23      H24     
 H25      H26      C27      C28      C29      C30      C31      C32     
 C33      C34      C35      C36      C37      C38      C39      C40     
 C41      C42      C43      C44      C45      C46      C47      C48     
 C49      C50      C51      C52      C53      H54      H55      H56     
 H57      H58      H59      H60      H61      H62      H63      H64     
 H65      H66      H67      H68      H69      H70      H71      H72     
 H73      H74      H75      H76      H77      H78      H79      H80     
 H81      H82      H83      H84      H85      H86      H87      H88     
 C89      H90      H91      H92      C93      H94      H95      H96     
 H97      H98      H99      H100    
 
  
 Input geometry:
                                   angstroms
  atom               x                 y                 z
  P1            0.0000000000      0.0000000000      0.0000000000 
  Pd2           0.0000000000      0.0000000000      2.2085805062 
  N3            2.0720995253      0.0000000000      2.3750259043 
  C4           -4.8615563082      0.2889752469      2.5826645130 
  C5           -4.0686023383      1.4376713084      2.4962832560 
  C6           -2.6885494814      1.3466037587      2.2960640351 
  C7           -2.0349816841      0.1052051957      2.1975760572 
  C8           -2.8490577591     -1.0413621145      2.2602660615 
  C9           -4.2270282597     -0.9537561658      2.4590421015 
  F10          -6.1815778894      0.3679395725      2.7505831253 
  H11          -4.5364497673      2.4184548763      2.5862268619 
  H12          -2.1103424843      2.2688692261      2.2279934944 
  H13          -2.3968904101     -2.0280823086      2.1594680927 
  H14          -4.8228179332     -1.8651698133      2.5197010906 
  H15           2.3324632228      0.9401157417      2.8833497551 
  C16           3.5512315236     -3.3080862868      4.6139341404 
  C17           2.5365621059     -2.4964491726      5.1473621277 
  C18           2.0488512313     -1.4056813048      4.4091319392 
  C19           2.5758097921     -1.1265505359      3.1374737741 
  C20           3.5904444850     -1.9381099877      2.6039932249 
  C21           4.0781900667     -3.0289555331      3.3422759645 
  H22           3.9343857985     -4.1650127841      5.1939008118 
  H23           2.1226385645     -2.7158529433      6.1464536587 
  H24           1.2517387180     -0.7680808920      4.8282042538 
  H25           4.0043393744     -1.7187620023      1.6050284499 
  H26           4.8753026079     -3.6665559220      2.9232036667 
  C27           1.7831463244      0.0000000000     -0.8473727461 
  C28          -0.9886469542     -1.5695736595     -0.6867421696 
  C29          -0.7901183997      1.5049379058     -0.8479766882 
  C30           1.8652236082      0.0548153147     -2.3939977476 
  C31           2.5239751135     -1.2700843094     -0.3645010905 
  C32          -0.7983231708     -2.6816138379      0.3763485688 
  C33          -2.4878216583     -1.2112625211     -0.8064495247 
  C34          -0.8892394008      1.4114160136     -2.2607084982 
  C35          -1.2546226733      2.4840588565     -3.0851574536 
  C36          -1.5207952457      3.7270633661     -2.4988050521 
  C37          -1.4998965492      3.8273578633     -1.1029466553 
  C38          -1.1937791729      2.7411469086     -0.2403429206 
  C39          -1.4955600723      3.0253394478      1.2179072042 
  C40          -2.8573804410      2.9258007927      1.6427194187 
  C41          -3.1835632123      3.2671285981      2.9669664830 
  C42          -2.2184617792      3.7066195558      3.8875966319 
  C43          -0.9059156283      3.8714990162      3.4252879495 
  C44          -0.5242988337      3.5606149275      2.1076927210 
  C45           0.8903072400      3.9069269557      1.6394151962 
  C46           0.9383018438      5.3645307443      1.1161004170 
  C47          -3.9942841535      2.5263893501      0.6865304301 
  C48          -5.0420068080      1.5792654208      1.3115151138 
  C49          -2.5643922096      3.9623566972      5.3522129059 
  C50           1.9790472741      3.6993159789      2.7112369243 
  C51          -4.7121107901      3.7857371286      0.1384320570 
  C52          -2.9590991633      2.6441334860      6.0577614421 
  C53          -3.6562524435      5.0419270943      5.5212642682 
  H54           1.3657093114     -0.7799130754     -2.9078132675 
  H55           1.4803630968      1.0048275598     -2.7998800482 
  H56           2.5173147849     -1.3496627875      0.7346946624 
  H57           2.1017488047     -2.1910767731     -0.8041808148 
  H58           0.2645501696     -2.9543819690      0.5016635869 
  H59          -1.1954620983     -2.3739848413      1.3566866633 
  H60          -2.8745272637     -0.7967271580      0.1378559733 
  H61          -2.6761453324     -0.4931763301     -1.6243074748 
  H62          -0.6668554910      0.4562132947     -2.7391918417 
  H63          -1.3132346546      2.3437192186     -4.1713334739 
  H64          -1.7763881926      4.5999501479     -3.1116595861 
  H65          -1.7717165211      4.7780348876     -0.6311032179 
  H66          -4.2228968831      3.1519016141      3.2973832778 
  H67          -0.1458421643      4.2343620195      4.1269936111 
  H68           1.1276614546      3.2434762284      0.7909457083 
  H69           0.6687945106      6.0742005961      1.9214661099 
  H70           0.2397811224      5.5249556070      0.2757633575 
  H71           1.9575479326      5.6181635074      0.7655036563 
  H72          -3.5450204230      1.9943108666     -0.1710626328 
  H73          -5.6529166403      2.0898430086      2.0802255420 
  H74          -5.7393517058      1.2241094154      0.5284041644 
  H75          -4.5530067634      0.7093391717      1.7781370610 
  H76          -1.6429003120      4.3395922896      5.8404978839 
  H77           1.8882160219      4.4345826098      3.5337800204 
  H78           2.9783958680      3.8431453967      2.2586305933 
  H79           1.9404016142      2.6824878981      3.1362898761 
  H80          -5.1559012677      4.3676159368      0.9685996882 
  H81          -5.5306303802      3.4995242068     -0.5507058279 
  H82          -4.0239116191      4.4517581053     -0.4098786963 
  H83          -3.9048202190      2.2454047989      5.6452470654 
  H84          -3.1042172200      2.8097039111      7.1433702254 
  H85          -2.1833050044      1.8725387701      5.9080647365 
  H86          -4.6088031266      4.7234831349      5.0576118387 
  H87          -3.3573436749      5.9970890541      5.0511848065 
  H88          -3.8569602758      5.2325977594      6.5931467838 
  C89          -0.5441708763     -2.1598303215     -2.0464615814 
  H90          -1.1856029942     -3.0417664424     -2.2477001319 
  H91          -0.6839976165     -1.4712621932     -2.8981229103 
  H92           0.4993445642     -2.5142764624     -2.0464974490 
  C93           2.5160792963      1.2658499196     -0.3495850975 
  H94           3.5592243218      1.2394134262     -0.7263030562 
  H95           2.0423449106      2.1774381524     -0.7572142958 
  H96           2.5500876307      1.3151497824      0.7482272982 
  H97           2.9402802330      0.0025088778     -2.6612312077 
  H98           3.5817627609     -1.2058906194     -0.6913890209 
  H99          -1.3445468212     -3.5877674888      0.0425532017 
  H100         -3.0522249256     -2.1385459761     -1.0343750224 
   
  principal moments of inertia:
        amu*angstrom^2:              5744.48977              8028.42685              8989.94223
                g*cm^2:          9.53894849E-37          1.33315148E-36          1.49281484E-36
   
  rotational constants:
               cm^(-1):      0.00293457      0.00209974      0.00187517
                   GHz:      0.08797631      0.06294870      0.05621605
   
  Molecular weight:     717.31 amu
   
  Stoichiometry: PdC41PNH55F
  Molecular Point Group: C1      
  Point Group used: C1
  
 
Number of optimization coordinates:   364
Number of independent coordinates:    364
Number of non-redundant coordinates:  294
Number of frozen coordinates:           0
Number of harmonic constraints:         0
 
Number of geometric degrees of freedom:   294
Maximum geometric degrees of freedom:     294
 " " " " " excluding dummy atoms:         294
 
 
  bond lengths (angstroms):
 
 P1      -Pd2     :   2.208581      P1      -C27     :   1.974247
 P1      -C28     :   1.978029      P1      -C29     :   1.899524
 Pd2     -N3      :   2.078774      Pd2     -C7      :   2.037729
 N3      -H15     :   1.100000      N3      -C19     :   1.450575
 C4      -C5      :   1.398478      C4      -C9      :   1.400818
 C4      -F10     :   1.333000      C4      -H75     :   0.958735
 C5      -C6      :   1.397472      C5      -H11     :   1.090370
 C5      -C48     :   1.539883      C5      -H75     :   1.131746
 C6      -C7      :   1.406386      C6      -H12     :   1.090656
 C6      -C40     :   1.717331      C7      -C8      :   1.407575
 C8      -C9      :   1.394987      C8      -H13     :   1.090061
 C9      -H14     :   1.090559      H12     -C40     :   1.154197
 C16     -C17     :   1.404583      C16     -C21     :   1.404533
 C16     -H22     :   1.103400      C17     -C18     :   1.404500
 C17     -H23     :   1.103474      C18     -C19     :   1.404533
 C18     -H24     :   1.103424      C19     -C20     :   1.404533
 C20     -C21     :   1.404600      C20     -H25     :   1.103337
 C21     -H26     :   1.103424      C27     -C30     :   1.549771
 C27     -C31     :   1.547613      C27     -C93     :   1.545108
 C28     -C32     :   1.550167      C28     -C33     :   1.546041
 C28     -C89     :   1.547514      C29     -C34     :   1.419289
 C29     -C38     :   1.435400      C30     -H54     :   1.100133
 C30     -H55     :   1.102443      C30     -H97     :   1.109007
 C31     -H56     :   1.102093      C31     -H57     :   1.104455
 C31     -H98     :   1.109005      C32     -H58     :   1.104448
 C32     -H59     :   1.101552      C32     -H99     :   1.109457
 C33     -H60     :   1.101405      C33     -H61     :   1.104538
 C33     -H100    :   1.109214      C34     -C35     :   1.401351
 C34     -H62     :   1.091244      C35     -C36     :   1.399899
 C35     -H63     :   1.096772      C36     -C37     :   1.399613
 C36     -H64     :   1.096745      C37     -C38     :   1.420439
 C37     -H65     :   1.095586      C38     -C39     :   1.516025
 C39     -C40     :   1.430010      C39     -C44     :   1.421825
 C40     -C41     :   1.405891      C40     -C47     :   1.538303
 C41     -C42     :   1.404327      C41     -H66     :   1.096662
 C42     -C43     :   1.401318      C42     -C49     :   1.526489
 C43     -C44     :   1.406534      C43     -H67     :   1.096254
 C44     -C45     :   1.529812      C45     -C46     :   1.549442
 C45     -C50     :   1.541836      C45     -H68     :   1.102907
 C46     -H69     :   1.106743      C46     -H70     :   1.104461
 C46     -H71     :   1.107299      C47     -C48     :   1.544465
 C47     -C51     :   1.549724      C47     -H72     :   1.104722
 C48     -H73     :   1.106714      C48     -H74     :   1.107108
 C48     -H75     :   1.101648      C49     -C52     :   1.546384
 C49     -C53     :   1.544736      C49     -H76     :   1.108998
 C50     -H77     :   1.106998      C50     -H78     :   1.106452
 C50     -H79     :   1.102771      C51     -H80     :   1.106667
 C51     -H81     :   1.107611      C51     -H82     :   1.103561
 C52     -H83     :   1.106138      C52     -H84     :   1.107709
 C52     -H85     :   1.104366      C53     -H86     :   1.106225
 C53     -H87     :   1.105738      C53     -H88     :   1.107055
 C89     -H90     :   1.108938      C89     -H91     :   1.104085
 C89     -H92     :   1.102069      C93     -H94     :   1.109399
 C93     -H95     :   1.105251      C93     -H96     :   1.099445
 
  bond angles:
 
 C27     -P1      -Pd2     : 115.417634  C28     -P1      -Pd2     : 110.315238
 C28     -P1      -C27     : 107.602855  C29     -P1      -Pd2     : 116.513936
 C29     -P1      -C27     : 100.607821  C29     -P1      -C28     : 105.413350
 N3      -Pd2     -P1      :  94.592533  C7      -Pd2     -P1      :  89.690581
 C7      -Pd2     -N3      : 174.795831  H15     -N3      -Pd2     : 105.839005
 C19     -N3      -Pd2     : 112.843761  C19     -N3      -H15     : 109.794980
 C9      -C4      -C5      : 117.801102  F10     -C4      -C5      : 121.373513
 F10     -C4      -C9      : 120.812442  H75     -C4      -C5      :  53.525960
 H75     -C4      -C9      :  99.737876  H75     -C4      -F10     : 113.480180
 C6      -C5      -C4      : 121.015347  H11     -C5      -C4      : 119.370349
 H11     -C5      -C6      : 119.614295  C48     -C5      -C4      :  76.386375
 C48     -C5      -C6      : 121.332887  C48     -C5      -H11     :  73.113762
 H75     -C5      -C4      :  42.937394  H75     -C5      -C6      : 106.847755
 H75     -C5      -H11     : 116.587369  H75     -C5      -C48     :  45.605180
 C7      -C6      -C5      : 121.767686  H12     -C6      -C5      : 118.514121
 H12     -C6      -C7      : 119.713835  C40     -C6      -C5      :  84.116727
 C40     -C6      -C7      : 146.173996  C40     -C6      -H12     :  41.477561
 C6      -C7      -Pd2     : 120.615992  C8      -C7      -Pd2     : 122.362789
 C8      -C7      -C6      : 116.559160  C9      -C8      -C7      : 121.768576
 H13     -C8      -C7      : 119.559115  H13     -C8      -C9      : 118.670546
 C8      -C9      -C4      : 121.046438  H14     -C9      -C4      : 119.277688
 H14     -C9      -C8      : 119.675874  C40     -H12     -C6      :  99.776792
 C21     -C16     -C17     : 120.002746  H22     -C16     -C17     : 120.000393
 H22     -C16     -C21     : 119.996860  C18     -C17     -C16     : 120.000393
 H23     -C17     -C16     : 119.995826  H23     -C17     -C18     : 120.003781
 C19     -C18     -C17     : 119.996860  H24     -C18     -C17     : 119.999284
 H24     -C18     -C19     : 120.003855  C18     -C19     -N3      : 119.996860
 C20     -C19     -N3      : 119.996860  C20     -C19     -C18     : 120.006279
 C21     -C20     -C19     : 119.996860  H25     -C20     -C19     : 120.001259
 H25     -C20     -C21     : 120.001881  C20     -C21     -C16     : 119.996860
 H26     -C21     -C16     : 120.003855  H26     -C21     -C20     : 119.999284
 C30     -C27     -P1      : 118.435966  C31     -C27     -P1      : 107.363714
 C31     -C27     -C30     : 108.363978  C93     -C27     -P1      : 106.867607
 C93     -C27     -C30     : 105.510586  C93     -C27     -C31     : 110.166900
 C32     -C28     -P1      : 105.650726  C33     -C28     -P1      : 109.125727
 C33     -C28     -C32     : 109.780136  C89     -C28     -P1      : 117.655696
 C89     -C28     -C32     : 107.078681  C89     -C28     -C33     : 107.390303
 C34     -C29     -P1      : 114.910189  C38     -C29     -P1      : 127.613023
 C38     -C29     -C34     : 117.288667  H54     -C30     -C27     : 114.532958
 H55     -C30     -C27     : 112.297122  H55     -C30     -H54     : 108.867652
 H97     -C30     -C27     : 106.866856  H97     -C30     -H54     : 106.966915
 H97     -C30     -H55     : 106.878241  H56     -C31     -C27     : 111.564943
 H57     -C31     -C27     : 112.156573  H57     -C31     -H56     : 109.543807
 H98     -C31     -C27     : 108.488385  H98     -C31     -H56     : 107.693622
 H98     -C31     -H57     : 107.191431  H58     -C32     -C28     : 111.909222
 H59     -C32     -C28     : 111.452173  H59     -C32     -H58     : 108.357701
 H99     -C32     -C28     : 108.610725  H99     -C32     -H58     : 107.831746
 H99     -C32     -H59     : 108.563238  H60     -C33     -C28     : 111.180188
 H61     -C33     -C28     : 111.921524  H61     -C33     -H60     : 109.286245
 H100    -C33     -C28     : 108.395216  H100    -C33     -H60     : 108.189506
 H100    -C33     -H61     : 107.733199  C35     -C34     -C29     : 123.599104
 H62     -C34     -C29     : 118.678591  H62     -C34     -C35     : 117.721925
 C36     -C35     -C34     : 118.868590  H63     -C35     -C34     : 119.909520
 H63     -C35     -C36     : 121.215735  C37     -C36     -C35     : 118.588670
 H64     -C36     -C35     : 121.127678  H64     -C36     -C37     : 120.247906
 C38     -C37     -C36     : 123.646751  H65     -C37     -C36     : 119.209043
 H65     -C37     -C38     : 117.096095  C37     -C38     -C29     : 117.523625
 C39     -C38     -C29     : 128.653754  C39     -C38     -C37     : 113.446166
 C40     -C39     -C38     : 117.533585  C44     -C39     -C38     : 122.449022
 C44     -C39     -C40     : 119.395310  H12     -C40     -C6      :  38.745648
 C39     -C40     -C6      :  94.784229  C39     -C40     -H12     :  64.778682
 C41     -C40     -C6      :  83.553011  C41     -C40     -H12     :  79.088959
 C41     -C40     -C39     : 118.938223  C47     -C40     -C6      :  94.035550
 C47     -C40     -H12     : 130.222970  C47     -C40     -C39     : 122.495958
 C47     -C40     -C41     : 118.493284  C42     -C41     -C40     : 122.278192
 H66     -C41     -C40     : 118.565936  H66     -C41     -C42     : 119.122180
 C43     -C42     -C41     : 117.661255  C49     -C42     -C41     : 121.714388
 C49     -C42     -C43     : 120.603101  C44     -C43     -C42     : 122.491344
 H67     -C43     -C42     : 118.501880  H67     -C43     -C44     : 118.990609
 C43     -C44     -C39     : 118.953890  C45     -C44     -C39     : 121.690431
 C45     -C44     -C43     : 119.182645  C46     -C45     -C44     : 110.180843
 C50     -C45     -C44     : 114.184988  C50     -C45     -C46     : 109.851523
 H68     -C45     -C44     : 107.356126  H68     -C45     -C46     : 107.421500
 H68     -C45     -C50     : 107.567152  H69     -C46     -C45     : 110.481288
 H70     -C46     -C45     : 111.964181  H70     -C46     -H69     : 107.849514
 H71     -C46     -C45     : 110.544137  H71     -C46     -H69     : 107.919333
 H71     -C46     -H70     : 107.937853  C48     -C47     -C40     : 114.145295
 C51     -C47     -C40     : 110.559343  C51     -C47     -C48     : 109.100865
 H72     -C47     -C40     : 107.880461  H72     -C47     -C48     : 107.136859
 H72     -C47     -C51     : 107.770660  C47     -C48     -C5      :  86.497652
 H73     -C48     -C5      :  81.775653  H73     -C48     -C47     : 111.877424
 H74     -C48     -C5      : 155.908229  H74     -C48     -C47     : 109.741743
 H74     -C48     -H73     : 106.954839  H75     -C48     -C5      :  47.227647
 H75     -C48     -C47     : 110.764840  H75     -C48     -H73     : 108.368321
 H75     -C48     -H74     : 109.018969  C52     -C49     -C42     : 110.658205
 C53     -C49     -C42     : 112.474040  C53     -C49     -C52     : 111.432837
 H76     -C49     -C42     : 106.925793  H76     -C49     -C52     : 107.528017
 H76     -C49     -C53     : 107.542121  H77     -C50     -C45     : 111.663558
 H78     -C50     -C45     : 109.628065  H78     -C50     -H77     : 106.960803
 H79     -C50     -C45     : 111.552585  H79     -C50     -H77     : 108.854276
 H79     -C50     -H78     : 108.009914  H80     -C51     -C47     : 110.347547
 H81     -C51     -C47     : 110.631940  H81     -C51     -H80     : 107.833481
 H82     -C51     -C47     : 112.166850  H82     -C51     -H80     : 107.786441
 H82     -C51     -H81     : 107.918693  H83     -C52     -C49     : 110.815466
 H84     -C52     -C49     : 110.681673  H84     -C52     -H83     : 107.900400
 H85     -C52     -C49     : 110.759160  H85     -C52     -H83     : 107.349544
 H85     -C52     -H84     : 109.226744  H86     -C53     -C49     : 111.197675
 H87     -C53     -C49     : 111.475475  H87     -C53     -H86     : 107.653118
 H88     -C53     -C49     : 110.761272  H88     -C53     -H86     : 107.414399
 H88     -C53     -H87     : 108.170877  C5      -H75     -C4      :  83.536646
 C48     -H75     -C4      : 123.973943  C48     -H75     -C5      :  87.167173
 H90     -C89     -C28     : 107.257040  H91     -C89     -C28     : 113.798039
 H91     -C89     -H90     : 106.424803  H92     -C89     -C28     : 113.244804
 H92     -C89     -H90     : 106.971719  H92     -C89     -H91     : 108.691356
 H94     -C93     -C27     : 108.488016  H95     -C93     -C27     : 110.705930
 H95     -C93     -H94     : 107.303973  H96     -C93     -C27     : 111.906990
 H96     -C93     -H94     : 108.122439  H96     -C93     -H95     : 110.153626
 
  torsional angles:
 
 P1      -Pd2     -N3      -H15     : 117.329579
 P1      -Pd2     -N3      -C19     :-122.571445
 P1      -Pd2     -C7      -C6      : -94.851269
 P1      -Pd2     -C7      -C8      :  93.218881
 P1      -C27     -C30     -H54     : -59.388644
 P1      -C27     -C30     -H55     :  65.456959
 P1      -C27     -C30     -H97     :-177.655655
 P1      -C27     -C31     -H56     : -52.264827
 P1      -C27     -C31     -H57     :  71.055768
 P1      -C27     -C31     -H98     :-170.737358
 P1      -C27     -C93     -H94     : 174.235630
 P1      -C27     -C93     -H95     : -68.269516
 P1      -C27     -C93     -H96     :  55.028918
 P1      -C28     -C32     -H58     : -61.587682
 P1      -C28     -C32     -H59     :  59.930593
 P1      -C28     -C32     -H99     : 179.484556
 P1      -C28     -C33     -H60     : -52.261846
 P1      -C28     -C33     -H61     :  70.269199
 P1      -C28     -C33     -H100    :-171.055930
 P1      -C28     -C89     -H90     : 178.243253
 P1      -C28     -C89     -H91     : -64.331096
 P1      -C28     -C89     -H92     :  60.462339
 P1      -C29     -C34     -C35     :-170.210970
 P1      -C29     -C34     -H62     :   9.559426
 P1      -C29     -C38     -C37     : 167.022163
 P1      -C29     -C38     -C39     : -20.537445
 Pd2     -P1      -C27     -C30     :-177.694779
 Pd2     -P1      -C27     -C31     :  59.300540
 Pd2     -P1      -C27     -C93     : -58.880810
 Pd2     -P1      -C28     -C32     : -30.327343
 Pd2     -P1      -C28     -C33     :  87.650420
 Pd2     -P1      -C28     -C89     :-149.743031
 Pd2     -P1      -C29     -C34     :-174.148580
 Pd2     -P1      -C29     -C38     :  11.014824
 Pd2     -N3      -C19     -C18     : -51.616232
 Pd2     -N3      -C19     -C20     : 128.383766
 Pd2     -C7      -C6      -C5      :-170.050886
 Pd2     -C7      -C6      -H12     :   9.178290
 Pd2     -C7      -C6      -C40     :  54.914708
 Pd2     -C7      -C8      -C9      : 169.957016
 Pd2     -C7      -C8      -H13     :  -9.553378
 N3      -Pd2     -P1      -C27     :   0.000000
 N3      -Pd2     -P1      -C28     : 122.206107
 N3      -Pd2     -P1      -C29     :-117.700249
 N3      -Pd2     -C7      -C6      :  50.581459
 N3      -Pd2     -C7      -C8      :-121.348391
 N3      -C19     -C18     -C17     : 179.999999
 N3      -C19     -C18     -H24     :  -0.000004
 N3      -C19     -C20     -C21     :-179.999998
 N3      -C19     -C20     -H25     :   0.000001
 C4      -C5      -C6      -C7      :  -1.182136
 C4      -C5      -C6      -H12     : 179.579750
 C4      -C5      -C6      -C40     : 155.522346
 C4      -C5      -C48     -C47     :-157.924044
 C4      -C5      -C48     -H73     :  89.367335
 C4      -C5      -C48     -H74     : -24.122436
 C4      -C5      -C48     -H75     : -35.206252
 C4      -C5      -H75     -C48     : 124.658521
 C4      -C9      -C8      -C7      :   1.078553
 C4      -C9      -C8      -H13     :-179.406842
 C4      -H75     -C5      -C6      : 117.702496
 C4      -H75     -C5      -H11     :-105.500136
 C4      -H75     -C5      -C48     :-124.658521
 C4      -H75     -C48     -C5      :  80.255827
 C4      -H75     -C48     -C47     : 144.166531
 C4      -H75     -C48     -H73     :  21.087220
 C4      -H75     -C48     -H74     : -94.982836
 C5      -C4      -C9      -C8      :   0.183250
 C5      -C4      -C9      -H14     :-179.819722
 C5      -C4      -H75     -C48     : -82.165317
 C5      -C6      -C7      -C8      :   2.330995
 C5      -C6      -H12     -C40     : -37.751826
 C5      -C6      -C40     -H12     : 147.260128
 C5      -C6      -C40     -C39     :-174.694477
 C5      -C6      -C40     -C41     :  66.672959
 C5      -C6      -C40     -C47     : -51.576606
 C5      -C48     -C47     -C40     : -10.146789
 C5      -C48     -C47     -C51     :-134.376007
 C5      -C48     -C47     -H72     : 109.215041
 C5      -H75     -C4      -C9      :-117.492011
 C5      -H75     -C4      -F10     : 112.627728
 C5      -H75     -C48     -C47     :  63.910704
 C5      -H75     -C48     -H73     : -59.168607
 C5      -H75     -C48     -H74     :-175.238663
 C6      -C5      -C4      -C9      :  -0.133028
 C6      -C5      -C4      -F10     :-178.834314
 C6      -C5      -C4      -H75     : -81.390351
 C6      -C5      -C48     -C47     : -39.678830
 C6      -C5      -C48     -H73     :-152.387451
 C6      -C5      -C48     -H74     :  94.122777
 C6      -C5      -C48     -H75     :  83.038961
 C6      -C5      -H75     -C48     :-117.638983
 C6      -C7      -C8      -C9      :  -2.280368
 C6      -C7      -C8      -H13     : 178.209238
 C6      -H12     -C40     -C39     :-137.245801
 C6      -H12     -C40     -C41     :  93.297133
 C6      -H12     -C40     -C47     : -24.949277
 C6      -C40     -C39     -C38     :  98.816552
 C6      -C40     -C39     -C44     : -90.000859
 C6      -C40     -C41     -C42     :  92.099530
 C6      -C40     -C41     -H66     : -85.769310
 C6      -C40     -C47     -C48     :  41.668624
 C6      -C40     -C47     -C51     : 165.113250
 C6      -C40     -C47     -H72     : -77.272635
 C7      -Pd2     -P1      -C27     : 177.040537
 C7      -Pd2     -P1      -C28     : -60.753355
 C7      -Pd2     -P1      -C29     :  59.340289
 C7      -Pd2     -N3      -H15     : -27.976472
 C7      -Pd2     -N3      -C19     :  92.122504
 C7      -C6      -C5      -H11     : 178.853796
 C7      -C6      -C5      -C48     : -93.732250
 C7      -C6      -C5      -H75     : -45.908987
 C7      -C6      -H12     -C40     : 142.993987
 C7      -C6      -C40     -H12     : -69.896444
 C7      -C6      -C40     -C39     : -31.851049
 C7      -C6      -C40     -C41     :-150.483613
 C7      -C6      -C40     -C47     :  91.266822
 C7      -C8      -C9      -H14     :-178.918464
 C8      -C7      -C6      -H12     :-178.439829
 C8      -C7      -C6      -C40     :-132.703411
 C8      -C9      -C4      -F10     : 178.892184
 C8      -C9      -C4      -H75     :  53.929106
 C9      -C4      -C5      -H11     : 179.831126
 C9      -C4      -C5      -C48     : 118.467155
 C9      -C4      -C5      -H75     :  81.257323
 C9      -C4      -H75     -C48     : 160.342672
 F10     -C4      -C5      -H11     :   1.129840
 F10     -C4      -C5      -C48     : -60.234130
 F10     -C4      -C5      -H75     : -97.443963
 F10     -C4      -C9      -H14     :  -1.110788
 F10     -C4      -H75     -C48     :  30.462411
 H11     -C5      -C4      -H75     :  98.573803
 H11     -C5      -C6      -H12     :  -0.384317
 H11     -C5      -C6      -C40     : -24.441721
 H11     -C5      -C48     -C47     :  75.142701
 H11     -C5      -C48     -H73     : -37.565920
 H11     -C5      -C48     -H74     :-151.055691
 H11     -C5      -C48     -H75     :-162.139507
 H11     -C5      -H75     -C48     :  19.158385
 H12     -C6      -C5      -C48     :  87.029636
 H12     -C6      -C5      -H75     : 134.852899
 H12     -C6      -C40     -C39     :  38.045395
 H12     -C6      -C40     -C41     : -80.587169
 H12     -C6      -C40     -C47     : 161.163266
 H12     -C40     -C39     -C38     : 124.053094
 H12     -C40     -C39     -C44     : -64.764318
 H12     -C40     -C41     -C42     :  53.137541
 H12     -C40     -C41     -H66     :-124.731299
 H12     -C40     -C47     -C48     :  57.015113
 H12     -C40     -C47     -C51     :-179.540261
 H12     -C40     -C47     -H72     : -61.926147
 H13     -C8      -C9      -H14     :   0.596141
 H14     -C9      -C4      -H75     :-126.073865
 H15     -N3      -C19     -C18     :  66.183656
 H15     -N3      -C19     -C20     :-113.816347
 C16     -C17     -C18     -C19     :  -0.000001
 C16     -C17     -C18     -H24     :-179.999999
 C16     -C21     -C20     -C19     :  -0.000001
 C16     -C21     -C20     -H25     : 180.000000
 C17     -C16     -C21     -C20     :   0.000001
 C17     -C16     -C21     -H26     : 179.999999
 C17     -C18     -C19     -C20     :   0.000001
 C18     -C17     -C16     -C21     :   0.000001
 C18     -C17     -C16     -H22     : 180.000000
 C18     -C19     -C20     -C21     :   0.000000
 C18     -C19     -C20     -H25     : 180.000000
 C19     -C18     -C17     -H23     : 180.000000
 C19     -C20     -C21     -H26     :-179.999999
 C20     -C19     -C18     -H24     : 179.999999
 C20     -C21     -C16     -H22     :-179.999999
 C21     -C16     -C17     -H23     : 179.999999
 H22     -C16     -C17     -H23     :  -0.000001
 H22     -C16     -C21     -H26     :  -0.000001
 H23     -C17     -C18     -H24     :   0.000002
 H25     -C20     -C21     -H26     :   0.000002
 C27     -P1      -C28     -C32     :  96.372645
 C27     -P1      -C28     -C33     :-145.649592
 C27     -P1      -C28     -C89     : -23.043043
 C27     -P1      -C29     -C34     :  60.299866
 C27     -P1      -C29     -C38     :-114.536731
 C28     -P1      -C27     -C30     :  58.660020
 C28     -P1      -C27     -C31     : -64.344660
 C28     -P1      -C27     -C93     : 177.473990
 C28     -P1      -C29     -C34     : -51.464389
 C28     -P1      -C29     -C38     : 133.699014
 C29     -P1      -C27     -C30     : -51.406213
 C29     -P1      -C27     -C31     :-174.410894
 C29     -P1      -C27     -C93     :  67.407756
 C29     -P1      -C28     -C32     :-156.900754
 C29     -P1      -C28     -C33     : -38.922990
 C29     -P1      -C28     -C89     :  83.683559
 C29     -C34     -C35     -C36     :   0.953559
 C29     -C34     -C35     -H63     :-179.937772
 C29     -C38     -C37     -C36     :   4.722829
 C29     -C38     -C37     -H65     :-177.825264
 C29     -C38     -C39     -C40     : -93.715753
 C29     -C38     -C39     -C44     :  95.390191
 C30     -C27     -C31     -H56     : 178.723324
 C30     -C27     -C31     -H57     : -57.956081
 C30     -C27     -C31     -H98     :  60.250793
 C30     -C27     -C93     -H94     : -58.856036
 C30     -C27     -C93     -H95     :  58.638818
 C30     -C27     -C93     -H96     :-178.062748
 C31     -C27     -C30     -H54     :  63.114911
 C31     -C27     -C30     -H55     :-172.039486
 C31     -C27     -C30     -H97     : -55.152100
 C31     -C27     -C93     -H94     :  57.903115
 C31     -C27     -C93     -H95     : 175.397970
 C31     -C27     -C93     -H96     : -61.303596
 C32     -C28     -C33     -H60     :  63.088416
 C32     -C28     -C33     -H61     :-174.380539
 C32     -C28     -C33     -H100    : -55.705669
 C32     -C28     -C89     -H90     :  59.582873
 C32     -C28     -C89     -H91     : 177.008524
 C32     -C28     -C89     -H92     : -58.198041
 C33     -C28     -C32     -H58     :-179.126282
 C33     -C28     -C32     -H59     : -57.608007
 C33     -C28     -C32     -H99     :  61.945956
 C33     -C28     -C89     -H90     : -58.270103
 C33     -C28     -C89     -H91     :  59.155548
 C33     -C28     -C89     -H92     :-176.051017
 C34     -C29     -C38     -C37     :  -7.708039
 C34     -C29     -C38     -C39     : 164.732353
 C34     -C35     -C36     -C37     :  -4.274707
 C34     -C35     -C36     -H64     : 177.894943
 C35     -C34     -C29     -C38     :   5.187907
 C35     -C36     -C37     -C38     :   1.431251
 C35     -C36     -C37     -H65     :-175.969829
 C36     -C35     -C34     -H62     :-178.818884
 C36     -C37     -C38     -C39     :-168.847479
 C37     -C36     -C35     -H63     : 176.628706
 C37     -C38     -C39     -C40     :  78.978297
 C37     -C38     -C39     -C44     : -91.915759
 C38     -C29     -C34     -H62     :-175.041697
 C38     -C37     -C36     -H64     : 179.281292
 C38     -C39     -C40     -C41     :-175.914414
 C38     -C39     -C40     -C47     :   0.939794
 C38     -C39     -C44     -C43     : 176.192814
 C38     -C39     -C44     -C45     :   1.014125
 C39     -C38     -C37     -H65     :   8.604428
 C39     -C40     -C41     -C42     :   0.183632
 C39     -C40     -C41     -H66     :-177.685208
 C39     -C40     -C47     -C48     : 139.952085
 C39     -C40     -C47     -C51     : -96.603289
 C39     -C40     -C47     -H72     :  21.010825
 C39     -C44     -C43     -C42     :  -1.707070
 C39     -C44     -C43     -H67     : 176.807429
 C39     -C44     -C45     -C46     :  88.760506
 C39     -C44     -C45     -C50     :-147.067892
 C39     -C44     -C45     -H68     : -27.923640
 C40     -C6      -C5      -C48     :  62.972232
 C40     -C6      -C5      -H75     : 110.795495
 C40     -C39     -C44     -C43     :   5.462025
 C40     -C39     -C44     -C45     :-169.716664
 C40     -C41     -C42     -C43     :   3.524270
 C40     -C41     -C42     -C49     :-174.807659
 C40     -C47     -C48     -H73     :  69.540809
 C40     -C47     -C48     -H74     :-171.905979
 C40     -C47     -C48     -H75     : -51.484648
 C40     -C47     -C51     -H80     : -60.781100
 C40     -C47     -C51     -H81     : 179.967050
 C40     -C47     -C51     -H82     :  59.410583
 C41     -C40     -C39     -C44     :  -4.731826
 C41     -C40     -C47     -C48     : -43.180339
 C41     -C40     -C47     -C51     :  80.264287
 C41     -C40     -C47     -H72     :-162.121598
 C41     -C42     -C43     -C44     :  -2.756369
 C41     -C42     -C43     -H67     : 178.722196
 C41     -C42     -C49     -C52     :  65.622100
 C41     -C42     -C49     -C53     : -59.729306
 C41     -C42     -C49     -H76     :-177.558553
 C42     -C41     -C40     -C47     :-176.797561
 C42     -C43     -C44     -C45     : 173.594331
 C42     -C49     -C52     -H83     : -66.423954
 C42     -C49     -C52     -H84     : 173.906791
 C42     -C49     -C52     -H85     :  52.606652
 C42     -C49     -C53     -H86     :  62.826165
 C42     -C49     -C53     -H87     : -57.313194
 C42     -C49     -C53     -H88     :-177.812649
 C43     -C42     -C41     -H66     :-178.618321
 C43     -C42     -C49     -C52     :-112.661377
 C43     -C42     -C49     -C53     : 121.987217
 C43     -C42     -C49     -H76     :   4.157970
 C43     -C44     -C45     -C46     : -86.407446
 C43     -C44     -C45     -C50     :  37.764157
 C43     -C44     -C45     -H68     : 156.908408
 C44     -C39     -C40     -C47     : 172.122382
 C44     -C43     -C42     -C49     : 175.595014
 C44     -C45     -C46     -H69     :  61.208828
 C44     -C45     -C46     -H70     : -59.019453
 C44     -C45     -C46     -H71     :-179.402937
 C44     -C45     -C50     -H77     : -68.972886
 C44     -C45     -C50     -H78     : 172.673467
 C44     -C45     -C50     -H79     :  53.083269
 C45     -C44     -C43     -H67     :  -7.891170
 C46     -C45     -C50     -H77     :  55.374850
 C46     -C45     -C50     -H78     : -62.978797
 C46     -C45     -C50     -H79     : 177.431004
 C47     -C40     -C41     -H66     :   5.333599
 C47     -C48     -C5      -H75     :-122.717792
 C48     -C5      -C4      -H75     :  37.209832
 C48     -C47     -C51     -H80     :  65.533300
 C48     -C47     -C51     -H81     : -53.718550
 C48     -C47     -C51     -H82     :-174.275017
 C49     -C42     -C41     -H66     :   3.049750
 C49     -C42     -C43     -H67     :  -2.926422
 C50     -C45     -C46     -H69     : -65.429060
 C50     -C45     -C46     -H70     : 174.342659
 C50     -C45     -C46     -H71     :  53.959175
 C51     -C47     -C48     -H73     : -54.688409
 C51     -C47     -C48     -H74     :  63.864803
 C51     -C47     -C48     -H75     :-175.713866
 C52     -C49     -C53     -H86     : -62.101764
 C52     -C49     -C53     -H87     : 177.758876
 C52     -C49     -C53     -H88     :  57.259421
 C53     -C49     -C52     -H83     :  59.512729
 C53     -C49     -C52     -H84     : -60.156527
 C53     -C49     -C52     -H85     : 178.543335
 H54     -C30     -C27     -C93     :-178.908522
 H55     -C30     -C27     -C93     : -54.062920
 H56     -C31     -C27     -C93     :  63.756901
 H57     -C31     -C27     -C93     :-172.922504
 H58     -C32     -C28     -C89     :  64.593465
 H59     -C32     -C28     -C89     :-173.888260
 H60     -C33     -C28     -C89     : 179.172054
 H61     -C33     -C28     -C89     : -58.296901
 H62     -C34     -C35     -H63     :   0.289786
 H63     -C35     -C36     -H64     :  -1.201644
 H64     -C36     -C37     -H65     :   1.880213
 H68     -C45     -C46     -H69     : 177.852204
 H68     -C45     -C46     -H70     :  57.623923
 H68     -C45     -C46     -H71     : -62.759561
 H68     -C45     -C50     -H77     : 172.002201
 H68     -C45     -C50     -H78     :  53.648554
 H68     -C45     -C50     -H79     : -65.941644
 H72     -C47     -C48     -H73     :-171.097361
 H72     -C47     -C48     -H74     : -52.544149
 H72     -C47     -C48     -H75     :  67.877182
 H72     -C47     -C51     -H80     :-178.462614
 H72     -C47     -C51     -H81     :  62.285537
 H72     -C47     -C51     -H82     : -58.270930
 H73     -C48     -C5      -H75     : 124.573587
 H74     -C48     -C5      -H75     :  11.083816
 H76     -C49     -C52     -H83     : 177.129053
 H76     -C49     -C52     -H84     :  57.459798
 H76     -C49     -C52     -H85     : -63.840341
 H76     -C49     -C53     -H86     :-179.709569
 H76     -C49     -C53     -H87     :  60.151072
 H76     -C49     -C53     -H88     : -60.348383
 C89     -C28     -C32     -H99     : -54.334297
 C89     -C28     -C33     -H100    :  60.377970
 C93     -C27     -C30     -H97     :  62.824467
 C93     -C27     -C31     -H98     : -54.715630
 
  nuclear repulsion energy.......          7012.165941215 hartrees
  
  Detected an organometallic with only one TM atom. 
  
  Formal charge on ligand        1 is    -1
  Formal multiplet on ligand     1 is     1
  Oxidation state on metal       2 is     2
  Formal multiplet on metal      2 is     1
  Formal charge on ligand        3 is    -1
  Formal multiplet on ligand     3 is     1
  
 
  Will use High-Quality Initial guess for organometallics
       including d-d repulsion (iguess=30)
 
 Non-default options chosen:
   SCF calculation type: DFT(b3pw91-d3)              
   DFT=Becke_3_Parameter/HF+Slater+Becke88+PW91+PW-GGAIIC (B3PW91-D3)
   Geometry will be optimized in redundant internal coordinates
   Solvation energy will be computed using PBF
     -solute cavity energy will not be included
     -surface area terms will not be included
   Vibrational frequencies and related properties will be computed
      from analytic second derivatives
   IR intensities will be computed
   Thermochemical properties will be computed
   Maximum number of geometry steps: 100
   Scaling standard convergence criteria by a factor of   5.00
   Solvent: benzene                                                         
   Internal dielectric constant:    1.000
   Continuum dielectric constant:   2.283
   Solvent probe molecule radius:   2.600
  
 Non-default print settings:
     11=  2
  
 Temporary integer options set:
     21= -1  73=  2
  
  atom       vdw   vdw2    cov     mass  grid  daf  charge   basis
  P1        2.147  2.074  1.060   30.974    Y    Y      Y    ps_6-31g*
  Pd2       1.450  1.450  1.280  105.903    Y    Y      Y    lacv3p*
  N3        1.831  1.600  0.750   14.003    Y    Y      Y    ps_6-31g*
  C4        1.949  1.900  0.770   12.000    Y    Y      Y    ps_6-31g*
  C5        1.949  1.900  0.770   12.000    Y    Y      Y    ps_6-31g*
  C6        1.949  1.900  0.770   12.000    Y    Y      Y    ps_6-31g*
  C7        1.949  1.900  0.770   12.000    Y    Y      Y    ps_6-31g*
  C8        1.949  1.900  0.770   12.000    Y    Y      Y    ps_6-31g*
  C9        1.949  1.900  0.770   12.000    Y    Y      Y    ps_6-31g*
  F10       1.736  1.682  0.720   18.998    Y    Y      Y    ps_6-31g*
  H11       1.597  1.150  0.320    1.008    Y    Y      Y    ps_6-31g*
  H12       1.597  1.150  0.320    1.008    Y    Y      Y    ps_6-31g*
  H13       1.597  1.150  0.320    1.008    Y    Y      Y    ps_6-31g*
  H14       1.597  1.150  0.320    1.008    Y    Y      Y    ps_6-31g*
  H15       1.597  1.150  0.320    1.008    Y    Y      Y    ps_6-31g*
  C16       1.949  1.900  0.770   12.000    Y    Y      Y    ps_6-31g*
  C17       1.949  1.900  0.770   12.000    Y    Y      Y    ps_6-31g*
  C18       1.949  1.900  0.770   12.000    Y    Y      Y    ps_6-31g*
  C19       1.949  1.900  0.770   12.000    Y    Y      Y    ps_6-31g*
  C20       1.949  1.900  0.770   12.000    Y    Y      Y    ps_6-31g*
  C21       1.949  1.900  0.770   12.000    Y    Y      Y    ps_6-31g*
  H22       1.597  1.150  0.320    1.008    Y    Y      Y    ps_6-31g*
  H23       1.597  1.150  0.320    1.008    Y    Y      Y    ps_6-31g*
  H24       1.597  1.150  0.320    1.008    Y    Y      Y    ps_6-31g*
  H25       1.597  1.150  0.320    1.008    Y    Y      Y    ps_6-31g*
  H26       1.597  1.150  0.320    1.008    Y    Y      Y    ps_6-31g*
  C27       1.949  1.900  0.770   12.000    Y    Y      Y    ps_6-31g*
  C28       1.949  1.900  0.770   12.000    Y    Y      Y    ps_6-31g*
  C29       1.949  1.900  0.770   12.000    Y    Y      Y    ps_6-31g*
  C30       1.949  1.900  0.770   12.000    Y    Y      Y    ps_6-31g*
  C31       1.949  1.900  0.770   12.000    Y    Y      Y    ps_6-31g*
  C32       1.949  1.900  0.770   12.000    Y    Y      Y    ps_6-31g*
  C33       1.949  1.900  0.770   12.000    Y    Y      Y    ps_6-31g*
  C34       1.949  1.900  0.770   12.000    Y    Y      Y    ps_6-31g*
  C35       1.949  1.900  0.770   12.000    Y    Y      Y    ps_6-31g*
  C36       1.949  1.900  0.770   12.000    Y    Y      Y    ps_6-31g*
  C37       1.949  1.900  0.770   12.000    Y    Y      Y    ps_6-31g*
  C38       1.949  1.900  0.770   12.000    Y    Y      Y    ps_6-31g*
  C39       1.949  1.900  0.770   12.000    Y    Y      Y    ps_6-31g*
  C40       1.949  1.900  0.770   12.000    Y    Y      Y    ps_6-31g*
  C41       1.949  1.900  0.770   12.000    Y    Y      Y    ps_6-31g*
  C42       1.949  1.900  0.770   12.000    Y    Y      Y    ps_6-31g*
  C43       1.949  1.900  0.770   12.000    Y    Y      Y    ps_6-31g*
  C44       1.949  1.900  0.770   12.000    Y    Y      Y    ps_6-31g*
  C45       1.949  1.900  0.770   12.000    Y    Y      Y    ps_6-31g*
  C46       1.949  1.900  0.770   12.000    Y    Y      Y    ps_6-31g*
  C47       1.949  1.900  0.770   12.000    Y    Y      Y    ps_6-31g*
  C48       1.949  1.900  0.770   12.000    Y    Y      Y    ps_6-31g*
  C49       1.949  1.900  0.770   12.000    Y    Y      Y    ps_6-31g*
  C50       1.949  1.900  0.770   12.000    Y    Y      Y    ps_6-31g*
  C51       1.949  1.900  0.770   12.000    Y    Y      Y    ps_6-31g*
  C52       1.949  1.900  0.770   12.000    Y    Y      Y    ps_6-31g*
  C53       1.949  1.900  0.770   12.000    Y    Y      Y    ps_6-31g*
  H54       1.597  1.150  0.320    1.008    Y    Y      Y    ps_6-31g*
  H55       1.597  1.150  0.320    1.008    Y    Y      Y    ps_6-31g*
  H56       1.597  1.150  0.320    1.008    Y    Y      Y    ps_6-31g*
  H57       1.597  1.150  0.320    1.008    Y    Y      Y    ps_6-31g*
  H58       1.597  1.150  0.320    1.008    Y    Y      Y    ps_6-31g*
  H59       1.597  1.150  0.320    1.008    Y    Y      Y    ps_6-31g*
  H60       1.597  1.150  0.320    1.008    Y    Y      Y    ps_6-31g*
  H61       1.597  1.150  0.320    1.008    Y    Y      Y    ps_6-31g*
  H62       1.597  1.150  0.320    1.008    Y    Y      Y    ps_6-31g*
  H63       1.597  1.150  0.320    1.008    Y    Y      Y    ps_6-31g*
  H64       1.597  1.150  0.320    1.008    Y    Y      Y    ps_6-31g*
  H65       1.597  1.150  0.320    1.008    Y    Y      Y    ps_6-31g*
  H66       1.597  1.150  0.320    1.008    Y    Y      Y    ps_6-31g*
  H67       1.597  1.150  0.320    1.008    Y    Y      Y    ps_6-31g*
  H68       1.597  1.150  0.320    1.008    Y    Y      Y    ps_6-31g*
  H69       1.597  1.150  0.320    1.008    Y    Y      Y    ps_6-31g*
  H70       1.597  1.150  0.320    1.008    Y    Y      Y    ps_6-31g*
  H71       1.597  1.150  0.320    1.008    Y    Y      Y    ps_6-31g*
  H72       1.597  1.150  0.320    1.008    Y    Y      Y    ps_6-31g*
  H73       1.597  1.150  0.320    1.008    Y    Y      Y    ps_6-31g*
  H74       1.597  1.150  0.320    1.008    Y    Y      Y    ps_6-31g*
  H75       1.597  1.150  0.320    1.008    Y    Y      Y    ps_6-31g*
  H76       1.597  1.150  0.320    1.008    Y    Y      Y    ps_6-31g*
  H77       1.597  1.150  0.320    1.008    Y    Y      Y    ps_6-31g*
  H78       1.597  1.150  0.320    1.008    Y    Y      Y    ps_6-31g*
  H79       1.597  1.150  0.320    1.008    Y    Y      Y    ps_6-31g*
  H80       1.597  1.150  0.320    1.008    Y    Y      Y    ps_6-31g*
  H81       1.597  1.150  0.320    1.008    Y    Y      Y    ps_6-31g*
  H82       1.597  1.150  0.320    1.008    Y    Y      Y    ps_6-31g*
  H83       1.597  1.150  0.320    1.008    Y    Y      Y    ps_6-31g*
  H84       1.597  1.150  0.320    1.008    Y    Y      Y    ps_6-31g*
  H85       1.597  1.150  0.320    1.008    Y    Y      Y    ps_6-31g*
  H86       1.597  1.150  0.320    1.008    Y    Y      Y    ps_6-31g*
  H87       1.597  1.150  0.320    1.008    Y    Y      Y    ps_6-31g*
  H88       1.597  1.150  0.320    1.008    Y    Y      Y    ps_6-31g*
  C89       1.949  1.900  0.770   12.000    Y    Y      Y    ps_6-31g*
  H90       1.597  1.150  0.320    1.008    Y    Y      Y    ps_6-31g*
  H91       1.597  1.150  0.320    1.008    Y    Y      Y    ps_6-31g*
  H92       1.597  1.150  0.320    1.008    Y    Y      Y    ps_6-31g*
  C93       1.949  1.900  0.770   12.000    Y    Y      Y    ps_6-31g*
  H94       1.597  1.150  0.320    1.008    Y    Y      Y    ps_6-31g*
  H95       1.597  1.150  0.320    1.008    Y    Y      Y    ps_6-31g*
  H96       1.597  1.150  0.320    1.008    Y    Y      Y    ps_6-31g*
  H97       1.597  1.150  0.320    1.008    Y    Y      Y    ps_6-31g*
  H98       1.597  1.150  0.320    1.008    Y    Y      Y    ps_6-31g*
  H99       1.597  1.150  0.320    1.008    Y    Y      Y    ps_6-31g*
  H100      1.597  1.150  0.320    1.008    Y    Y      Y    ps_6-31g*
 
  atom      formal  2spin      esp    mulk    frag
  P1          -1       0        Y    0.000       0
  Pd2          2       0        Y    0.000       0
  N3          -1       0        Y    0.000       0
  
  end of program pre
   
 Time(pre)  user:       5.345  user+sys:       5.345  wallclock:       2.137
  
  start of program onee
  
  smallest eigenvalue of S:    2.830E-04
  number of canonical orbitals.....          757
  end of program onee
   
 Time(onee)  user:       8.640  user+sys:       8.640  wallclock:       1.570
  
  start of program hfig
  
  initial wavefunction generated automatically from atomic wavefunctions
  Only one state below 0.010000
  Skip d-d repulsion considerations 
 
  Irreducible     Total no   No of occupied orbitals 
  representation  orbitals   Shell_1  Shell_2    ...
  No Symm          757        175
  ------------------------
  Orbital occupation/shell    1.000
 
  end of program hfig
   
 Time(hfig)  user:       2.805  user+sys:       2.805  wallclock:       1.402
  
  start of program probe
  
  end of program probe
   
 Time(probe)  user:       1.554  user+sys:       1.554  wallclock:       0.511
  
  start of program grid
  
   grid     grid set  grid #  grid sym
  ------    --------  ------  --------
  coarse        0        0        1
  medium        2        1        1
  fine          0        0        1
  ultrafine     4        2        1
  charge       -1        3        1
  gradient      4        2        1
  density       0        0        1
  DFT-fine    -11        4        1
  DFT-med.    -10        5        1
  DFT-grad    -12        6        1
  DFT-der2     -8        7        1
  DFT-cphf     -9        8        1
  LMP2-enrg     4        2        1
  LMP2-grad     2        1        1
  DFT-cphf2   -15        9        1
  PBF-dens      0        0        1
  plotting      0        0        1
  Rel-grad    -17        0        1
  
  number of gridpoints: 
     atom           P1         Pd2          N3          C4          C5          C6          C7
  grid # 1         613         358         105          76          87          91          99
  grid # 2         434         317         378         276         274         317         390
  grid # 3           6         256           7          19          10          14          17
  grid # 4        8714        8714        8714        8714        8714        8714        8714
  grid # 5        1192        1192        1192        1192        1192        1192        1192
  grid # 6        9132        9132        5922        5922        5922        5922        5922
  grid # 7       23034       32968       13958       13950       13950       13950       13950
  grid # 8         722        1150         756         748         748         748         748
  grid # 9         366        2198         406         394         394         394         394
   
  number of gridpoints: 
     atom           C8          C9         F10         H11         H12         H13         H14
  grid # 1          95          93         573          78          77         104         115
  grid # 2         320         316         542         329         361         424         466
  grid # 3          24          25         254          16          18         175         392
  grid # 4        8714        8714        8714        8714        8714        8714        8714
  grid # 5        1192        1192        1192        1192        1192        1192        1192
  grid # 6        5922        5922        5922        5922        5922        5922        5922
  grid # 7       13950       13950       23190       15206       15206       15206       15206
  grid # 8         748         748         770         786         786         786         786
  grid # 9         394         394         420         420         420         420         420
   
  number of gridpoints: 
     atom          H15         C16         C17         C18         C19         C20         C21
  grid # 1         101          97          97          96          99          96          97
  grid # 2         428         325         325         324         355         325         325
  grid # 3         120          53          50          44          30          41          48
  grid # 4        8714        8714        8714        8714        8714        8714        8714
  grid # 5        1192        1192        1192        1192        1192        1192        1192
  grid # 6        5922        5922        5922        5922        5922        5922        5922
  grid # 7       15206       13950       13950       13950       13950       13950       13950
  grid # 8         786         748         748         748         748         748         748
  grid # 9         420         394         394         394         394         394         394
   
  number of gridpoints: 
     atom          H22         H23         H24         H25         H26         C27         C28
  grid # 1         118         118         113         105         118          87          90
  grid # 2         467         467         459         432         467         372         371
  grid # 3         422         422         261         209         418           6           6
  grid # 4        8714        8714        8714        8714        8714        8714        8714
  grid # 5        1192        1192        1192        1192        1192        1192        1192
  grid # 6        5922        5922        5922        5922        5922        5922        5922
  grid # 7       15206       15206       15206       15206       15206       13950       13950
  grid # 8         786         786         786         786         786         748         748
  grid # 9         420         420         420         420         420         394         394
   
  number of gridpoints: 
     atom          C29         C30         C31         C32         C33         C34         C35
  grid # 1          92          81          81          80          81          93          95
  grid # 2         388         237         241         238         240         323         324
  grid # 3           8           6           6           6           6          11          27
  grid # 4        8714        8714        8714        8714        8714        8714        8714
  grid # 5        1192        1192        1192        1192        1192        1192        1192
  grid # 6        5922        5922        5922        5922        5922        5922        5922
  grid # 7       13950       13950       13950       13950       13950       13950       13950
  grid # 8         748         748         748         748         748         748         748
  grid # 9         394         394         394         394         394         394         394
   
  number of gridpoints: 
     atom          C36         C37         C38         C39         C40         C41         C42
  grid # 1          96          94         100          95          89          91          99
  grid # 2         322         324         353         337         308         302         359
  grid # 3          31          13           8           7          11          18          16
  grid # 4        8714        8714        8714        8714        8714        8714        8714
  grid # 5        1192        1192        1192        1192        1192        1192        1192
  grid # 6        5922        5922        5922        5922        5922        5922        5922
  grid # 7       13950       13950       13950       13950       13950       13950       13950
  grid # 8         748         748         748         748         748         748         748
  grid # 9         394         394         394         394         394         394         394
   
  number of gridpoints: 
     atom          C43         C44         C45         C46         C47         C48         C49
  grid # 1          94          97          92          81          90          80          90
  grid # 2         326         359         309         241         299         232         305
  grid # 3          18          12           6           6           6           6           6
  grid # 4        8714        8714        8714        8714        8714        8714        8714
  grid # 5        1192        1192        1192        1192        1192        1192        1192
  grid # 6        5922        5922        5922        5922        5922        5922        5922
  grid # 7       13950       13950       13950       13950       13950       13950       13950
  grid # 8         748         748         748         748         748         748         748
  grid # 9         394         394         394         394         394         394         394
   
  number of gridpoints: 
     atom          C50         C51         C52         C53         H54         H55         H56
  grid # 1          81          82          82          79         100         104          94
  grid # 2         245         239         239         247         421         428         402
  grid # 3           6           6           6           6         150         179          34
  grid # 4        8714        8714        8714        8714        8714        8714        8714
  grid # 5        1192        1192        1192        1192        1192        1192        1192
  grid # 6        5922        5922        5922        5922        5922        5922        5922
  grid # 7       13950       13950       13950       13950       15206       15206       15206
  grid # 8         748         748         748         748         786         786         786
  grid # 9         394         394         394         394         420         420         420
   
  number of gridpoints: 
     atom          H57         H58         H59         H60         H61         H62         H63
  grid # 1         101         106          98         100         105         101         117
  grid # 2         425         440         404         416         437         415         469
  grid # 3         151         166          76          54         177          66         406
  grid # 4        8714        8714        8714        8714        8714        8714        8714
  grid # 5        1192        1192        1192        1192        1192        1192        1192
  grid # 6        5922        5922        5922        5922        5922        5922        5922
  grid # 7       15206       15206       15206       15206       15206       15206       15206
  grid # 8         786         786         786         786         786         786         786
  grid # 9         420         420         420         420         420         420         420
   
  number of gridpoints: 
     atom          H64         H65         H66         H67         H68         H69         H70
  grid # 1         117         107          88         104         100         110         106
  grid # 2         468         436         377         435         414         453         441
  grid # 3         411         146          58         154          37         288         191
  grid # 4        8714        8714        8714        8714        8714        8714        8714
  grid # 5        1192        1192        1192        1192        1192        1192        1192
  grid # 6        5922        5922        5922        5922        5922        5922        5922
  grid # 7       15206       15206       15206       15206       15206       15206       15206
  grid # 8         786         786         786         786         786         786         786
  grid # 9         420         420         420         420         420         420         420
   
  number of gridpoints: 
     atom          H71         H72         H73         H74         H75         H76         H77
  grid # 1         110         105          93         107          72         110         105
  grid # 2         451         425         394         446         337         444         440
  grid # 3         309         101         136         260          18         219         237
  grid # 4        8714        8714        8714        8714        8714        8714        8714
  grid # 5        1192        1192        1192        1192        1192        1192        1192
  grid # 6        5922        5922        5922        5922        5922        5922        5922
  grid # 7       15206       15206       15206       15206       15206       15206       15206
  grid # 8         786         786         786         786         786         786         786
  grid # 9         420         420         420         420         420         420         420
   
  number of gridpoints: 
     atom          H78         H79         H80         H81         H82         H83         H84
  grid # 1         109         102         108         110         107         106         109
  grid # 2         447         423         450         452         439         447         455
  grid # 3         271         112         265         319         188         220         328
  grid # 4        8714        8714        8714        8714        8714        8714        8714
  grid # 5        1192        1192        1192        1192        1192        1192        1192
  grid # 6        5922        5922        5922        5922        5922        5922        5922
  grid # 7       15206       15206       15206       15206       15206       15206       15206
  grid # 8         786         786         786         786         786         786         786
  grid # 9         420         420         420         420         420         420         420
   
  number of gridpoints: 
     atom          H85         H86         H87         H88         C89         H90         H91
  grid # 1         108         108         111         109          82         108          99
  grid # 2         450         446         460         457         239         445         425
  grid # 3         272         243         347         325           6         257         167
  grid # 4        8714        8714        8714        8714        8714        8714        8714
  grid # 5        1192        1192        1192        1192        1192        1192        1192
  grid # 6        5922        5922        5922        5922        5922        5922        5922
  grid # 7       15206       15206       15206       15206       13950       15206       15206
  grid # 8         786         786         786         786         748         786         786
  grid # 9         420         420         420         420         394         420         420
   
  number of gridpoints: 
     atom          H92         C93         H94         H95         H96         H97         H98
  grid # 1         100          79         108         103          98         109         107
  grid # 2         425         241         446         424         414         445         440
  grid # 3         152           6         259         143          65         257         209
  grid # 4        8714        8714        8714        8714        8714        8714        8714
  grid # 5        1192        1192        1192        1192        1192        1192        1192
  grid # 6        5922        5922        5922        5922        5922        5922        5922
  grid # 7       15206       13950       15206       15206       15206       15206       15206
  grid # 8         786         748         786         786         786         786         786
  grid # 9         420         394         420         420         420         420         420
   
  number of gridpoints: 
     atom          H99        H100       total
  grid # 1         109         108       11068
  grid # 2         447         446       37904
  grid # 3         265         256       12577
  grid # 4        8714        8714      871400
  grid # 5        1192        1192      119200
  grid # 6        5922        5922      598620
  grid # 7       15206       15206     1501430
  grid # 8         786         786       77296
  grid # 9         420         420       42644
   
  end of program grid
   
 Time(grid)  user:     707.045  user+sys:     707.045  wallclock:      47.126
  
  start of program rwr
  
  end of program rwr
   
 Time(rwr)  user:      62.757  user+sys:      62.757  wallclock:      17.812
  
  start of program scf
  
 number of electrons..........        350
 number of alpha electrons....        175
 number of beta electrons.....        175
 number of orbitals, total....        757
 number of doubly-occ'd orbs..        175
 number of open shell orbs....          0
 number of occupied orbitals..        175
 number of virtual orbitals...        582
 number of hamiltonians.......          1
 number of shells.............          1
 SCF type: DFT=Becke_3_Parameter/HF+Slater+Becke88+PW91+PW-GGAIIC (B3PW91-D3)
 Energy computed using pseudospectral method.
 Convergence Criterion:
    Energy (econv):       1.00E-05
    RMS density (dconv):  5.00E-06
  
       i  u  d  i  g                   
       t  p  i  c  r                                 RMS    maximum
       e  d  i  u  i                       energy  density   DIIS  
       r  t  s  t  d       total energy    change  change    error 
  
etot    1  N  N  5  M   -2209.89893099631           3.2E-03  2.1E-01
etot    2  Y  Y  6  M   -2214.27701305805  4.4E+00  4.6E-03  1.1E-01
etot    3  Y  Y  6  M   -2213.43697751478 -8.4E-01  7.5E-03  6.5E-02
etot    4  N  Y  2  U   -2204.33262956819 -9.1E+00  5.9E-03  2.0E-01
etot    5  N  Y  2  U   -2216.00663440734  1.2E+01  2.5E-03  3.5E-02
etot    6  Y  Y  6  M   -2216.23470945750  2.3E-01  8.6E-04  3.5E-02
etot    7  N  Y  2  U   -2216.45139548798  2.2E-01  5.7E-04  9.7E-03
etot    8  Y  Y  6  M   -2216.46979180310  1.8E-02  3.1E-04  4.1E-03
etot    9  N  Y  2  U   -2216.48492708157  1.5E-02  9.6E-05  1.9E-03
etot   10  Y  Y  6  M   -2216.48649760304  1.6E-03  4.5E-05  1.4E-03
etot   11  N  Y  2  U   -2216.48696064440  4.6E-04  2.7E-05  4.5E-04
etot   12  N  Y  2  U   -2216.48705648193  9.6E-05  1.1E-05  1.4E-04
etot   13  N  Y  2  U   -2216.48707208530  1.6E-05  7.9E-06  1.4E-04
etot   14  N  Y  2  U   -2216.48708028491  8.2E-06  4.5E-06  5.1E-05
etot   15  N  N  2  U   -2216.48708247363  2.2E-06  0.0E+00  0.0E+00
 
  Computing the dispersion energy correction and its gradients...
  
  
 Energy components, in hartrees:
   (A)  Nuclear repulsion............    7012.16594121511
   (E)  Total one-electron terms.....  -17039.77655854425
   (F)    Electron-nuclear...........  -19166.27882338053
   (H)    Kinetic....................    2126.50226483629
   (I)  Total two-electron terms.....    7811.12353485551
   (J)    Coulomb....................    8107.48145698297
   (K)    Exchange+Correlation.......    -296.35792212746
   (L)  Electronic energy............   -9228.65302368874  (E+I)
   (N0) D3 correction................      -0.19235831460
   (N)  Total energy.................   -2216.67944078823  (A+L+N0)
   (O)  Gas phase energy.............   -2216.67944078823
  
 SCFE: SCF energy: DFT(b3pw91-d3)     -2216.67944078823 hartrees   iterations:  15
  
 
 HOMO energy:    -0.12456
 LUMO energy:    -0.06592
 
  Orbital energies (hartrees): 
   -77.10029   -24.72177   -14.25700   -10.26708   -10.23435   -10.22590
   -10.21338   -10.21011   -10.20551   -10.20419   -10.20066   -10.19814
   -10.19061   -10.18877   -10.18813   -10.18287   -10.17773   -10.17624
   -10.17612   -10.17257   -10.17198   -10.17094   -10.16918   -10.16592
   -10.16338   -10.16283   -10.15927   -10.15696   -10.15577   -10.15530
   -10.15438   -10.15273   -10.15232   -10.15124   -10.15070   -10.15037
   -10.14849   -10.14801   -10.14571   -10.14389   -10.14388   -10.14055
   -10.13515   -10.12872    -6.59628    -4.75420    -4.75347    -4.75244
    -3.33412    -2.06663    -2.06391    -2.03423    -1.27374    -1.08952
    -0.97226    -0.86820    -0.84874    -0.84619    -0.82493    -0.82081
    -0.81028    -0.80332    -0.78805    -0.78637    -0.78109    -0.76062
    -0.75637    -0.74202    -0.72540    -0.72251    -0.70249    -0.69518
    -0.68742    -0.68501    -0.68000    -0.67846    -0.67580    -0.67400
    -0.67237    -0.66717    -0.65593    -0.63065    -0.61943    -0.61437
    -0.60820    -0.60312    -0.58743    -0.58292    -0.57173    -0.55987
    -0.54992    -0.54798    -0.53824    -0.53592    -0.52307    -0.51752
    -0.51159    -0.49719    -0.49409    -0.48892    -0.47562    -0.46952
    -0.46572    -0.46411    -0.45991    -0.45700    -0.45214    -0.44569
    -0.44264    -0.44132    -0.43661    -0.43495    -0.43225    -0.43023
    -0.42742    -0.42577    -0.42116    -0.42067    -0.41927    -0.41464
    -0.40895    -0.40334    -0.40227    -0.40090    -0.39610    -0.39255
    -0.39129    -0.38957    -0.38652    -0.38150    -0.37995    -0.37759
    -0.37603    -0.37459    -0.37440    -0.37099    -0.36757    -0.36548
    -0.36186    -0.35535    -0.35283    -0.35114    -0.34542    -0.33811
    -0.33686    -0.33643    -0.33431    -0.33329    -0.33034    -0.32850
    -0.32637    -0.32472    -0.32254    -0.32192    -0.32050    -0.31649
    -0.31192    -0.30204    -0.30100    -0.28751    -0.28141    -0.27374
    -0.26538    -0.26158    -0.25667    -0.25548    -0.24917    -0.24502
    -0.22992    -0.22611    -0.21645    -0.20257    -0.17033    -0.14130
    -0.12456    -0.06592    -0.04336    -0.03601    -0.02181    -0.01347
     0.00177     0.01276     0.02245     0.02465     0.03080
 
  end of program scf
   
 Time(scf)  user:    1203.795  user+sys:    1203.795  wallclock:     108.510
  
  start of program der1a
  
  end of program der1a
   
 Time(der1a)  user:      22.071  user+sys:      22.071  wallclock:       1.911
  
  start of program rwr
  
  end of program rwr
   
 Time(rwr)  user:      47.668  user+sys:      47.668  wallclock:      21.189
  
  start of program der1b
  
   
  forces (hartrees/bohr) : total     
   
 atom  label           x              y              z
 ---- --------   -------------  -------------  -------------
    1 P1         -3.754130E-03   3.823162E-03  -3.364423E-02
    2 Pd2        -1.523705E-03   1.150307E-02  -5.769908E-03
    3 N3          2.006837E-02   2.113798E-02   3.330580E-02
    4 C4         -1.322848E-02  -2.671252E-01   2.959591E-01
    5 C5          5.321946E-02  -1.950536E-02   1.354993E-01
    6 C6         -8.605688E-03  -1.181664E-01   3.291480E-02
    7 C7         -1.448709E-04  -2.951984E-02  -1.082082E-02
    8 C8          3.777843E-02   7.888419E-03   7.901899E-03
    9 C9         -4.059027E-02   6.830680E-03   2.788666E-02
   10 F10        -2.365688E-02  -6.605214E-03   1.352556E-02
   11 H11         1.821236E-02  -5.604782E-02   4.339658E-02
   12 H12         5.899557E-02  -1.042211E-01   6.707292E-02
   13 H13        -1.111304E-02   5.229851E-03   9.628864E-03
   14 H14        -2.872107E-03   4.000891E-03  -7.092849E-03
   15 H15        -1.255863E-02  -4.573259E-02  -1.912568E-02
   16 C16         1.370511E-03  -3.208106E-03   1.618435E-03
   17 C17        -1.404393E-03   7.110961E-04   3.853209E-04
   18 C18         3.794707E-03  -1.350800E-02   1.144896E-02
   19 C19        -1.378894E-02   3.197409E-02  -8.456979E-03
   20 C20         9.366519E-03  -9.364221E-03   2.641679E-03
   21 C21        -2.377121E-03   7.760642E-04  -1.122628E-04
   22 H22        -3.587888E-03   8.084165E-03  -5.297208E-03
   23 H23         3.956398E-03   1.848483E-03  -8.986366E-03
   24 H24         7.678764E-03  -4.071285E-03  -4.539861E-03
   25 H25        -1.247382E-03  -1.020146E-03   1.670981E-02
   26 H26        -7.138287E-03   6.099860E-03   3.926861E-03
   27 C27         3.608452E-03  -7.545272E-04   4.653842E-03
   28 C28        -6.408595E-04   8.139415E-04   2.600474E-03
   29 C29        -2.584181E-03   3.828072E-03  -2.228444E-03
   30 C30        -2.159093E-03   1.747221E-04  -1.339019E-03
   31 C31        -4.205064E-03   1.208198E-04  -3.294175E-04
   32 C32         4.061190E-03  -1.281023E-03  -2.328453E-03
   33 C33        -1.485305E-04   2.156129E-03  -3.064395E-03
   34 C34         9.702224E-04   1.319378E-03   1.793858E-03
   35 C35         5.267591E-04  -3.041479E-05   5.174471E-03
   36 C36        -3.819966E-04  -4.444789E-03   2.763327E-03
   37 C37        -1.634736E-03  -2.848684E-03  -2.146339E-03
   38 C38        -3.640100E-03   1.801540E-03   3.332581E-04
   39 C39         9.260713E-02   9.968076E-02  -6.687593E-02
   40 C40        -4.571401E-02   3.262707E-02  -8.138124E-02
   41 C41        -6.641380E-03   1.593510E-01   9.396498E-02
   42 C42        -1.057863E-02   9.899515E-03  -1.561898E-02
   43 C43         6.939355E-03  -3.087956E-03   2.011988E-02
   44 C44        -1.587476E-02  -5.950647E-03  -2.306830E-02
   45 C45        -7.309017E-04  -5.264440E-03  -3.934479E-03
   46 C46        -1.058415E-03   1.313719E-03   1.171734E-03
   47 C47        -1.110972E-02   5.071056E-02  -6.453118E-02
   48 C48        -1.022010E-01   2.406687E-01  -1.988428E-01
   49 C49         4.044723E-04   6.630830E-04  -1.462650E-03
   50 C50         1.492798E-03   2.239681E-03  -1.973369E-03
   51 C51        -1.130273E-04   4.956962E-03  -3.877971E-03
   52 C52        -1.055817E-03   7.336147E-04  -9.978510E-04
   53 C53        -1.121867E-03  -9.576974E-05   2.338894E-04
   54 H54         3.376596E-03   4.967798E-03   3.072294E-03
   55 H55         2.422344E-03  -5.069829E-03   2.340029E-03
   56 H56        -6.006871E-03   3.438839E-03  -1.683155E-02
   57 H57         2.451639E-03   4.883389E-03   1.831464E-03
   58 H58        -5.705942E-03   1.705734E-03  -6.775000E-04
   59 H59         1.142640E-02  -6.303548E-03  -1.271385E-02
   60 H60         2.053394E-03  -3.185201E-03  -1.006732E-02
   61 H61         1.673913E-03  -4.127661E-03   3.968496E-03
   62 H62        -1.380692E-03   5.671700E-03   2.822097E-03
   63 H63         3.708206E-04   6.887106E-04   6.677712E-03
   64 H64         1.716879E-03  -5.189525E-03   3.573669E-03
   65 H65         2.555478E-03  -5.543481E-03  -2.157545E-03
   66 H66         2.653407E-02   6.059338E-02   2.833504E-02
   67 H67        -5.093418E-03  -2.340024E-03  -4.098685E-03
   68 H68        -1.582869E-03   3.398007E-03   4.907361E-03
   69 H69         1.305904E-03  -4.265169E-03  -4.298650E-03
   70 H70         3.996038E-03  -2.058830E-03   5.073537E-03
   71 H71        -5.796210E-03  -2.173811E-03   2.156903E-03
   72 H72        -7.817358E-04   2.137451E-04   6.620649E-03
   73 H73        -4.465238E-02   3.166005E-03  -6.186414E-02
   74 H74         1.127388E-02  -2.201575E-02  -5.943395E-03
   75 H75         4.787768E-02  -4.665267E-02  -2.183251E-01
   76 H76        -5.239092E-03  -2.390095E-03  -3.104419E-03
   77 H77         5.789051E-04  -5.668464E-03  -4.467933E-03
   78 H78        -5.873263E-03  -1.426282E-03   2.294943E-03
   79 H79        -1.753647E-03   6.873891E-03  -6.913409E-04
   80 H80         3.105675E-03  -3.425380E-03  -3.856733E-03
   81 H81         5.448432E-03   1.794525E-03   4.608150E-03
   82 H82        -4.055043E-03  -4.159470E-03   2.820708E-03
   83 H83         4.551451E-03   1.932736E-03   2.003386E-03
   84 H84         1.180236E-03  -1.586209E-03  -6.817097E-03
   85 H85        -3.993532E-03   4.213869E-03   1.487562E-03
   86 H86         5.308284E-03   1.501432E-03   2.286412E-03
   87 H87        -1.110004E-03  -6.294807E-03   2.339468E-03
   88 H88         1.546927E-03  -1.335584E-03  -5.923388E-03
   89 C89         9.784977E-04  -3.523772E-04  -8.988781E-04
   90 H90         3.777886E-03   5.343750E-03   1.331450E-03
   91 H91         5.320492E-04  -3.869779E-03   5.680913E-03
   92 H92        -6.020250E-03   2.368915E-03   4.923671E-04
   93 C93        -2.790836E-04   3.246019E-03   1.228806E-04
   94 H94        -6.244242E-03   1.306600E-04   2.303926E-03
   95 H95         2.223539E-03  -4.650871E-03   1.191457E-03
   96 H96         2.691996E-04  -3.152852E-03  -6.560874E-03
   97 H97        -6.514886E-03   1.616284E-04   2.211099E-03
   98 H98        -5.909583E-03  -2.059723E-04   1.457583E-03
   99 H99         2.889838E-03   5.365353E-03   3.145697E-03
  100 H100        2.935160E-03   5.623699E-03   2.101637E-03
 -------------   -------------  -------------  -------------
     total        2.234004E-03   9.536187E-04  -1.254289E-03
   
  end of program der1b
   
 Time(der1b)  user:     280.598  user+sys:     280.598  wallclock:      23.500
  
  start of program geopt
  
 ----------------------------------------------------------------------------
  Geometry optimization step  1
  Total energy:     -2216.67944078823 hartrees
 ----------------------------------------------------------------------------
  
  
  Level shifts adjusted to satisfy step-size constraints
   Step size:    0.3000987
   Cos(theta):   0.9850026
   Final level shift:  -2.0888274E+00
  
  gradient maximum:        2.7700E-01 .  (  2.2500E-03 )
  gradient rms:            4.3720E-02 .  (  1.5000E-03 )
  displacement maximum:    1.0336E-01 .  (  9.0000E-03 )
  displacement rms:        1.5723E-02 .  (  6.0000E-03 )
  
  predicted energy change:  -2.1723E-01
  step size:     0.29997
  trust radius:  0.30000
  
  molecular structure not yet converged...
  
  center of mass moved by:
     x:    -3.3069E-02     y:    -6.5496E-02     z:     2.2615E-02
  
  new geometry: 
                                   angstroms
  atom               x                 y                 z
[...]
    C53      Z    -0.00002   0.00002  -0.00000   0.00003   0.00000   0.00000
    H54      X    -0.00028   0.00001  -0.00008  -0.00005  -0.00131   0.00006
    H54      Y    -0.00035   0.00001  -0.00011  -0.00007  -0.00587   0.00003
    H54      Z    -0.00026  -0.00000  -0.00010  -0.00005  -0.00442   0.00009
    H55      X    -0.00001   0.00007   0.00002  -0.00001   0.00849  -0.00003
    H55      Y     0.00005  -0.00024  -0.00005   0.00004  -0.02436   0.00010
    H55      Z     0.00000   0.00007   0.00001  -0.00001   0.00680  -0.00011
    H56      X    -0.00000   0.00005   0.00001  -0.00001  -0.00003   0.00037
    H56      Y    -0.00015   0.00000  -0.00008   0.00001  -0.00038   0.00058
    H56      Z     0.00098   0.00004   0.00081   0.00015   0.00142   0.00003
    H57      X    -0.00006  -0.00002   0.00015  -0.00003   0.00005  -0.00020
    H57      Y    -0.00012  -0.00005   0.00024  -0.00005   0.00002  -0.00020
    H57      Z    -0.00013  -0.00004   0.00007  -0.00006   0.00002  -0.00060
    H58      X     0.00006  -0.00007  -0.00657  -0.00028  -0.00014  -0.00021
    H58      Y    -0.00002   0.00001   0.00274   0.00012  -0.00003   0.00014
    H58      Z    -0.00007  -0.00002   0.00354   0.00014   0.00016   0.00021
    H59      X     0.00018   0.00005  -0.00021  -0.00000   0.00060   0.00008
    H59      Y     0.00022   0.00009   0.00190   0.00015   0.00072  -0.00021
    H59      Z     0.00081   0.00085   0.02416   0.00128   0.00290  -0.00020
    H60      X     0.00011  -0.00016  -0.00209  -0.00016   0.00001  -0.00008
    H60      Y    -0.00014   0.00028   0.00554   0.00060  -0.00007   0.00000
    H60      Z    -0.00058   0.00119   0.01418   0.00178   0.00064  -0.00010
    H61      X    -0.00004   0.00015   0.00173   0.00009   0.00077   0.00005
    H61      Y     0.00011  -0.00029  -0.00462  -0.00024  -0.00064  -0.00008
    H61      Z    -0.00007   0.00019   0.00433   0.00019   0.00000   0.00013
    H62      X    -0.00009  -0.00000  -0.00021  -0.00008  -0.28153  -0.00001
    H62      Y     0.00027  -0.00000   0.00062   0.00021   0.73239   0.00004
    H62      Z     0.00023  -0.00004   0.00044   0.00016   0.53400  -0.00002
    H63      X    -0.00007  -0.00001  -0.00000  -0.00001   0.00546   0.00001
    H63      Y     0.00003  -0.00001   0.00001   0.00001  -0.00469  -0.00002
    H63      Z    -0.00129  -0.00023  -0.00010  -0.00011   0.08588   0.00005
    H64      X    -0.00059  -0.00024  -0.00004  -0.00006   0.00268   0.00002
    H64      Y     0.00153   0.00058   0.00010   0.00017  -0.00681  -0.00003
    H64      Z    -0.00077  -0.00032  -0.00005  -0.00009   0.00242   0.00001
    H65      X    -0.00047  -0.00017   0.00009  -0.00009   0.00289   0.00008
    H65      Y     0.00114   0.00041  -0.00021   0.00024  -0.00711  -0.00013
    H65      Z     0.00084   0.00034  -0.00014   0.00017  -0.00540  -0.00007
    H66      X    -0.00058  -0.00403   0.00037  -0.00820   0.00028  -0.00012
    H66      Y    -0.00004  -0.00034   0.00001  -0.00038   0.00001  -0.00000
    H66      Z     0.00016   0.00087  -0.00008   0.00210  -0.00011   0.00002
    H67      X    -0.00028   0.00942  -0.00009   0.00090  -0.00016  -0.00009
    H67      Y    -0.00020   0.00600  -0.00008   0.00066  -0.00011  -0.00017
    H67      Z    -0.00029   0.00888  -0.00009   0.00088  -0.00020  -0.00032
    H68      X    -0.00013   0.00044  -0.00003   0.00004   0.00010  -0.00011
    H68      Y     0.00036  -0.00094   0.00010  -0.00009  -0.00021   0.00001
    H68      Z     0.00035  -0.00086   0.00012  -0.00006  -0.00016  -0.00030
    H69      X    -0.00006   0.00000  -0.00000  -0.00000  -0.00000   0.00002
    H69      Y     0.00024  -0.00020   0.00002  -0.00002  -0.00000  -0.00004
    H69      Z     0.00016  -0.00010   0.00001  -0.00000   0.00001   0.00008
    H70      X    -0.00003  -0.00012  -0.00009  -0.00005   0.00020  -0.00021
    H70      Y     0.00002   0.00001   0.00002   0.00001  -0.00001   0.00025
    H70      Z    -0.00007  -0.00016  -0.00013  -0.00008   0.00036  -0.00050
    H71      X    -0.00012   0.00053   0.00002  -0.00001  -0.00005  -0.00010
    H71      Y    -0.00004   0.00012   0.00000  -0.00001  -0.00002  -0.00007
    H71      Z     0.00005  -0.00020  -0.00000  -0.00000   0.00004   0.00013
    H72      X    -0.00008   0.00025   0.00031  -0.00017  -0.00011   0.00003
    H72      Y     0.00007  -0.00016  -0.00015   0.00003  -0.00002  -0.00003
    H72      Z     0.00016  -0.00042  -0.00051   0.00027   0.00005  -0.00008
    H73      X    -0.00012   0.00083   0.00081  -0.00143  -0.00002   0.00001
    H73      Y     0.00007  -0.00050  -0.00051   0.00081   0.00003   0.00000
    H73      Z     0.00014  -0.00115  -0.00123   0.00140   0.00002  -0.00001
    H74      X     0.00008   0.00014  -0.00030   0.00062   0.00019  -0.00001
    H74      Y     0.00002   0.00017   0.00010   0.00061   0.00011  -0.00003
    H74      Z     0.00009   0.00022  -0.00017   0.00097   0.00017   0.00001
    H75      X     0.00017   0.00333   0.00411   0.00308  -0.00004  -0.00002
    H75      Y    -0.00021  -0.00368  -0.00457  -0.00333   0.00002  -0.00002
    H75      Z     0.00003   0.00195   0.00236   0.00183  -0.00004  -0.00002
    H76      X     0.00004  -0.00010   0.00001   0.00016  -0.00004  -0.00008
    H76      Y     0.00002  -0.00006  -0.00000   0.00032  -0.00002  -0.00006
    H76      Z     0.00002   0.00010   0.00002  -0.00026  -0.00002  -0.00005
    H77      X     0.00003  -0.00008  -0.00002  -0.00002   0.00000  -0.00057
    H77      Y     0.00039  -0.00004   0.00024   0.00011  -0.00007   0.00063
    H77      Z     0.00012  -0.00000   0.00013   0.00006  -0.00006  -0.00053
    H78      X    -0.00059   0.00031  -0.00008  -0.00002  -0.00010  -0.00410
    H78      Y     0.00015  -0.00004  -0.00002  -0.00002   0.00002  -0.00240
    H78      Z     0.00013  -0.00004   0.00003   0.00001   0.00003   0.00164
    H79      X    -0.00061  -0.00005   0.00014   0.00008  -0.00001   0.00265
    H79      Y    -0.00191  -0.00036   0.00043   0.00019  -0.00007  -0.00217
    H79      Z     0.00133   0.00031  -0.00039  -0.00018   0.00007  -0.00255
    H80      X    -0.00006   0.00002   0.00011  -0.00014  -0.00003   0.00003
    H80      Y     0.00006  -0.00004  -0.00010   0.00015   0.00000  -0.00001
    H80      Z     0.00011  -0.00002  -0.00014   0.00022   0.00005  -0.00003
    H81      X    -0.00006  -0.00019  -0.00019  -0.00003   0.00011  -0.00004
    H81      Y    -0.00003  -0.00007  -0.00009  -0.00001   0.00003  -0.00001
    H81      Z    -0.00006  -0.00015  -0.00015  -0.00004   0.00010  -0.00004
    H82      X    -0.00007   0.00010   0.00001  -0.00014  -0.00018  -0.00002
    H82      Y    -0.00013   0.00013   0.00002  -0.00021  -0.00032  -0.00004
    H82      Z     0.00008  -0.00008  -0.00000   0.00016   0.00021   0.00004
    H83      X     0.00002  -0.00034   0.00005   0.00088  -0.00000  -0.00012
    H83      Y    -0.00001   0.00067   0.00018  -0.00352   0.00001  -0.00003
    H83      Z    -0.00000   0.00023   0.00005  -0.00065   0.00001  -0.00004
    H84      X    -0.00003   0.00003  -0.00008   0.00054   0.00002   0.00001
    H84      Y     0.00004  -0.00029   0.00011  -0.00008  -0.00003  -0.00003
    H84      Z     0.00010  -0.00010   0.00024  -0.00072  -0.00010  -0.00002
    H85      X     0.00019  -0.00040  -0.00030   0.00209   0.00002   0.00008
    H85      Y    -0.00023   0.00120   0.00044  -0.00530  -0.00002  -0.00003
    H85      Z     0.00003   0.00052  -0.00006  -0.00023   0.00001   0.00003
    H86      X     0.00002  -0.00021   0.00001  -0.00053   0.00001  -0.00004
    H86      Y     0.00000  -0.00009  -0.00000  -0.00019   0.00001  -0.00001
    H86      Z    -0.00000  -0.00010  -0.00000  -0.00020   0.00001  -0.00002
    H87      X    -0.00003  -0.00004   0.00002   0.00003  -0.00001  -0.00000
    H87      Y    -0.00008  -0.00025   0.00003   0.00022  -0.00000  -0.00004
    H87      Z     0.00006   0.00019  -0.00003  -0.00014   0.00001   0.00003
    H88      X    -0.00004  -0.00004  -0.00002   0.00005   0.00003   0.00000
    H88      Y     0.00008   0.00007   0.00004  -0.00010  -0.00004   0.00001
    H88      Z     0.00016  -0.00005   0.00008  -0.00016  -0.00008   0.00001
    C89      X     0.00000  -0.00001   0.00004   0.00001  -0.00184   0.00002
    C89      Y     0.00001   0.00003   0.00006  -0.00000   0.00202   0.00001
    C89      Z     0.00001  -0.00001  -0.00003   0.00000  -0.00158  -0.00001
    H90      X    -0.00017   0.00000  -0.00023  -0.00004  -0.00148   0.00001
    H90      Y    -0.00026   0.00002  -0.00045  -0.00006  -0.00163   0.00004
    H90      Z    -0.00010   0.00005  -0.00013  -0.00002  -0.00079   0.00008
    H91      X    -0.00000   0.00010   0.00029  -0.00001   0.01038   0.00002
    H91      Y     0.00004  -0.00024  -0.00049   0.00004  -0.03626  -0.00007
    H91      Z    -0.00002   0.00019   0.00032  -0.00003   0.02416   0.00005
    H92      X     0.00003   0.00011  -0.00087  -0.00005   0.01008  -0.00014
    H92      Y     0.00002  -0.00003   0.00023   0.00002  -0.00213   0.00003
    H92      Z     0.00000  -0.00004   0.00034   0.00002  -0.00304   0.00006
    C93      X    -0.00003  -0.00002  -0.00002  -0.00001  -0.00001   0.00003
    C93      Y     0.00003   0.00004   0.00004   0.00001   0.00007   0.00002
    C93      Z    -0.00015  -0.00008  -0.00011  -0.00004  -0.00012   0.00023
    H94      X     0.00000  -0.00009  -0.00016  -0.00001  -0.00038  -0.00018
    H94      Y     0.00001  -0.00002  -0.00002   0.00000   0.00006  -0.00016
    H94      Z    -0.00005   0.00003   0.00002  -0.00001   0.00013   0.00051
    H95      X     0.00010   0.00023   0.00013   0.00001   0.00052  -0.00001
    H95      Y    -0.00020  -0.00043  -0.00024  -0.00003  -0.00088   0.00005
    H95      Z    -0.00001   0.00010   0.00001  -0.00001   0.00006   0.00011
    H96      X     0.00019   0.00009   0.00014   0.00004   0.00017   0.00002
    H96      Y    -0.00032  -0.00008  -0.00026  -0.00010  -0.00022   0.00066
    H96      Z     0.00195   0.00085   0.00142   0.00054   0.00103  -0.00532
    H97      X     0.00012   0.00002  -0.00004   0.00002   0.00778  -0.00026
    H97      Y     0.00001  -0.00001   0.00001   0.00000  -0.00206  -0.00005
    H97      Z    -0.00009   0.00003   0.00001  -0.00001  -0.00116   0.00023
    H98      X    -0.00018  -0.00015  -0.00011   0.00001  -0.00054  -0.00023
    H98      Y    -0.00004  -0.00003  -0.00002   0.00001   0.00003   0.00002
    H98      Z     0.00006   0.00006   0.00002  -0.00001   0.00007   0.00012
    H99      X    -0.00024   0.00041   0.00302   0.00013   0.00043   0.00000
    H99      Y    -0.00026   0.00041   0.00414   0.00018   0.00049   0.00003
    H99      Z    -0.00008   0.00009   0.00261   0.00011   0.00007   0.00003
    H100     X    -0.00027   0.00009  -0.00102  -0.00001  -0.00008   0.00004
    H100     Y    -0.00036   0.00009  -0.00144  -0.00002  -0.00012   0.00003
    H100     Z    -0.00007   0.00002  -0.00115  -0.00009  -0.00002   0.00002
  
  Number of imaginary frequencies:   0
   
  Writing vibrational animation data to red_elim_L_trans_L1_PL274_2.vib
  Writing IR vibrational spectrum data to red_elim_L_trans_L1_PL274_2_vib.spm
  rotational symmetry number:  1

  rotational temperatures (K):      0.003907      0.003513      0.002797
   
  The Quasi-Harmonic approximation will be applied to compute
  vibrational constributions to thermodynamic properties.
  Frequencies will be adjusted to a minimum value of  100.00 cm^-1.

  vibrational temperatures:
       mode:      1        2        3        4        5        6
  temp. (K):   143.88   143.88   143.88   143.88   143.88   143.88
   
       mode:      7        8        9       10       11       12
  temp. (K):   143.88   143.88   143.88   143.88   143.88   143.88
   
       mode:     13       14       15       16       17       18
  temp. (K):   143.88   149.87   151.23   160.36   165.67   169.26
   
       mode:     19       20       21       22       23       24
  temp. (K):   181.22   194.13   201.03   203.80   208.87   220.39
   
       mode:     25       26       27       28       29       30
  temp. (K):   227.91   238.71   241.90   261.25   274.15   294.96
   
       mode:     31       32       33       34       35       36
  temp. (K):   308.45   325.25   333.09   346.57   349.33   360.78
   
       mode:     37       38       39       40       41       42
  temp. (K):   363.23   370.60   371.90   378.39   382.28   394.81
   
       mode:     43       44       45       46       47       48
  temp. (K):   402.95   407.48   409.94   425.04   428.39   439.89
   
       mode:     49       50       51       52       53       54
  temp. (K):   449.35   455.59   458.81   462.05   468.33   489.01
   
       mode:     55       56       57       58       59       60
  temp. (K):   501.84   508.71   513.25   522.43   535.00   562.19
   
       mode:     61       62       63       64       65       66
  temp. (K):   565.07   577.96   586.11   596.85   606.39   613.26
   
       mode:     67       68       69       70       71       72
  temp. (K):   615.50   621.57   636.80   638.45   655.65   692.36
   
       mode:     73       74       75       76       77       78
  temp. (K):   701.54   723.13   743.31   752.45   761.31   763.32
   
       mode:     79       80       81       82       83       84
  temp. (K):   783.03   789.31   815.82   824.39   835.67   845.56
   
       mode:     85       86       87       88       89       90
  temp. (K):   869.88   877.78   889.39   920.94   924.00   944.79
   
       mode:     91       92       93       94       95       96
  temp. (K):   964.75   971.16  1023.09  1038.81  1083.30  1107.17
   
       mode:     97       98       99      100      101      102
  temp. (K):  1113.82  1146.82  1158.74  1164.02  1185.33  1193.58
   
       mode:    103      104      105      106      107      108
  temp. (K):  1194.45  1195.43  1203.34  1211.05  1214.20  1236.08
   
       mode:    109      110      111      112      113      114
  temp. (K):  1246.27  1280.26  1303.51  1311.14  1317.82  1331.00
   
       mode:    115      116      117      118      119      120
  temp. (K):  1356.95  1367.86  1369.57  1371.24  1375.64  1379.11
   
       mode:    121      122      123      124      125      126
  temp. (K):  1386.38  1389.88  1391.82  1399.92  1403.81  1411.62
   
       mode:    127      128      129      130      131      132
  temp. (K):  1413.77  1415.74  1418.20  1419.30  1424.75  1436.75
   
       mode:    133      134      135      136      137      138
  temp. (K):  1440.19  1443.66  1471.34  1472.64  1487.83  1495.55
   
       mode:    139      140      141      142      143      144
  temp. (K):  1503.07  1513.12  1516.85  1526.48  1536.09  1544.21
   
       mode:    145      146      147      148      149      150
  temp. (K):  1572.37  1577.37  1598.33  1601.76  1622.27  1637.77
   
       mode:    151      152      153      154      155      156
  temp. (K):  1642.38  1646.12  1650.68  1669.29  1681.84  1716.95
   
       mode:    157      158      159      160      161      162
  temp. (K):  1721.43  1729.19  1734.98  1738.65  1739.60  1740.34
   
       mode:    163      164      165      166      167      168
  temp. (K):  1743.69  1745.90  1767.20  1768.08  1778.27  1791.13
   
       mode:    169      170      171      172      173      174
  temp. (K):  1795.51  1817.22  1842.28  1856.34  1868.72  1890.82
   
       mode:    175      176      177      178      179      180
  temp. (K):  1901.12  1909.27  1918.71  1929.32  1933.84  1940.46
   
       mode:    181      182      183      184      185      186
  temp. (K):  1952.96  1956.79  1969.08  1971.43  1997.58  2024.10
   
       mode:    187      188      189      190      191      192
  temp. (K):  2025.13  2038.48  2045.72  2046.90  2048.72  2050.75
   
       mode:    193      194      195      196      197      198
  temp. (K):  2051.65  2053.53  2054.23  2072.49  2078.87  2082.15
   
       mode:    199      200      201      202      203      204
  temp. (K):  2089.92  2104.58  2107.05  2133.77  2140.38  2153.55
   
       mode:    205      206      207      208      209      210
  temp. (K):  2162.24  2171.25  2171.82  2177.88  2178.70  2180.27
   
       mode:    211      212      213      214      215      216
  temp. (K):  2181.48  2183.38  2183.59  2185.05  2186.55  2190.57
   
       mode:    217      218      219      220      221      222
  temp. (K):  2195.20  2197.28  2197.57  2201.49  2203.97  2206.24
   
       mode:    223      224      225      226      227      228
  temp. (K):  2208.44  2210.98  2215.46  2216.30  2216.88  2219.31
   
       mode:    229      230      231      232      233      234
  temp. (K):  2223.02  2233.25  2241.07  2293.05  2335.97  2337.80
   
       mode:    235      236      237      238      239      240
  temp. (K):  2363.18  2373.11  2380.46  2401.34  2401.71  4373.49
   
       mode:    241      242      243      244      245      246
  temp. (K):  4375.96  4378.80  4379.52  4379.88  4381.25  4381.68
   
       mode:    247      248      249      250      251      252
  temp. (K):  4382.28  4383.26  4384.56  4388.97  4392.01  4396.83
   
       mode:    253      254      255      256      257      258
  temp. (K):  4450.58  4472.47  4474.66  4479.80  4482.39  4483.70
   
       mode:    259      260      261      262      263      264
  temp. (K):  4485.92  4489.61  4490.24  4492.06  4499.31  4500.01
   
       mode:    265      266      267      268      269      270
  temp. (K):  4500.74  4501.61  4504.56  4506.75  4516.62  4519.71
   
       mode:    271      272      273      274      275      276
  temp. (K):  4529.64  4536.14  4552.15  4558.40  4563.63  4568.38
   
       mode:    277      278      279      280      281      282
  temp. (K):  4576.48  4577.54  4578.77  4587.02  4588.76  4591.16
   
       mode:    283      284      285      286      287      288
  temp. (K):  4604.08  4605.51  4606.00  4608.64  4621.94  4624.37
   
       mode:    289      290      291      292      293      294
  temp. (K):  4636.54  4646.18  4664.33  4684.09  4728.98  4985.06
   
   
  Thermodynamic properties calculated assuming an ideal gas

  In the table below, the units for temperature
  are kelvins, the units for U, H, and G are
  kcal/mol and the units for Cv and S are cal/(mol K)

  The zero point energy (ZPE):    547.414 kcal/mol
  is not included in U, H, or G in the table below
  
 
  =============================================================================
  Thermodynamic properties for P = 1.00E+00 atm, calculated at   1 temperatures


  T =   298.15 K, P = 1.00E+00 atm
   
                  U         Cv          S          H          G        ln(Q)
              =========  =========  =========  =========  =========  =========
  trans.          0.889      2.981     45.591      1.481    -12.112   20.44238
  rot.            0.889      2.981     38.068      0.889    -10.461   17.65648
  vib.           27.623    182.952    165.871     27.623    -21.831   36.84650
  elec.           0.000      0.000      0.000      0.000      0.000    0.00000
  ----------------------------------------------------------------------------
  total          29.401    188.914    249.530     29.993    -44.404   74.94536
   
   Total internal energy, Utot(SCFE + ZPE + U):   -2216.778661 hartrees
   Total enthalpy, Htot (Utot + nRT), with n=1:   -2216.777716 hartrees
    Total Gibbs free energy, Gtot (Htot - T*S):   -2216.896276 hartrees
   
  end of program freq
   
 Time(freq)  user:       1.144  user+sys:       1.144  wallclock:       0.612
  
  start of program post
  
  Writing input files for PBF
  end of program post
   
 Time(post)  user:       0.351  user+sys:       0.351  wallclock:       0.134

 Total cpu seconds     user:  214579.237   user+sys:  214579.237
  
 Total elapsed time:    24612 seconds

Job red_elim_L_trans_L1_PL274_2 completed on bp1-compute087 at Wed Dec  3 00:12:40 2025
